                         Program Version 3.0.3 - RELEASE   -
|  1> ! NORI PBE0 def2-TZVP UseSym TightOPT Freq TightSCF Grid3 FinalGrid5 XYZFile
|  2> % pal
|  3>     nprocs 8
|  4> end
|  5> %method
|  6>     SymThresh 5.0e-2
|  7> end
|  8> % geom
|  9>     MaxIter 10
| 10> end
| 11> % maxcore 2000
| 12> % output
| 13>     printlevel mini
| 14>     print[ P_Basis ] 0
| 15>     print[ P_SCFInfo ] 1
| 16>     print[ P_SCFIterInfo ] 1
| 17>     print[ P_OrbEn ] 0
| 18>     print[ P_Cartesian ] 0
| 19> end
| 20> % elprop
| 21>     Dipole false
| 22> end
| 23> *xyz 1 1
| 24>  C       -1.5106295404     0.7429935535     0.0735463685
| 25>  C       -1.5283606362    -0.7575479907    -0.1298406736
| 26>  N       -0.2845248110    -1.4251720044     0.4084116115
| 27>  C        0.9288864090    -1.2605504954    -0.4608608384
| 28>  C        1.6855245157     0.0110447537    -0.0614087190
| 29>  O        0.8378252039     0.9673766037     0.5055400397
| 30>  C       -0.2168633578     1.4276382568    -0.3285534190
| 31>  H       -2.3484013891     1.1587950512    -0.4930370771
| 32>  H       -1.7019735865     0.9737210385     1.1255847463
| 33>  H       -1.5802918925    -1.0372760844    -1.1832105596
| 34>  H       -2.3760407517    -1.2102781263     0.3860836608
| 35>  H       -0.0781105387    -1.0238449449     1.3281562733
| 36>  H       -0.4756823539    -2.4178886044     0.5389822570
| 37>  H        1.5575828962    -2.1439015442    -0.3443609688
| 38>  H        0.5691556052    -1.2320952451    -1.4890180582
| 39>  H        2.2154497694     0.3945764588    -0.9411284999
| 40>  H        2.4295151388    -0.2164006991     0.7040281993
| 41>  H       -0.3078580140     2.5030616567    -0.1680570041
| 42>  H        0.0244673336     1.2728983662    -1.3874173386
| 43> *
| 44>
| 45>                          ****END OF INPUT****
 Total Charge           Charge          ....    1
 Multiplicity           Mult            ....    1
 Number of Electrons    NEL             ....   56
FINAL SINGLE POINT ENERGY      -327.218065934487
FINAL SINGLE POINT ENERGY      -327.218067569693

CARTESIAN COORDINATES (ANGSTROEM)
---------------------------------
  C     -0.912184   -1.411536   -0.298596
  C     -0.149839   -0.817850   -1.464960
  N      1.038743    0.000340   -1.017899
  C      0.688652    1.358727   -0.482428
  C      0.436361    1.271734    1.026886
  O      0.000141    0.000563    1.411845
  C     -1.218090   -0.438575    0.825894
  H     -1.840126   -1.832495   -0.695642
  H     -0.346595   -2.248343    0.122629
  H     -0.762738   -0.145489   -2.067375
  H      0.237172   -1.602701   -2.116417
  H      1.526201   -0.519262   -0.281551
  H      1.680792    0.101242   -1.803245
  H      1.512526    2.038162   -0.703462
  H     -0.186024    1.693122   -1.038613
  H     -0.272488    2.058390    1.309890
  H      1.363804    1.444856    1.575813
  H     -1.784934   -0.948787    1.605763
  H     -1.819306    0.413975    0.487432

FINAL SINGLE POINT ENERGY      -327.218068412914
                    ***********************HURRAY********************
 Multiplicity           Mult            ....    1
 Number of Electrons    NEL             ....   56
 Basis Dimension        Dim             ....  289
FINAL SINGLE POINT ENERGY      -327.218068868506

VIBRATIONAL FREQUENCIES
-----------------------

   0:         0.00 cm**-1
   1:         0.00 cm**-1
   2:         0.00 cm**-1
   3:         0.00 cm**-1
   4:         0.00 cm**-1
   5:         0.00 cm**-1
   6:       122.47 cm**-1
   7:       198.82 cm**-1
   8:       286.13 cm**-1
   9:       305.59 cm**-1
  10:       372.39 cm**-1
  11:       428.70 cm**-1
  12:       513.26 cm**-1
  13:       581.78 cm**-1
  14:       764.55 cm**-1
  15:       822.45 cm**-1
  16:       846.12 cm**-1
  17:       881.47 cm**-1
  18:       894.94 cm**-1
  19:       909.16 cm**-1
  20:       995.07 cm**-1
  21:      1021.82 cm**-1
  22:      1038.32 cm**-1
  23:      1084.16 cm**-1
  24:      1114.10 cm**-1
  25:      1133.31 cm**-1
  26:      1199.29 cm**-1
  27:      1243.15 cm**-1
  28:      1253.25 cm**-1
  29:      1285.94 cm**-1
  30:      1305.64 cm**-1
  31:      1333.47 cm**-1
  32:      1344.50 cm**-1
  33:      1380.98 cm**-1
  34:      1406.23 cm**-1
  35:      1412.24 cm**-1
  36:      1418.52 cm**-1
  37:      1427.32 cm**-1
  38:      1438.31 cm**-1
  39:      1468.88 cm**-1
  40:      1486.31 cm**-1
  41:      1499.17 cm**-1
  42:      1502.72 cm**-1
  43:      1514.54 cm**-1
  44:      1607.49 cm**-1
  45:      3040.98 cm**-1
  46:      3050.61 cm**-1
  47:      3066.76 cm**-1
  48:      3093.49 cm**-1
  49:      3106.00 cm**-1
  50:      3116.53 cm**-1
  51:      3121.25 cm**-1
  52:      3128.86 cm**-1
  53:      3150.50 cm**-1
  54:      3164.27 cm**-1
  55:      3421.08 cm**-1
  56:      3507.88 cm**-1

IR SPECTRUM
-----------

 Mode    freq (cm**-1)   T**2         TX         TY         TZ
-------------------------------------------------------------------
   6:       122.47    2.900326  ( -0.910895  -0.813793   1.186733)
   7:       198.82   13.472781  ( -1.818602   0.462034   3.154678)
   8:       286.13   10.718305  ( -1.342179   1.585578   2.530376)
   9:       305.59    6.670895  (  1.238650   1.048987  -2.009046)
  10:       372.39    3.543094  ( -0.962267  -0.225039  -1.602028)
  11:       428.70    1.035869  ( -0.191810   0.614246   0.788531)
  12:       513.26    6.256641  ( -0.656494  -0.210956   2.404403)
  13:       581.78    2.957877  ( -0.172318  -0.606295   1.600184)
  14:       764.55    6.494950  ( -2.063554  -0.249262   1.474640)
  15:       822.45   12.793929  (  0.378780   0.889690   3.443676)
  16:       846.12    4.726399  ( -0.669504  -0.507568   2.005128)
  17:       881.47    3.026718  ( -0.445888   1.575871  -0.586969)
  18:       894.94    6.148997  (  0.741875  -2.055904  -1.171272)
  19:       909.16    1.013468  (  0.796166  -0.253855  -0.561379)
  20:       995.07   16.756825  (  2.464898   3.202000  -0.654445)
  21:      1021.82   26.201105  ( -3.372247   1.195904  -3.660447)
  22:      1038.32    1.419282  ( -0.835545  -0.459040  -0.714443)
  23:      1084.16   10.238516  ( -1.520151  -2.787489   0.396939)
  24:      1114.10    2.539178  ( -0.653044   0.125895  -1.448055)
  25:      1133.31   23.058121  ( -3.256365  -3.340410  -1.138361)
  26:      1199.29   96.732954  ( -5.536999  -8.072070  -0.957223)
  27:      1243.15    9.153164  ( -2.577696  -0.395133   1.533791)
  28:      1253.25    4.423937  (  0.514796   2.019952  -0.280567)
  29:      1285.94   16.349145  (  2.379351   3.193563   0.699277)
  30:      1305.64   10.595828  ( -1.737657  -2.564881   0.998879)
  31:      1333.47    5.101352  (  0.756651  -1.605555  -1.396791)
  32:      1344.50    3.236479  (  1.047990  -1.129089   0.929168)
  33:      1380.98    0.050360  (  0.203341  -0.081389  -0.048871)
  34:      1406.23   14.989594  (  1.146322   3.418693   1.409993)
  35:      1412.24    1.057796  ( -0.422910  -0.710825  -0.611287)
  36:      1418.52    1.654068  ( -0.193703  -0.323757  -1.229523)
  37:      1427.32   50.348442  ( -2.583506  -6.246524  -2.157514)
  38:      1438.31    1.916310  ( -0.364232   0.742318   1.110230)
  39:      1468.88    3.533147  (  0.175081  -1.660176   0.863893)
  40:      1486.31    2.403453  ( -0.123442  -1.543585  -0.074561)
  41:      1499.17    9.901812  (  2.041884  -0.180480  -2.387456)
  42:      1502.72   14.710486  (  0.378160   0.633911   3.763727)
  43:      1514.54   17.028892  ( -0.911981   2.646079  -3.032400)
  44:      1607.49   89.787489  ( -8.799119   3.284798   1.254232)
  45:      3040.98   14.546073  (  3.408663  -1.662598   0.403553)
  46:      3050.61   16.919619  ( -0.106478  -3.910113  -1.272516)
  47:      3066.76    3.997312  (  1.356266  -1.464829   0.110139)
  48:      3093.49    2.680731  ( -0.214785  -0.399709   1.573160)
  49:      3106.00    1.320573  ( -0.169802   0.760264  -0.844831)
  50:      3116.53    1.821913  ( -1.049090   0.326032  -0.784236)
  51:      3121.25    3.470825  ( -1.832172  -0.149666  -0.302610)
  52:      3128.86    5.629344  ( -1.031015  -1.808132   1.138863)
  53:      3150.50    1.469758  ( -0.279075   1.177960  -0.065461)
  54:      3164.27    1.080548  (  0.896451   0.075824   0.520745)
  55:      3421.08   43.144090  ( -5.024831   3.040115  -2.941575)
  56:      3507.88   85.585947  (  4.025621   1.841434  -8.123389)

--------------------------
THERMOCHEMISTRY AT 298.15K
--------------------------

Temperature         ... 298.15 K
Pressure            ... 1.00 atm
Total Mass          ... 102.16 AMU

Throughout the following assumptions are being made:
  (1) The electronic state is orbitally nondegenerate
  (2) There are no thermally accessible electronically excited states
  (3) Hindered rotations indicated by low frequency modes) are not
      treated as such but are treated as vibrations and this may
      case some error
  (4) All equations used are the standard statistical mechanics
      equations for an ideal gas
  (5) All vibrations are strinctly harmonic

------------
INNER ENERGY
------------

The inner energy is: U= E(el) + E(ZPE) + E(vib) + E(rot) + E(trans)
    E(el)   - is the total energy from the electronic structure calculation
              = E(kin-el) + E(nuc-el) + E(el-el) + E(nuc-nuc)
    E(ZPE)  - the the zero temperature vibrational energy from the frequency calculation
    E(vib)  - the the finite temperature correction to E(ZPE) due to population
              of excietd vibrational states
    E(rot)  - is the rotational thermal energy
    E(trans)- is the translational thermal energy

Summary of contributions to the inner energy U:
Electronic energy                ...   -327.21806887 Eh
Zero point energy                ...      0.17954419 Eh     112.67 kcal/mol
Thermal vibrational correction   ...      0.00383542 Eh       2.41 kcal/mol
Thermal rotational correction    ...      0.00141627 Eh       0.89 kcal/mol
Thermal translational correction ...      0.00141627 Eh       0.89 kcal/mol
-----------------------------------------------------------------------
Total thermal energy                   -327.03185672 Eh

Summary of corrections to the electronic energy:
(perhaps to be used in another calculation)
Total thermal correction                  0.00666796 Eh       4.18 kcal/mol
Non-thermal (ZPE) correction              0.17954419 Eh     112.67 kcal/mol
-----------------------------------------------------------------------
Total correction                          0.18621215 Eh     116.85 kcal/mol

--------
ENTHALPY
--------

The enthalpy is H = U + kB*T
                kB is Boltzmann's constant
Total free energy                 ...   -327.03185672 Eh
Thermal Enthalpy correction       ...      0.00094421 Eh       0.59 kcal/mol
-----------------------------------------------------------------------
Total Enthalpy                    ...   -327.03091251 Eh

-------
ENTROPY
-------

The entropy contributions are T*S = T*(S(el)+S(vib)+S(rot)+S(trans)
     S(el)   - electronic entropy
     S(vib)  - vibrational entropy
     S(rot)  - rotational entropy
     S(trans)- translational entropy
The entropies will be listed as mutliplied by the temperature to get
units of energy

Electronic entropy                ...      0.00000000 Eh      0.00 kcal/mol
Vibrational entropy               ...      0.00616688 Eh      3.87 kcal/mol
Rotational entropy                ...      0.01188480 Eh      7.46 kcal/mol
Translational entropy             ...      0.01890147 Eh     11.86 kcal/mol
-----------------------------------------------------------------------
Final entropy term                ...      0.03695314 Eh     23.19 kcal/mol

CAUTION: The rotational entropy is not quite correctly treated here
         because it includes a symmetry number that is not yet correctly
         implemented in ORCA!
For a nonlinear molecule the correct rotational entropy is:
    S(rot) = R*(ln(qrot/sn)+1.5)
    R    = 8.31441 J/mol/K = 1.987191683e-3 kcal/mol/K
    qrot = 196030.7847964
    sn is the rotational symmetry number. We have assumed 3 here
       if it is different for your molecule then you should correct
       the printed rotational entropy by manually evaluating the equation
       as given above

For convenience we print out the resulting values for sn=1 - 12:
 sn= 1  qrot/sn=  196030.7848 T*S(rot)=     8.11 kcal/mol T*S(tot)=    23.84 kcal/mol
 sn= 2  qrot/sn=   98015.3924 T*S(rot)=     7.70 kcal/mol T*S(tot)=    23.43 kcal/mol
 sn= 3  qrot/sn=   65343.5949 T*S(rot)=     7.46 kcal/mol T*S(tot)=    23.19 kcal/mol
 sn= 4  qrot/sn=   49007.6962 T*S(rot)=     7.29 kcal/mol T*S(tot)=    23.02 kcal/mol
 sn= 5  qrot/sn=   39206.1570 T*S(rot)=     7.16 kcal/mol T*S(tot)=    22.89 kcal/mol
 sn= 6  qrot/sn=   32671.7975 T*S(rot)=     7.05 kcal/mol T*S(tot)=    22.78 kcal/mol
 sn= 7  qrot/sn=   28004.3978 T*S(rot)=     6.96 kcal/mol T*S(tot)=    22.69 kcal/mol
 sn= 8  qrot/sn=   24503.8481 T*S(rot)=     6.88 kcal/mol T*S(tot)=    22.61 kcal/mol
 sn= 9  qrot/sn=   21781.1983 T*S(rot)=     6.81 kcal/mol T*S(tot)=    22.54 kcal/mol
 sn=10  qrot/sn=   19603.0785 T*S(rot)=     6.74 kcal/mol T*S(tot)=    22.48 kcal/mol
 sn=11  qrot/sn=   17820.9804 T*S(rot)=     6.69 kcal/mol T*S(tot)=    22.42 kcal/mol
 sn=12  qrot/sn=   16335.8987 T*S(rot)=     6.64 kcal/mol T*S(tot)=    22.37 kcal/mol

-------------------
GIBBS FREE ENTHALPY
-------------------

The Gibbs free enthalpy is G = H - T*S

Total enthalpy                    ...   -327.03091251 Eh
Total entropy correction          ...     -0.03695314 Eh    -23.19 kcal/mol
-----------------------------------------------------------------------
Final Gibbs free enthalpy         ...   -327.06786566 Eh

For completeness - the Gibbs free enthalpy minus the electronic energy
G-E(el)                           ...      0.15020321 Eh     94.25 kcal/mol

                             ****ORCA TERMINATED NORMALLY****
TOTAL RUN TIME: 0 days 0 hours 51 minutes 34 seconds 401 msec
