                         Program Version 3.0.3 - RELEASE   -
|  1> ! NORI PBE0 def2-TZVP UseSym TightOPT Freq TightSCF Grid3 FinalGrid5 XYZFile
|  2> % pal
|  3>     nprocs 8
|  4> end
|  5> %method
|  6>     SymThresh 5.0e-2
|  7> end
|  8> % geom
|  9>     MaxIter 10
| 10> end
| 11> % maxcore 2000
| 12> % output
| 13>     printlevel mini
| 14>     print[ P_Basis ] 0
| 15>     print[ P_SCFInfo ] 1
| 16>     print[ P_SCFIterInfo ] 1
| 17>     print[ P_OrbEn ] 0
| 18>     print[ P_Cartesian ] 0
| 19> end
| 20> % elprop
| 21>     Dipole false
| 22> end
| 23> *xyz 1 1
| 24>  C       -1.6663788317     0.8137276865     0.4987202014
| 25>  C       -1.1232374261    -0.2891909107    -0.3523931235
| 26>  N       -0.3225245092    -1.3437231973     0.3074825594
| 27>  C        1.0709563768    -1.3856639625    -0.2514176067
| 28>  C        1.6828764538     0.0276791676    -0.1128423239
| 29>  O        0.7573600187     0.9015465449     0.5070027099
| 30>  C       -0.4013091668     1.0219804212    -0.2501039707
| 31>  H       -2.5620579985     1.2974744730     0.1317644092
| 32>  H       -1.6002989468     0.7328255884     1.5784266332
| 33>  H       -1.6192652732    -0.6347556741    -1.2492784674
| 34>  H       -0.2659935660    -1.1371377885     1.3064946848
| 35>  H       -0.7739918639    -2.2545203137     0.2162318880
| 36>  H        1.6288647761    -2.1393868299     0.3036938549
| 37>  H        0.9810551355    -1.7073823325    -1.2879585727
| 38>  H        1.9819389090     0.4080913728    -1.0933486304
| 39>  H        2.5598388895     0.0059716245     0.5317559947
| 40>  H       -0.3542729772     1.6920741301    -1.1039902402
| 41> *
| 42>
| 43>                          ****END OF INPUT****
 Total Charge           Charge          ....    1
 Multiplicity           Mult            ....    1
 Number of Electrons    NEL             ....   54
FINAL SINGLE POINT ENERGY      -325.975261173848
FINAL SINGLE POINT ENERGY      -325.975262377701

CARTESIAN COORDINATES (ANGSTROEM)
---------------------------------
  C     -0.724754   -1.803616   -0.160383
  C     -0.536914   -0.559352   -0.968017
  N      0.828971   -0.000258   -1.070134
  C      0.882316    1.388073   -0.499675
  C      0.346749    1.330050    0.949924
  O     -0.001257    0.000682    1.289163
  C     -1.002839   -0.482361    0.456612
  H     -1.566324   -2.425579   -0.436486
  H      0.147267   -2.344848    0.190333
  H     -1.158718   -0.314019   -1.818359
  H      1.468831   -0.595718   -0.541084
  H      1.151424   -0.002646   -2.038301
  H      1.916278    1.728962   -0.550088
  H      0.273495    2.014754   -1.150229
  H     -0.511099    1.999021    1.063771
  H      1.117033    1.633088    1.656952
  H     -2.017232   -0.170076    0.687694

FINAL SINGLE POINT ENERGY      -325.975263035189
                    ***********************HURRAY********************
 Multiplicity           Mult            ....    1
 Number of Electrons    NEL             ....   54
 Basis Dimension        Dim             ....  277
FINAL SINGLE POINT ENERGY      -325.975263249722

VIBRATIONAL FREQUENCIES
-----------------------

   0:         0.00 cm**-1
   1:         0.00 cm**-1
   2:         0.00 cm**-1
   3:         0.00 cm**-1
   4:         0.00 cm**-1
   5:         0.00 cm**-1
   6:       116.49 cm**-1
   7:       233.07 cm**-1
   8:       329.91 cm**-1
   9:       425.10 cm**-1
  10:       496.08 cm**-1
  11:       535.71 cm**-1
  12:       687.72 cm**-1
  13:       788.33 cm**-1
  14:       810.32 cm**-1
  15:       829.41 cm**-1
  16:       857.24 cm**-1
  17:       899.90 cm**-1
  18:       955.98 cm**-1
  19:       998.01 cm**-1
  20:      1029.25 cm**-1
  21:      1043.38 cm**-1
  22:      1076.96 cm**-1
  23:      1093.46 cm**-1
  24:      1109.68 cm**-1
  25:      1125.20 cm**-1
  26:      1170.88 cm**-1
  27:      1189.49 cm**-1
  28:      1225.98 cm**-1
  29:      1267.82 cm**-1
  30:      1282.77 cm**-1
  31:      1309.01 cm**-1
  32:      1349.16 cm**-1
  33:      1398.67 cm**-1
  34:      1408.97 cm**-1
  35:      1420.14 cm**-1
  36:      1438.47 cm**-1
  37:      1481.59 cm**-1
  38:      1500.33 cm**-1
  39:      1515.67 cm**-1
  40:      1623.93 cm**-1
  41:      3071.79 cm**-1
  42:      3108.92 cm**-1
  43:      3152.07 cm**-1
  44:      3157.93 cm**-1
  45:      3169.12 cm**-1
  46:      3172.20 cm**-1
  47:      3222.17 cm**-1
  48:      3254.12 cm**-1
  49:      3450.70 cm**-1
  50:      3508.01 cm**-1

IR SPECTRUM
-----------

 Mode    freq (cm**-1)   T**2         TX         TY         TZ
-------------------------------------------------------------------
   6:       116.49    1.685749  (  1.141009   0.322810   0.528811)
   7:       233.07    8.443447  (  1.527267   0.172951  -2.465967)
   8:       329.91    3.407765  ( -0.538137   1.702332   0.469295)
   9:       425.10   22.902646  (  1.695092  -0.228439  -4.469578)
  10:       496.08    0.734765  ( -0.753912  -0.357809   0.195842)
  11:       535.71    0.982647  (  0.685667   0.467459  -0.542208)
  12:       687.72    0.738249  ( -0.654433  -0.285086  -0.478219)
  13:       788.33   15.460505  ( -0.371281  -0.626318   3.863985)
  14:       810.32   11.554753  (  0.152632   3.347735  -0.569320)
  15:       829.41    6.740392  (  1.642689   0.520663   1.941874)
  16:       857.24    2.423370  ( -0.575313  -0.239409   1.426558)
  17:       899.90    5.073535  (  0.202519   0.545282   2.176049)
  18:       955.98   13.706531  ( -0.885754  -2.362556   2.709299)
  19:       998.01    5.292194  ( -1.136658   1.135400   1.646532)
  20:      1029.25   12.213995  (  0.672857   2.620343   2.212479)
  21:      1043.38    3.196915  ( -0.718768   0.573397  -1.533461)
  22:      1076.96   10.016723  (  0.911830   1.021796  -2.853283)
  23:      1093.46   17.642443  ( -1.164893  -3.605267   1.813151)
  24:      1109.68   17.991526  ( -0.551188   4.183156   0.434652)
  25:      1125.20   14.396644  (  1.200888   3.380046   1.236851)
  26:      1170.88   22.774625  (  2.693434   3.861368   0.780946)
  27:      1189.49   24.965430  (  4.033603   2.946052   0.127489)
  28:      1225.98   32.247249  (  3.172468   4.083616   2.346653)
  29:      1267.82    4.339134  (  1.596592   0.824206   1.053903)
  30:      1282.77   12.251631  ( -1.642134  -2.868149   1.152713)
  31:      1309.01    5.532694  (  1.829024  -0.030284   1.478665)
  32:      1349.16   10.835345  ( -1.424381  -2.288245  -1.889555)
  33:      1398.67   13.404137  ( -2.422621  -2.694998  -0.521564)
  34:      1408.97    2.241822  ( -0.550260  -1.353547   0.327028)
  35:      1420.14   11.953745  (  1.368992   2.791248   1.512791)
  36:      1438.47   15.411338  ( -3.205389  -1.515448  -1.685300)
  37:      1481.59   15.691204  ( -0.054076  -3.784853  -1.167549)
  38:      1500.33    9.961999  ( -1.051143  -1.417234   2.616973)
  39:      1515.67    9.831045  ( -0.164103  -3.129697  -0.095467)
  40:      1623.93   75.087093  (  7.089430  -4.187032  -2.701079)
  41:      3071.79   14.231951  (  1.048849  -3.362887  -1.350133)
  42:      3108.92    1.303191  (  0.325016   0.643207  -0.885347)
  43:      3152.07    0.913978  ( -0.855828  -0.336263  -0.261654)
  44:      3157.93    4.283190  ( -0.994330  -1.799270   0.239012)
  45:      3169.12    2.083873  (  1.377546   0.185550   0.389630)
  46:      3172.20    0.496117  (  0.619143   0.250587   0.223574)
  47:      3222.17    0.918570  ( -0.627106  -0.102495  -0.717498)
  48:      3254.12    3.054547  (  1.535259   0.389792   0.738640)
  49:      3450.70   54.976532  ( -5.912813   3.727205   2.474494)
  50:      3508.01   88.397951  ( -0.471035   2.531423  -9.042565)

--------------------------
THERMOCHEMISTRY AT 298.15K
--------------------------

Temperature         ... 298.15 K
Pressure            ... 1.00 atm
Total Mass          ... 100.14 AMU

Throughout the following assumptions are being made:
  (1) The electronic state is orbitally nondegenerate
  (2) There are no thermally accessible electronically excited states
  (3) Hindered rotations indicated by low frequency modes) are not
      treated as such but are treated as vibrations and this may
      case some error
  (4) All equations used are the standard statistical mechanics
      equations for an ideal gas
  (5) All vibrations are strinctly harmonic

------------
INNER ENERGY
------------

The inner energy is: U= E(el) + E(ZPE) + E(vib) + E(rot) + E(trans)
    E(el)   - is the total energy from the electronic structure calculation
              = E(kin-el) + E(nuc-el) + E(el-el) + E(nuc-nuc)
    E(ZPE)  - the the zero temperature vibrational energy from the frequency calculation
    E(vib)  - the the finite temperature correction to E(ZPE) due to population
              of excietd vibrational states
    E(rot)  - is the rotational thermal energy
    E(trans)- is the translational thermal energy

Summary of contributions to the inner energy U:
Electronic energy                ...   -325.97526325 Eh
Zero point energy                ...      0.15557867 Eh      97.63 kcal/mol
Thermal vibrational correction   ...      0.00315898 Eh       1.98 kcal/mol
Thermal rotational correction    ...      0.00141627 Eh       0.89 kcal/mol
Thermal translational correction ...      0.00141627 Eh       0.89 kcal/mol
-----------------------------------------------------------------------
Total thermal energy                   -325.81369306 Eh

Summary of corrections to the electronic energy:
(perhaps to be used in another calculation)
Total thermal correction                  0.00599152 Eh       3.76 kcal/mol
Non-thermal (ZPE) correction              0.15557867 Eh      97.63 kcal/mol
-----------------------------------------------------------------------
Total correction                          0.16157019 Eh     101.39 kcal/mol

--------
ENTHALPY
--------

The enthalpy is H = U + kB*T
                kB is Boltzmann's constant
Total free energy                 ...   -325.81369306 Eh
Thermal Enthalpy correction       ...      0.00094421 Eh       0.59 kcal/mol
-----------------------------------------------------------------------
Total Enthalpy                    ...   -325.81274885 Eh

-------
ENTROPY
-------

The entropy contributions are T*S = T*(S(el)+S(vib)+S(rot)+S(trans)
     S(el)   - electronic entropy
     S(vib)  - vibrational entropy
     S(rot)  - rotational entropy
     S(trans)- translational entropy
The entropies will be listed as mutliplied by the temperature to get
units of energy

Electronic entropy                ...      0.00000000 Eh      0.00 kcal/mol
Vibrational entropy               ...      0.00502689 Eh      3.15 kcal/mol
Rotational entropy                ...      0.01170234 Eh      7.34 kcal/mol
Translational entropy             ...      0.01887324 Eh     11.84 kcal/mol
-----------------------------------------------------------------------
Final entropy term                ...      0.03560247 Eh     22.34 kcal/mol

CAUTION: The rotational entropy is not quite correctly treated here
         because it includes a symmetry number that is not yet correctly
         implemented in ORCA!
For a nonlinear molecule the correct rotational entropy is:
    S(rot) = R*(ln(qrot/sn)+1.5)
    R    = 8.31441 J/mol/K = 1.987191683e-3 kcal/mol/K
    qrot = 161585.1851409
    sn is the rotational symmetry number. We have assumed 3 here
       if it is different for your molecule then you should correct
       the printed rotational entropy by manually evaluating the equation
       as given above

For convenience we print out the resulting values for sn=1 - 12:
 sn= 1  qrot/sn=  161585.1851 T*S(rot)=     7.99 kcal/mol T*S(tot)=    22.99 kcal/mol
 sn= 2  qrot/sn=   80792.5926 T*S(rot)=     7.58 kcal/mol T*S(tot)=    22.58 kcal/mol
 sn= 3  qrot/sn=   53861.7284 T*S(rot)=     7.34 kcal/mol T*S(tot)=    22.34 kcal/mol
 sn= 4  qrot/sn=   40396.2963 T*S(rot)=     7.17 kcal/mol T*S(tot)=    22.17 kcal/mol
 sn= 5  qrot/sn=   32317.0370 T*S(rot)=     7.04 kcal/mol T*S(tot)=    22.04 kcal/mol
 sn= 6  qrot/sn=   26930.8642 T*S(rot)=     6.93 kcal/mol T*S(tot)=    21.93 kcal/mol
 sn= 7  qrot/sn=   23083.5979 T*S(rot)=     6.84 kcal/mol T*S(tot)=    21.84 kcal/mol
 sn= 8  qrot/sn=   20198.1481 T*S(rot)=     6.76 kcal/mol T*S(tot)=    21.76 kcal/mol
 sn= 9  qrot/sn=   17953.9095 T*S(rot)=     6.69 kcal/mol T*S(tot)=    21.69 kcal/mol
 sn=10  qrot/sn=   16158.5185 T*S(rot)=     6.63 kcal/mol T*S(tot)=    21.63 kcal/mol
 sn=11  qrot/sn=   14689.5623 T*S(rot)=     6.57 kcal/mol T*S(tot)=    21.57 kcal/mol
 sn=12  qrot/sn=   13465.4321 T*S(rot)=     6.52 kcal/mol T*S(tot)=    21.52 kcal/mol

-------------------
GIBBS FREE ENTHALPY
-------------------

The Gibbs free enthalpy is G = H - T*S

Total enthalpy                    ...   -325.81274885 Eh
Total entropy correction          ...     -0.03560247 Eh    -22.34 kcal/mol
-----------------------------------------------------------------------
Final Gibbs free enthalpy         ...   -325.84835133 Eh

For completeness - the Gibbs free enthalpy minus the electronic energy
G-E(el)                           ...      0.12691192 Eh     79.64 kcal/mol

                             ****ORCA TERMINATED NORMALLY****
TOTAL RUN TIME: 0 days 0 hours 41 minutes 22 seconds 920 msec
