                         Program Version 3.0.3 - RELEASE   -
|  1> ! NORI PBE0 def2-TZVP UseSym TightOPT Freq TightSCF Grid3 FinalGrid5 XYZFile
|  2> % pal
|  3>     nprocs 8
|  4> end
|  5> %method
|  6>     SymThresh 5.0e-2
|  7> end
|  8> % geom
|  9>     MaxIter 10
| 10> end
| 11> % maxcore 2000
| 12> % output
| 13>     printlevel mini
| 14>     print[ P_Basis ] 0
| 15>     print[ P_SCFInfo ] 1
| 16>     print[ P_SCFIterInfo ] 1
| 17>     print[ P_OrbEn ] 0
| 18>     print[ P_Cartesian ] 0
| 19> end
| 20> % elprop
| 21>     Dipole false
| 22> end
| 23> *xyz 1 1
| 24>  C        1.6823065533    -0.1693589055    -0.0561317529
| 25>  C        0.7135724509    -1.1751156219     0.5232137976
| 26>  O       -0.4006451638    -1.3970844904    -0.3170378839
| 27>  C       -1.4284407540    -0.5304042707    -0.1819542038
| 28>  C       -1.3656236211     0.7430361146     0.2095278556
| 29>  C       -0.1253158359     1.5388340474     0.4586142178
| 30>  N        0.9730805294     1.0907258191    -0.4687873487
| 31>  H        2.4396800229     0.0984712472     0.6822765424
| 32>  H        2.1784773933    -0.5556132425    -0.9472780052
| 33>  H        1.2335705938    -2.1296066353     0.6198750548
| 34>  H        0.3691082991    -0.8783641225     1.5179485881
| 35>  H       -2.3718258549    -0.9856465893    -0.4609646107
| 36>  H       -2.3010158161     1.2818648712     0.2867307891
| 37>  H       -0.3102181534     2.5907373167     0.2359998631
| 38>  H        0.2706935607     1.4842189538     1.4759668864
| 39>  H        0.5421311783     0.9406193902    -1.3845765360
| 40>  H        1.6619846174     1.8352561181    -0.5875132537
| 41> *
| 42>
| 43>                          ****END OF INPUT****
 Total Charge           Charge          ....    1
 Multiplicity           Mult            ....    1
 Number of Electrons    NEL             ....   54
FINAL SINGLE POINT ENERGY      -325.990882112337

CARTESIAN COORDINATES (ANGSTROEM)
---------------------------------
  C      1.071257    1.216450   -0.295517
  C      0.029548    1.217192    0.800121
  O     -0.000183   -0.000078    1.517473
  C     -0.755460   -0.986010    0.984697
  C     -1.040257   -1.178948   -0.303914
  C     -0.476931   -0.423250   -1.463784
  N      0.937723    0.000075   -1.169034
  H      0.958379    2.097952   -0.928629
  H      2.083342    1.200516    0.110780
  H      0.289022    2.000411    1.514150
  H     -0.968180    1.436493    0.408918
  H     -1.116033   -1.666950    1.747138
  H     -1.688399   -2.010865   -0.546506
  H     -0.431515   -1.071078   -2.340205
  H     -1.028300    0.476198   -1.749547
  H      1.390426   -0.790289   -0.703043
  H      1.447957    0.159182   -2.039100

FINAL SINGLE POINT ENERGY      -325.990883029917
                    ***********************HURRAY********************
 Multiplicity           Mult            ....    1
 Number of Electrons    NEL             ....   54
 Basis Dimension        Dim             ....  277
FINAL SINGLE POINT ENERGY      -325.990883481557

VIBRATIONAL FREQUENCIES
-----------------------

   0:         0.00 cm**-1
   1:         0.00 cm**-1
   2:         0.00 cm**-1
   3:         0.00 cm**-1
   4:         0.00 cm**-1
   5:         0.00 cm**-1
   6:       115.04 cm**-1
   7:       253.25 cm**-1
   8:       306.11 cm**-1
   9:       345.44 cm**-1
  10:       378.42 cm**-1
  11:       510.37 cm**-1
  12:       583.85 cm**-1
  13:       735.91 cm**-1
  14:       760.01 cm**-1
  15:       793.68 cm**-1
  16:       871.77 cm**-1
  17:       887.96 cm**-1
  18:       937.28 cm**-1
  19:       986.02 cm**-1
  20:      1000.98 cm**-1
  21:      1008.65 cm**-1
  22:      1066.24 cm**-1
  23:      1070.34 cm**-1
  24:      1128.61 cm**-1
  25:      1178.91 cm**-1
  26:      1226.55 cm**-1
  27:      1276.35 cm**-1
  28:      1309.59 cm**-1
  29:      1320.21 cm**-1
  30:      1346.10 cm**-1
  31:      1390.69 cm**-1
  32:      1415.99 cm**-1
  33:      1422.82 cm**-1
  34:      1435.84 cm**-1
  35:      1446.28 cm**-1
  36:      1482.24 cm**-1
  37:      1489.59 cm**-1
  38:      1504.12 cm**-1
  39:      1635.76 cm**-1
  40:      1719.13 cm**-1
  41:      3070.31 cm**-1
  42:      3083.76 cm**-1
  43:      3097.61 cm**-1
  44:      3135.28 cm**-1
  45:      3138.52 cm**-1
  46:      3159.32 cm**-1
  47:      3216.29 cm**-1
  48:      3233.75 cm**-1
  49:      3432.78 cm**-1
  50:      3494.03 cm**-1

IR SPECTRUM
-----------

 Mode    freq (cm**-1)   T**2         TX         TY         TZ
-------------------------------------------------------------------
   6:       115.04    4.385896  (  1.421032   0.342559  -1.499739)
   7:       253.25    9.203740  (  0.399694   1.156000  -2.776265)
   8:       306.11    1.677082  (  1.063605   0.223397   0.704216)
   9:       345.44    5.255921  ( -1.105871   1.537923   1.291419)
  10:       378.42    1.655960  ( -0.045114   0.976120  -0.837325)
  11:       510.37   18.579412  (  4.121260  -1.238178  -0.248087)
  12:       583.85    5.896038  ( -2.328093  -0.118226  -0.679739)
  13:       735.91    6.545728  ( -0.025891  -0.969091   2.367683)
  14:       760.01   38.365282  ( -4.650831   3.742117  -1.652760)
  15:       793.68    2.063726  (  0.602622  -0.272075  -1.275362)
  16:       871.77   13.209888  (  1.927359  -0.888350  -2.950595)
  17:       887.96    3.438310  (  0.040470   1.353486  -1.266786)
  18:       937.28   11.830330  (  0.946486   0.311652   3.292016)
  19:       986.02    6.566857  ( -0.946591   1.616447  -1.748691)
  20:      1000.98   13.937502  ( -3.107228   0.322931  -2.044102)
  21:      1008.65   15.931213  (  2.684948   2.783240  -0.987847)
  22:      1066.24    6.267068  (  1.616130  -0.559003   1.828308)
  23:      1070.34    0.263513  (  0.282491   0.390549  -0.176588)
  24:      1128.61    0.843684  (  0.386627  -0.055600   0.831332)
  25:      1178.91   94.594903  (  4.037715   8.547491   2.287390)
  26:      1226.55    4.036721  ( -1.809961  -0.848585   0.201660)
  27:      1276.35   23.607123  (  2.828374   3.370893   2.060220)
  28:      1309.59   54.136546  ( -3.185843  -5.845376  -3.133453)
  29:      1320.21    3.326931  (  1.463200  -0.000999   1.089025)
  30:      1346.10   53.997038  ( -2.995745  -6.690676  -0.507355)
  31:      1390.69    1.325582  (  0.367557   0.336460   1.037921)
  32:      1415.99    3.164308  (  1.301986   1.044507  -0.614934)
  33:      1422.82   34.240824  (  4.432531   3.582680   1.325856)
  34:      1435.84    4.349792  ( -1.405295  -1.462922   0.484560)
  35:      1446.28    8.683152  ( -0.142736   0.333984  -2.924249)
  36:      1482.24   10.043784  (  0.566269  -2.054181  -2.345946)
  37:      1489.59   11.836452  (  3.409596   0.221992  -0.402280)
  38:      1504.12   18.669257  (  1.006058  -3.168838   2.759632)
  39:      1635.76   83.451617  (  7.229015  -4.369748  -3.478257)
  40:      1719.13  106.583089  (  3.796457   4.966300   8.216196)
  41:      3070.31    4.767887  ( -1.228424   1.805187  -0.012677)
  42:      3083.76    7.476613  (  0.213167  -1.701909   2.129478)
  43:      3097.61    0.327278  (  0.370891   0.400960  -0.170142)
  44:      3135.28    0.617153  (  0.585879   0.411692  -0.323122)
  45:      3138.52    0.610596  ( -0.650901  -0.321056   0.289564)
  46:      3159.32    0.320377  ( -0.315949   0.280410   0.376728)
  47:      3216.29    5.683788  (  0.988758   1.179457   1.820722)
  48:      3233.75    2.767140  ( -0.939675  -1.294404  -0.456803)
  49:      3432.78   46.826848  ( -4.940276   4.547150   1.320588)
  50:      3494.03   78.599256  (  1.748890   4.127435  -7.648851)

--------------------------
THERMOCHEMISTRY AT 298.15K
--------------------------

Temperature         ... 298.15 K
Pressure            ... 1.00 atm
Total Mass          ... 100.14 AMU

Throughout the following assumptions are being made:
  (1) The electronic state is orbitally nondegenerate
  (2) There are no thermally accessible electronically excited states
  (3) Hindered rotations indicated by low frequency modes) are not
      treated as such but are treated as vibrations and this may
      case some error
  (4) All equations used are the standard statistical mechanics
      equations for an ideal gas
  (5) All vibrations are strinctly harmonic

------------
INNER ENERGY
------------

The inner energy is: U= E(el) + E(ZPE) + E(vib) + E(rot) + E(trans)
    E(el)   - is the total energy from the electronic structure calculation
              = E(kin-el) + E(nuc-el) + E(el-el) + E(nuc-nuc)
    E(ZPE)  - the the zero temperature vibrational energy from the frequency calculation
    E(vib)  - the the finite temperature correction to E(ZPE) due to population
              of excietd vibrational states
    E(rot)  - is the rotational thermal energy
    E(trans)- is the translational thermal energy

Summary of contributions to the inner energy U:
Electronic energy                ...   -325.99088348 Eh
Zero point energy                ...      0.15583061 Eh      97.78 kcal/mol
Thermal vibrational correction   ...      0.00343730 Eh       2.16 kcal/mol
Thermal rotational correction    ...      0.00141627 Eh       0.89 kcal/mol
Thermal translational correction ...      0.00141627 Eh       0.89 kcal/mol
-----------------------------------------------------------------------
Total thermal energy                   -325.82878303 Eh

Summary of corrections to the electronic energy:
(perhaps to be used in another calculation)
Total thermal correction                  0.00626984 Eh       3.93 kcal/mol
Non-thermal (ZPE) correction              0.15583061 Eh      97.78 kcal/mol
-----------------------------------------------------------------------
Total correction                          0.16210045 Eh     101.72 kcal/mol

--------
ENTHALPY
--------

The enthalpy is H = U + kB*T
                kB is Boltzmann's constant
Total free energy                 ...   -325.82878303 Eh
Thermal Enthalpy correction       ...      0.00094421 Eh       0.59 kcal/mol
-----------------------------------------------------------------------
Total Enthalpy                    ...   -325.82783882 Eh

-------
ENTROPY
-------

The entropy contributions are T*S = T*(S(el)+S(vib)+S(rot)+S(trans)
     S(el)   - electronic entropy
     S(vib)  - vibrational entropy
     S(rot)  - rotational entropy
     S(trans)- translational entropy
The entropies will be listed as mutliplied by the temperature to get
units of energy

Electronic entropy                ...      0.00000000 Eh      0.00 kcal/mol
Vibrational entropy               ...      0.00549111 Eh      3.45 kcal/mol
Rotational entropy                ...      0.01180241 Eh      7.41 kcal/mol
Translational entropy             ...      0.01887324 Eh     11.84 kcal/mol
-----------------------------------------------------------------------
Final entropy term                ...      0.03616676 Eh     22.69 kcal/mol

CAUTION: The rotational entropy is not quite correctly treated here
         because it includes a symmetry number that is not yet correctly
         implemented in ORCA!
For a nonlinear molecule the correct rotational entropy is:
    S(rot) = R*(ln(qrot/sn)+1.5)
    R    = 8.31441 J/mol/K = 1.987191683e-3 kcal/mol/K
    qrot = 179651.2347705
    sn is the rotational symmetry number. We have assumed 3 here
       if it is different for your molecule then you should correct
       the printed rotational entropy by manually evaluating the equation
       as given above

For convenience we print out the resulting values for sn=1 - 12:
 sn= 1  qrot/sn=  179651.2348 T*S(rot)=     8.06 kcal/mol T*S(tot)=    23.35 kcal/mol
 sn= 2  qrot/sn=   89825.6174 T*S(rot)=     7.65 kcal/mol T*S(tot)=    22.94 kcal/mol
 sn= 3  qrot/sn=   59883.7449 T*S(rot)=     7.41 kcal/mol T*S(tot)=    22.69 kcal/mol
 sn= 4  qrot/sn=   44912.8087 T*S(rot)=     7.24 kcal/mol T*S(tot)=    22.52 kcal/mol
 sn= 5  qrot/sn=   35930.2470 T*S(rot)=     7.10 kcal/mol T*S(tot)=    22.39 kcal/mol
 sn= 6  qrot/sn=   29941.8725 T*S(rot)=     7.00 kcal/mol T*S(tot)=    22.28 kcal/mol
 sn= 7  qrot/sn=   25664.4621 T*S(rot)=     6.90 kcal/mol T*S(tot)=    22.19 kcal/mol
 sn= 8  qrot/sn=   22456.4043 T*S(rot)=     6.82 kcal/mol T*S(tot)=    22.11 kcal/mol
 sn= 9  qrot/sn=   19961.2483 T*S(rot)=     6.76 kcal/mol T*S(tot)=    22.04 kcal/mol
 sn=10  qrot/sn=   17965.1235 T*S(rot)=     6.69 kcal/mol T*S(tot)=    21.98 kcal/mol
 sn=11  qrot/sn=   16331.9304 T*S(rot)=     6.64 kcal/mol T*S(tot)=    21.93 kcal/mol
 sn=12  qrot/sn=   14970.9362 T*S(rot)=     6.58 kcal/mol T*S(tot)=    21.87 kcal/mol

-------------------
GIBBS FREE ENTHALPY
-------------------

The Gibbs free enthalpy is G = H - T*S

Total enthalpy                    ...   -325.82783882 Eh
Total entropy correction          ...     -0.03616676 Eh    -22.69 kcal/mol
-----------------------------------------------------------------------
Final Gibbs free enthalpy         ...   -325.86400558 Eh

For completeness - the Gibbs free enthalpy minus the electronic energy
G-E(el)                           ...      0.12687790 Eh     79.62 kcal/mol

                             ****ORCA TERMINATED NORMALLY****
TOTAL RUN TIME: 0 days 0 hours 39 minutes 24 seconds 388 msec
