                         Program Version 3.0.3 - RELEASE   -
|  1> ! NORI PBE0 def2-TZVP UseSym TightOPT Freq TightSCF Grid3 FinalGrid5 XYZFile
|  2> % pal
|  3>     nprocs 8
|  4> end
|  5> %method
|  6>     SymThresh 5.0e-2
|  7> end
|  8> % geom
|  9>     MaxIter 10
| 10> end
| 11> % maxcore 2000
| 12> % output
| 13>     printlevel mini
| 14>     print[ P_Basis ] 0
| 15>     print[ P_SCFInfo ] 1
| 16>     print[ P_SCFIterInfo ] 1
| 17>     print[ P_OrbEn ] 0
| 18>     print[ P_Cartesian ] 0
| 19> end
| 20> % elprop
| 21>     Dipole false
| 22> end
| 23> *xyz 1 1
| 24>  C        1.7453528818    -0.1436920852     0.0301875367
| 25>  C        0.7194892866    -1.1702673164     0.4724064129
| 26>  O       -0.3353154614    -1.2428926788    -0.4717345200
| 27>  N       -1.4802924387    -0.5208789260    -0.1450202675
| 28>  C       -1.3350903891     0.6710257817     0.2599092692
| 29>  C       -0.1019699891     1.5217947880     0.3728853388
| 30>  N        1.0013646943     1.0365136470    -0.5136935472
| 31>  H        2.3795882573     0.1966934933     0.8501916390
| 32>  H        2.3749592374    -0.5172099012    -0.7781237048
| 33>  H        1.1817763142    -2.1579310677     0.5095724383
| 34>  H        0.3172390384    -0.9497886634     1.4647203690
| 35>  H       -2.2692625781     1.1673293535     0.5103366149
| 36>  H       -0.3527471528     2.5369084687     0.0594849823
| 37>  H        0.2821231130     1.5764824267     1.3946852919
| 38>  H        0.5911064630     0.7579406430    -1.4095308401
| 39>  H        1.6528587232     1.7989820369    -0.7064570135
| 40> *
| 41>
| 42>                          ****END OF INPUT****
 Total Charge           Charge          ....    1
 Multiplicity           Mult            ....    1
 Number of Electrons    NEL             ....   54
FINAL SINGLE POINT ENERGY      -341.969175904817

CARTESIAN COORDINATES (ANGSTROEM)
---------------------------------
  C     -1.646198   -0.173047   -0.341650
  C     -0.860268   -0.902817    0.731481
  O      0.000396    0.000246    1.404608
  N      1.324138   -0.001135    0.972199
  C      1.541117    0.035514   -0.275724
  C      0.589823    0.177346   -1.429794
  N     -0.713289    0.785047   -1.015524
  H     -2.052487   -0.847403   -1.096840
  H     -2.456616    0.422724    0.079593
  H     -1.546471   -1.305046    1.478487
  H     -0.281424   -1.735719    0.323811
  H      2.595689    0.017890   -0.539399
  H      1.041158    0.841109   -2.169714
  H      0.379521   -0.774347   -1.924353
  H     -0.516345    1.541757   -0.354357
  H     -1.172555    1.205985   -1.824702

FINAL SINGLE POINT ENERGY      -341.969176897112
                    ***********************HURRAY********************
 Multiplicity           Mult            ....    1
 Number of Electrons    NEL             ....   54
 Basis Dimension        Dim             ....  271
FINAL SINGLE POINT ENERGY      -341.969177606339

VIBRATIONAL FREQUENCIES
-----------------------

   0:         0.00 cm**-1
   1:         0.00 cm**-1
   2:         0.00 cm**-1
   3:         0.00 cm**-1
   4:         0.00 cm**-1
   5:         0.00 cm**-1
   6:       109.02 cm**-1
   7:       241.36 cm**-1
   8:       295.05 cm**-1
   9:       358.58 cm**-1
  10:       385.28 cm**-1
  11:       499.81 cm**-1
  12:       598.02 cm**-1
  13:       741.54 cm**-1
  14:       802.70 cm**-1
  15:       833.36 cm**-1
  16:       873.21 cm**-1
  17:       897.22 cm**-1
  18:       907.04 cm**-1
  19:       994.13 cm**-1
  20:      1005.95 cm**-1
  21:      1034.49 cm**-1
  22:      1068.69 cm**-1
  23:      1096.93 cm**-1
  24:      1140.13 cm**-1
  25:      1225.54 cm**-1
  26:      1272.15 cm**-1
  27:      1313.96 cm**-1
  28:      1333.24 cm**-1
  29:      1339.13 cm**-1
  30:      1395.72 cm**-1
  31:      1418.26 cm**-1
  32:      1430.05 cm**-1
  33:      1444.12 cm**-1
  34:      1472.70 cm**-1
  35:      1486.68 cm**-1
  36:      1501.09 cm**-1
  37:      1627.92 cm**-1
  38:      1722.17 cm**-1
  39:      3078.36 cm**-1
  40:      3085.98 cm**-1
  41:      3100.60 cm**-1
  42:      3135.17 cm**-1
  43:      3138.90 cm**-1
  44:      3163.98 cm**-1
  45:      3182.91 cm**-1
  46:      3430.81 cm**-1
  47:      3493.27 cm**-1

IR SPECTRUM
-----------

 Mode    freq (cm**-1)   T**2         TX         TY         TZ
-------------------------------------------------------------------
   6:       109.02    1.951930  ( -1.097122   0.127157  -0.855620)
   7:       241.36   18.162053  (  2.026173  -1.799915   3.288918)
   8:       295.05    2.737327  ( -1.211423   1.059745   0.383042)
   9:       358.58    0.816155  ( -0.412417  -0.002823  -0.803778)
  10:       385.28    6.294808  (  1.742919  -0.951880   1.533286)
  11:       499.81    2.450971  ( -1.549308  -0.139012  -0.176894)
  12:       598.02    1.629947  (  1.177525   0.118960  -0.478780)
  13:       741.54    2.619331  ( -0.183751  -0.241061  -1.589798)
  14:       802.70    7.335447  (  1.349326  -2.298439  -0.481607)
  15:       833.36   17.290776  ( -0.044565   1.688655   3.799636)
  16:       873.21   30.420108  ( -2.741784   0.269022   4.778112)
  17:       897.22   13.090237  (  2.095027   2.591317  -1.409317)
  18:       907.04    5.019333  (  0.679620  -1.848576  -1.067809)
  19:       994.13   33.599501  (  5.765052   0.597908   0.078598)
  20:      1005.95    8.124342  (  2.455879  -1.416448  -0.294403)
  21:      1034.49   16.448520  (  1.007875   1.090156   3.774158)
  22:      1068.69    7.382412  ( -2.322905  -1.380875   0.282327)
  23:      1096.93   66.332002  ( -7.122091  -3.179723   2.344608)
  24:      1140.13    2.462323  ( -1.320311  -0.715534   0.455096)
  25:      1225.54    2.593621  (  0.156980   1.579492   0.272365)
  26:      1272.15    2.820076  (  1.066016  -0.151402  -1.288706)
  27:      1313.96   10.296313  (  2.880996   0.262739  -1.388215)
  28:      1333.24    4.249973  (  1.276799   1.402745   0.807504)
  29:      1339.13    7.838842  (  2.629064   0.954798   0.123391)
  30:      1395.72    2.781785  ( -1.373987  -0.127403   0.936863)
  31:      1418.26    4.670785  (  2.096005   0.069966   0.522163)
  32:      1430.05    4.966428  (  1.987746   0.399934  -0.924850)
  33:      1444.12   24.446302  (  3.972136   1.331198  -2.626090)
  34:      1472.70   19.466210  (  0.724440   1.193166  -4.185421)
  35:      1486.68   14.155578  (  1.800321  -3.221807  -0.731013)
  36:      1501.09   17.371351  ( -2.805088  -1.423143  -2.734501)
  37:      1627.92   83.290535  ( -2.617374   8.682263  -1.028686)
  38:      1722.17    8.861258  (  2.949007   0.016852  -0.405376)
  39:      3078.36    4.222076  ( -0.456155  -1.863800  -0.735015)
  40:      3085.98    0.209367  (  0.164333   0.426464   0.022143)
  41:      3100.60    0.354954  (  0.438978   0.021999   0.402205)
  42:      3135.17    1.178772  ( -0.011174  -0.969454   0.488678)
  43:      3138.90    0.424312  (  0.493514   0.033775   0.423811)
  44:      3163.98    0.293680  ( -0.282280  -0.240410   0.395223)
  45:      3182.91    5.536502  (  2.284351   0.109320  -0.553435)
  46:      3430.81   62.093157  ( -0.867635   7.780858   0.893657)
  47:      3493.27   92.247944  (  4.132304  -0.306653   8.664755)

--------------------------
THERMOCHEMISTRY AT 298.15K
--------------------------

Temperature         ... 298.15 K
Pressure            ... 1.00 atm
Total Mass          ... 101.13 AMU

Throughout the following assumptions are being made:
  (1) The electronic state is orbitally nondegenerate
  (2) There are no thermally accessible electronically excited states
  (3) Hindered rotations indicated by low frequency modes) are not
      treated as such but are treated as vibrations and this may
      case some error
  (4) All equations used are the standard statistical mechanics
      equations for an ideal gas
  (5) All vibrations are strinctly harmonic

------------
INNER ENERGY
------------

The inner energy is: U= E(el) + E(ZPE) + E(vib) + E(rot) + E(trans)
    E(el)   - is the total energy from the electronic structure calculation
              = E(kin-el) + E(nuc-el) + E(el-el) + E(nuc-nuc)
    E(ZPE)  - the the zero temperature vibrational energy from the frequency calculation
    E(vib)  - the the finite temperature correction to E(ZPE) due to population
              of excietd vibrational states
    E(rot)  - is the rotational thermal energy
    E(trans)- is the translational thermal energy

Summary of contributions to the inner energy U:
Electronic energy                ...   -341.96917761 Eh
Zero point energy                ...      0.14278473 Eh      89.60 kcal/mol
Thermal vibrational correction   ...      0.00340061 Eh       2.13 kcal/mol
Thermal rotational correction    ...      0.00141627 Eh       0.89 kcal/mol
Thermal translational correction ...      0.00141627 Eh       0.89 kcal/mol
-----------------------------------------------------------------------
Total thermal energy                   -341.82015972 Eh

Summary of corrections to the electronic energy:
(perhaps to be used in another calculation)
Total thermal correction                  0.00623316 Eh       3.91 kcal/mol
Non-thermal (ZPE) correction              0.14278473 Eh      89.60 kcal/mol
-----------------------------------------------------------------------
Total correction                          0.14901788 Eh      93.51 kcal/mol

--------
ENTHALPY
--------

The enthalpy is H = U + kB*T
                kB is Boltzmann's constant
Total free energy                 ...   -341.82015972 Eh
Thermal Enthalpy correction       ...      0.00094421 Eh       0.59 kcal/mol
-----------------------------------------------------------------------
Total Enthalpy                    ...   -341.81921551 Eh

-------
ENTROPY
-------

The entropy contributions are T*S = T*(S(el)+S(vib)+S(rot)+S(trans)
     S(el)   - electronic entropy
     S(vib)  - vibrational entropy
     S(rot)  - rotational entropy
     S(trans)- translational entropy
The entropies will be listed as mutliplied by the temperature to get
units of energy

Electronic entropy                ...      0.00000000 Eh      0.00 kcal/mol
Vibrational entropy               ...      0.00549853 Eh      3.45 kcal/mol
Rotational entropy                ...      0.01176062 Eh      7.38 kcal/mol
Translational entropy             ...      0.01888714 Eh     11.85 kcal/mol
-----------------------------------------------------------------------
Final entropy term                ...      0.03614629 Eh     22.68 kcal/mol

CAUTION: The rotational entropy is not quite correctly treated here
         because it includes a symmetry number that is not yet correctly
         implemented in ORCA!
For a nonlinear molecule the correct rotational entropy is:
    S(rot) = R*(ln(qrot/sn)+1.5)
    R    = 8.31441 J/mol/K = 1.987191683e-3 kcal/mol/K
    qrot = 171872.1292668
    sn is the rotational symmetry number. We have assumed 3 here
       if it is different for your molecule then you should correct
       the printed rotational entropy by manually evaluating the equation
       as given above

For convenience we print out the resulting values for sn=1 - 12:
 sn= 1  qrot/sn=  171872.1293 T*S(rot)=     8.03 kcal/mol T*S(tot)=    23.33 kcal/mol
 sn= 2  qrot/sn=   85936.0646 T*S(rot)=     7.62 kcal/mol T*S(tot)=    22.92 kcal/mol
 sn= 3  qrot/sn=   57290.7098 T*S(rot)=     7.38 kcal/mol T*S(tot)=    22.68 kcal/mol
 sn= 4  qrot/sn=   42968.0323 T*S(rot)=     7.21 kcal/mol T*S(tot)=    22.51 kcal/mol
 sn= 5  qrot/sn=   34374.4259 T*S(rot)=     7.08 kcal/mol T*S(tot)=    22.38 kcal/mol
 sn= 6  qrot/sn=   28645.3549 T*S(rot)=     6.97 kcal/mol T*S(tot)=    22.27 kcal/mol
 sn= 7  qrot/sn=   24553.1613 T*S(rot)=     6.88 kcal/mol T*S(tot)=    22.18 kcal/mol
 sn= 8  qrot/sn=   21484.0162 T*S(rot)=     6.80 kcal/mol T*S(tot)=    22.10 kcal/mol
 sn= 9  qrot/sn=   19096.9033 T*S(rot)=     6.73 kcal/mol T*S(tot)=    22.03 kcal/mol
 sn=10  qrot/sn=   17187.2129 T*S(rot)=     6.67 kcal/mol T*S(tot)=    21.97 kcal/mol
 sn=11  qrot/sn=   15624.7390 T*S(rot)=     6.61 kcal/mol T*S(tot)=    21.91 kcal/mol
 sn=12  qrot/sn=   14322.6774 T*S(rot)=     6.56 kcal/mol T*S(tot)=    21.86 kcal/mol

-------------------
GIBBS FREE ENTHALPY
-------------------

The Gibbs free enthalpy is G = H - T*S

Total enthalpy                    ...   -341.81921551 Eh
Total entropy correction          ...     -0.03614629 Eh    -22.68 kcal/mol
-----------------------------------------------------------------------
Final Gibbs free enthalpy         ...   -341.85536181 Eh

For completeness - the Gibbs free enthalpy minus the electronic energy
G-E(el)                           ...      0.11381580 Eh     71.42 kcal/mol

                             ****ORCA TERMINATED NORMALLY****
TOTAL RUN TIME: 0 days 0 hours 36 minutes 13 seconds 223 msec
