                         Program Version 3.0.3 - RELEASE   -
|  1> ! NORI PBE0 def2-TZVP UseSym TightOPT Freq TightSCF Grid3 FinalGrid5 XYZFile
|  2> % pal
|  3>     nprocs 8
|  4> end
|  5> %method
|  6>     SymThresh 5.0e-2
|  7> end
|  8> % geom
|  9>     MaxIter 10
| 10> end
| 11> % maxcore 2000
| 12> % output
| 13>     printlevel mini
| 14>     print[ P_Basis ] 0
| 15>     print[ P_SCFInfo ] 1
| 16>     print[ P_SCFIterInfo ] 1
| 17>     print[ P_OrbEn ] 0
| 18>     print[ P_Cartesian ] 0
| 19> end
| 20> % elprop
| 21>     Dipole false
| 22> end
| 23> *xyz 1 1
| 24>  C       -0.3933250193    -1.0368886642    -0.4192979348
| 25>  N        0.8696852871    -1.1746414465    -1.1853797905
| 26>  C        0.7976823342    -0.3019609859     0.0313287161
| 27>  C        1.5898915282    -0.6983967443     1.2382994242
| 28>  C        0.7787022662    -0.4556881560     2.5288742760
| 29>  O        0.4374334381    -1.8461970718     2.5959727803
| 30>  C        1.4757075547    -2.1655390557     1.6739157019
| 31>  H       -0.6902073185    -1.9360109543     0.1063908516
| 32>  H       -1.1762398460    -0.5152446201    -0.9544083633
| 33>  H        0.9360510685    -0.7434954301    -2.1006877378
| 34>  H        1.3733553446    -2.0520260382    -1.1007668315
| 35>  H        0.8447726843     0.7473810171    -0.2421176765
| 36>  H        2.5907781662    -0.2700006286     1.1937110933
| 37>  H       -0.1010159021     0.1887848476     2.4653628689
| 38>  H        1.4034313205    -0.1459584792     3.3714907972
| 39>  H        2.3817944305    -2.5223779222     2.1737384264
| 40>  H        1.1659026627    -2.9296896676     0.9484933984
| 41> *
| 42>
| 43>                          ****END OF INPUT****
 Total Charge           Charge          ....    1
 Multiplicity           Mult            ....    1
 Number of Electrons    NEL             ....   54
FINAL SINGLE POINT ENERGY      -325.945160442063

CARTESIAN COORDINATES (ANGSTROEM)
---------------------------------
  C      0.853164   -1.195971   -1.011813
  N      0.925032    0.000283   -1.886832
  C     -0.320952   -0.317470   -1.116264
  C     -0.737477    0.616798   -0.022889
  C     -1.257745   -0.169219    1.199448
  O      0.000505    0.000053    1.865170
  C      0.360198    1.041894    0.962079
  H      1.480919   -1.136295   -0.131223
  H      0.871639   -2.134724   -1.549803
  H      0.931744   -0.129148   -2.892532
  H      1.486546    0.781638   -1.563657
  H     -1.111841   -0.651736   -1.780321
  H     -1.381337    1.402096   -0.418491
  H     -1.518265   -1.220573    1.057309
  H     -2.069630    0.345187    1.721127
  H      0.180117    2.037068    1.381034
  H      1.415599    0.986106    0.662901

FINAL SINGLE POINT ENERGY      -325.945161225863
                    ***********************HURRAY********************
 Multiplicity           Mult            ....    1
 Number of Electrons    NEL             ....   54
 Basis Dimension        Dim             ....  277
FINAL SINGLE POINT ENERGY      -325.945161605231

VIBRATIONAL FREQUENCIES
-----------------------

   0:         0.00 cm**-1
   1:         0.00 cm**-1
   2:         0.00 cm**-1
   3:         0.00 cm**-1
   4:         0.00 cm**-1
   5:         0.00 cm**-1
   6:       103.93 cm**-1
   7:       135.96 cm**-1
   8:       220.38 cm**-1
   9:       286.28 cm**-1
  10:       425.49 cm**-1
  11:       488.95 cm**-1
  12:       747.55 cm**-1
  13:       821.71 cm**-1
  14:       825.69 cm**-1
  15:       866.69 cm**-1
  16:       880.73 cm**-1
  17:       886.71 cm**-1
  18:       930.46 cm**-1
  19:       968.92 cm**-1
  20:      1008.60 cm**-1
  21:      1025.66 cm**-1
  22:      1066.88 cm**-1
  23:      1082.05 cm**-1
  24:      1109.70 cm**-1
  25:      1147.89 cm**-1
  26:      1159.80 cm**-1
  27:      1162.45 cm**-1
  28:      1189.72 cm**-1
  29:      1201.40 cm**-1
  30:      1234.24 cm**-1
  31:      1252.46 cm**-1
  32:      1290.84 cm**-1
  33:      1312.13 cm**-1
  34:      1369.14 cm**-1
  35:      1391.65 cm**-1
  36:      1428.01 cm**-1
  37:      1494.27 cm**-1
  38:      1507.97 cm**-1
  39:      1532.75 cm**-1
  40:      1624.55 cm**-1
  41:      3015.57 cm**-1
  42:      3064.44 cm**-1
  43:      3080.36 cm**-1
  44:      3120.44 cm**-1
  45:      3129.95 cm**-1
  46:      3173.34 cm**-1
  47:      3188.51 cm**-1
  48:      3275.42 cm**-1
  49:      3508.07 cm**-1
  50:      3613.69 cm**-1

IR SPECTRUM
-----------

 Mode    freq (cm**-1)   T**2         TX         TY         TZ
-------------------------------------------------------------------
   6:       103.93    8.574975  (  0.652507  -0.275427  -2.841364)
   7:       135.96    6.964536  (  1.045160  -1.448682  -1.942550)
   8:       220.38    3.857385  (  0.371074  -1.222372  -1.491810)
   9:       286.28    0.137252  (  0.061896   0.357455  -0.075146)
  10:       425.49    0.847429  ( -0.474432   0.445355   0.651155)
  11:       488.95    0.673295  (  0.206121  -0.794072   0.016127)
  12:       747.55    2.756897  ( -0.522062  -0.439824  -1.513573)
  13:       821.71    1.764882  ( -0.503244  -0.024066  -1.229247)
  14:       825.69   21.257644  ( -1.921040  -1.787012   3.791285)
  15:       866.69    2.751159  (  1.066986  -0.829395   0.961667)
  16:       880.73   15.688188  (  0.084337  -0.069834   3.959318)
  17:       886.71    7.153622  ( -0.688145   2.115974  -1.484161)
  18:       930.46   14.130526  (  3.063221   1.016610  -1.927097)
  19:       968.92   11.457063  (  2.449694  -0.938466   2.139005)
  20:      1008.60    8.065623  ( -0.764724   0.510120  -2.687117)
  21:      1025.66   89.601486  ( -7.867454   5.262456   0.105892)
  22:      1066.88   61.161915  ( -6.773206  -3.907167   0.140167)
  23:      1082.05   25.385681  ( -1.475038  -3.999852   2.685355)
  24:      1109.70    3.081752  ( -0.585342  -1.431072   0.831360)
  25:      1147.89    5.148331  ( -1.790927   0.973540   0.996559)
  26:      1159.80    3.258858  (  1.551227   0.222835  -0.896046)
  27:      1162.45    0.665835  (  0.672613   0.461902   0.008544)
  28:      1189.72    0.048088  ( -0.136762   0.164263  -0.049008)
  29:      1201.40    5.504066  ( -2.081754   1.029869   0.331262)
  30:      1234.24   13.223869  ( -2.900679  -1.970241   0.963368)
  31:      1252.46    8.388062  (  1.030494   2.526670   0.970609)
  32:      1290.84    0.706632  ( -0.164626   0.473184   0.675002)
  33:      1312.13    0.034279  ( -0.100427  -0.135029  -0.077202)
  34:      1369.14    2.827322  (  0.751393   0.089103  -1.501596)
  35:      1391.65    5.374141  ( -0.040705   0.610595   2.235991)
  36:      1428.01    5.116080  ( -0.911935   0.281531  -2.050657)
  37:      1494.27   12.821098  (  1.719025  -3.134000  -0.209995)
  38:      1507.97    4.145923  (  1.783702  -0.693218   0.695541)
  39:      1532.75    3.017193  (  0.046754  -0.100501   1.733467)
  40:      1624.55   86.473668  (  5.694312   4.015178  -6.158476)
  41:      3015.57   56.789731  (  6.519941   2.199163  -3.073073)
  42:      3064.44   19.572908  ( -3.974711  -1.917277   0.314054)
  43:      3080.36   15.260819  ( -1.675401   3.169946   1.550901)
  44:      3120.44    7.390640  (  0.007234  -2.323305  -1.411681)
  45:      3129.95    6.163440  (  1.268573  -2.077705   0.487137)
  46:      3173.34    3.822185  (  0.873631  -1.515073   0.873789)
  47:      3188.51    0.919511  ( -0.942250  -0.143535   0.105232)
  48:      3275.42    8.058612  ( -0.918311  -1.421210  -2.279360)
  49:      3508.07   95.957648  (  5.004701   5.307522  -6.537647)
  50:      3613.69  135.379959  (  2.279842   5.320295  10.093401)

--------------------------
THERMOCHEMISTRY AT 298.15K
--------------------------

Temperature         ... 298.15 K
Pressure            ... 1.00 atm
Total Mass          ... 100.14 AMU

Throughout the following assumptions are being made:
  (1) The electronic state is orbitally nondegenerate
  (2) There are no thermally accessible electronically excited states
  (3) Hindered rotations indicated by low frequency modes) are not
      treated as such but are treated as vibrations and this may
      case some error
  (4) All equations used are the standard statistical mechanics
      equations for an ideal gas
  (5) All vibrations are strinctly harmonic

------------
INNER ENERGY
------------

The inner energy is: U= E(el) + E(ZPE) + E(vib) + E(rot) + E(trans)
    E(el)   - is the total energy from the electronic structure calculation
              = E(kin-el) + E(nuc-el) + E(el-el) + E(nuc-nuc)
    E(ZPE)  - the the zero temperature vibrational energy from the frequency calculation
    E(vib)  - the the finite temperature correction to E(ZPE) due to population
              of excietd vibrational states
    E(rot)  - is the rotational thermal energy
    E(trans)- is the translational thermal energy

Summary of contributions to the inner energy U:
Electronic energy                ...   -325.94516161 Eh
Zero point energy                ...      0.15343772 Eh      96.28 kcal/mol
Thermal vibrational correction   ...      0.00371684 Eh       2.33 kcal/mol
Thermal rotational correction    ...      0.00141627 Eh       0.89 kcal/mol
Thermal translational correction ...      0.00141627 Eh       0.89 kcal/mol
-----------------------------------------------------------------------
Total thermal energy                   -325.78517450 Eh

Summary of corrections to the electronic energy:
(perhaps to be used in another calculation)
Total thermal correction                  0.00654938 Eh       4.11 kcal/mol
Non-thermal (ZPE) correction              0.15343772 Eh      96.28 kcal/mol
-----------------------------------------------------------------------
Total correction                          0.15998711 Eh     100.39 kcal/mol

--------
ENTHALPY
--------

The enthalpy is H = U + kB*T
                kB is Boltzmann's constant
Total free energy                 ...   -325.78517450 Eh
Thermal Enthalpy correction       ...      0.00094421 Eh       0.59 kcal/mol
-----------------------------------------------------------------------
Total Enthalpy                    ...   -325.78423029 Eh

-------
ENTROPY
-------

The entropy contributions are T*S = T*(S(el)+S(vib)+S(rot)+S(trans)
     S(el)   - electronic entropy
     S(vib)  - vibrational entropy
     S(rot)  - rotational entropy
     S(trans)- translational entropy
The entropies will be listed as mutliplied by the temperature to get
units of energy

Electronic entropy                ...      0.00000000 Eh      0.00 kcal/mol
Vibrational entropy               ...      0.00636457 Eh      3.99 kcal/mol
Rotational entropy                ...      0.01184564 Eh      7.43 kcal/mol
Translational entropy             ...      0.01887324 Eh     11.84 kcal/mol
-----------------------------------------------------------------------
Final entropy term                ...      0.03708345 Eh     23.27 kcal/mol

CAUTION: The rotational entropy is not quite correctly treated here
         because it includes a symmetry number that is not yet correctly
         implemented in ORCA!
For a nonlinear molecule the correct rotational entropy is:
    S(rot) = R*(ln(qrot/sn)+1.5)
    R    = 8.31441 J/mol/K = 1.987191683e-3 kcal/mol/K
    qrot = 188068.1909618
    sn is the rotational symmetry number. We have assumed 3 here
       if it is different for your molecule then you should correct
       the printed rotational entropy by manually evaluating the equation
       as given above

For convenience we print out the resulting values for sn=1 - 12:
 sn= 1  qrot/sn=  188068.1910 T*S(rot)=     8.08 kcal/mol T*S(tot)=    23.92 kcal/mol
 sn= 2  qrot/sn=   94034.0955 T*S(rot)=     7.67 kcal/mol T*S(tot)=    23.51 kcal/mol
 sn= 3  qrot/sn=   62689.3970 T*S(rot)=     7.43 kcal/mol T*S(tot)=    23.27 kcal/mol
 sn= 4  qrot/sn=   47017.0477 T*S(rot)=     7.26 kcal/mol T*S(tot)=    23.10 kcal/mol
 sn= 5  qrot/sn=   37613.6382 T*S(rot)=     7.13 kcal/mol T*S(tot)=    22.97 kcal/mol
 sn= 6  qrot/sn=   31344.6985 T*S(rot)=     7.02 kcal/mol T*S(tot)=    22.86 kcal/mol
 sn= 7  qrot/sn=   26866.8844 T*S(rot)=     6.93 kcal/mol T*S(tot)=    22.77 kcal/mol
 sn= 8  qrot/sn=   23508.5239 T*S(rot)=     6.85 kcal/mol T*S(tot)=    22.69 kcal/mol
 sn= 9  qrot/sn=   20896.4657 T*S(rot)=     6.78 kcal/mol T*S(tot)=    22.62 kcal/mol
 sn=10  qrot/sn=   18806.8191 T*S(rot)=     6.72 kcal/mol T*S(tot)=    22.56 kcal/mol
 sn=11  qrot/sn=   17097.1083 T*S(rot)=     6.66 kcal/mol T*S(tot)=    22.50 kcal/mol
 sn=12  qrot/sn=   15672.3492 T*S(rot)=     6.61 kcal/mol T*S(tot)=    22.45 kcal/mol

-------------------
GIBBS FREE ENTHALPY
-------------------

The Gibbs free enthalpy is G = H - T*S

Total enthalpy                    ...   -325.78423029 Eh
Total entropy correction          ...     -0.03708345 Eh    -23.27 kcal/mol
-----------------------------------------------------------------------
Final Gibbs free enthalpy         ...   -325.82131374 Eh

For completeness - the Gibbs free enthalpy minus the electronic energy
G-E(el)                           ...      0.12384787 Eh     77.72 kcal/mol

                             ****ORCA TERMINATED NORMALLY****
TOTAL RUN TIME: 0 days 0 hours 37 minutes 28 seconds 345 msec
