                         Program Version 3.0.3 - RELEASE   -
|  1> ! NORI PBE0 def2-TZVP UseSym TightOPT Freq TightSCF Grid3 FinalGrid5 XYZFile
|  2> % pal
|  3>     nprocs 8
|  4> end
|  5> %method
|  6>     SymThresh 5.0e-2
|  7> end
|  8> % geom
|  9>     MaxIter 10
| 10> end
| 11> % maxcore 2000
| 12> % output
| 13>     printlevel mini
| 14>     print[ P_Basis ] 0
| 15>     print[ P_SCFInfo ] 1
| 16>     print[ P_SCFIterInfo ] 1
| 17>     print[ P_OrbEn ] 0
| 18>     print[ P_Cartesian ] 0
| 19> end
| 20> % elprop
| 21>     Dipole false
| 22> end
| 23> *xyz 1 1
| 24>  C        1.1564921759     0.2116919415     0.2509513184
| 25>  C        0.5534170252     1.5399461734     0.5838737522
| 26>  C       -0.8965229071     1.7325108789     0.7296703148
| 27>  N       -0.0503614215     1.6897228212     1.9478104159
| 28>  C        2.5473859239     0.0314920916     0.8036377230
| 29>  C        2.8072516190    -0.7420049287     2.0204848042
| 30>  O        3.0387610708    -1.2816796720     0.7336282497
| 31>  H        1.1918738557     0.1456964439    -0.8424599903
| 32>  H        0.5116011087    -0.6073859117     0.5877677777
| 33>  H        1.1318432501     2.4197019012     0.3195764618
| 34>  H       -1.5547978894     0.8785452145     0.6262023825
| 35>  H       -1.3382545415     2.7012215229     0.5350117001
| 36>  H        0.0978543147     2.5499513660     2.4641772397
| 37>  H       -0.0978219267     0.8606636914     2.5306829532
| 38>  H        3.2661565148     0.8006421843     0.5192029395
| 39>  H        3.6972655801    -0.5366164326     2.6086569897
| 40>  H        1.9797962473    -1.1958792859     2.5643249679
| 41> *
| 42>
| 43>                          ****END OF INPUT****
 Total Charge           Charge          ....    1
 Multiplicity           Mult            ....    1
 Number of Electrons    NEL             ....   54
FINAL SINGLE POINT ENERGY      -325.946324405225

CARTESIAN COORDINATES (ANGSTROEM)
---------------------------------
  C     -0.737099    0.357911    0.153792
  C     -0.632984   -0.171915   -1.241623
  C     -0.529213    0.709772   -2.413300
  N      0.683837    0.000255   -1.937319
  C     -0.153338   -0.568864    1.189583
  C      1.177811   -0.354901    1.762924
  O      0.001343    0.000738    2.463238
  H     -1.804085    0.501594    0.358703
  H     -0.272801    1.346665    0.233303
  H     -1.036180   -1.164063   -1.419445
  H     -0.493033    1.781931   -2.264719
  H     -0.884324    0.374236   -3.379145
  H      1.050944   -0.760044   -2.499042
  H      1.395992    0.543105   -1.460302
  H     -0.558256   -1.581461    1.191479
  H      1.728955   -1.197046    2.171436
  H      1.784700    0.486882    1.431811

FINAL SINGLE POINT ENERGY      -325.946325368751
                    ***********************HURRAY********************
 Multiplicity           Mult            ....    1
 Number of Electrons    NEL             ....   54
 Basis Dimension        Dim             ....  277
FINAL SINGLE POINT ENERGY      -325.946326444923

VIBRATIONAL FREQUENCIES
-----------------------

   0:         0.00 cm**-1
   1:         0.00 cm**-1
   2:         0.00 cm**-1
   3:         0.00 cm**-1
   4:         0.00 cm**-1
   5:         0.00 cm**-1
   6:        71.63 cm**-1
   7:        74.67 cm**-1
   8:       164.93 cm**-1
   9:       319.89 cm**-1
  10:       356.08 cm**-1
  11:       414.03 cm**-1
  12:       465.08 cm**-1
  13:       764.23 cm**-1
  14:       820.76 cm**-1
  15:       855.51 cm**-1
  16:       862.82 cm**-1
  17:       890.39 cm**-1
  18:       920.62 cm**-1
  19:       943.84 cm**-1
  20:       961.99 cm**-1
  21:      1013.97 cm**-1
  22:      1026.74 cm**-1
  23:      1058.90 cm**-1
  24:      1123.82 cm**-1
  25:      1159.41 cm**-1
  26:      1176.36 cm**-1
  27:      1176.70 cm**-1
  28:      1187.87 cm**-1
  29:      1192.18 cm**-1
  30:      1248.88 cm**-1
  31:      1262.20 cm**-1
  32:      1286.04 cm**-1
  33:      1299.30 cm**-1
  34:      1328.34 cm**-1
  35:      1435.94 cm**-1
  36:      1460.39 cm**-1
  37:      1462.30 cm**-1
  38:      1497.70 cm**-1
  39:      1532.95 cm**-1
  40:      1633.34 cm**-1
  41:      3054.01 cm**-1
  42:      3096.52 cm**-1
  43:      3097.86 cm**-1
  44:      3118.35 cm**-1
  45:      3171.65 cm**-1
  46:      3188.14 cm**-1
  47:      3198.88 cm**-1
  48:      3273.48 cm**-1
  49:      3513.10 cm**-1
  50:      3617.20 cm**-1

IR SPECTRUM
-----------

 Mode    freq (cm**-1)   T**2         TX         TY         TZ
-------------------------------------------------------------------
   6:        71.63    5.078563  (  0.665009   0.737962  -2.022805)
   7:        74.67    0.505728  ( -0.168486   0.234373  -0.649930)
   8:       164.93    2.351150  ( -0.320913  -1.474234  -0.273494)
   9:       319.89   12.373646  ( -0.182433   0.447456  -3.484271)
  10:       356.08    0.932790  ( -0.073406  -0.130973  -0.954069)
  11:       414.03    4.514632  ( -0.487586   0.969999  -1.826470)
  12:       465.08    1.902987  ( -0.134515   0.436720  -1.301602)
  13:       764.23    4.472711  ( -0.549275   0.843534   1.859962)
  14:       820.76    5.910242  ( -1.200384  -0.393004  -2.077226)
  15:       855.51   19.223016  (  3.212567  -0.059907  -2.983092)
  16:       862.82   22.584360  (  4.056600  -2.087200  -1.331147)
  17:       890.39    2.809422  ( -1.363438   0.386243   0.895140)
  18:       920.62   26.131684  ( -2.737399  -1.768137  -3.938531)
  19:       943.84    1.767378  (  1.007751   0.692986  -0.521138)
  20:       961.99    6.327563  (  1.601370   0.013084  -1.939847)
  21:      1013.97   96.451918  ( -3.258639  -3.164418   8.707448)
  22:      1026.74   31.298027  ( -0.543003   4.790118  -2.838652)
  23:      1058.90    7.401822  (  1.325952  -2.101105   1.108617)
  24:      1123.82    6.353986  ( -1.721531   1.841009   0.031639)
  25:      1159.41    2.185578  (  0.973645   0.636287   0.912541)
  26:      1176.36    1.062102  (  0.403522   0.946940   0.050759)
  27:      1176.70    0.311911  (  0.074529  -0.149972   0.532790)
  28:      1187.87    2.106750  (  1.062184  -0.166321  -0.975116)
  29:      1192.18    4.680608  ( -1.247228  -1.482079   0.963573)
  30:      1248.88    3.373135  ( -0.278604  -1.116009  -1.431796)
  31:      1262.20    5.161160  (  1.306917  -0.200645  -1.847395)
  32:      1286.04    6.013556  ( -1.349190  -0.570673  -1.966615)
  33:      1299.30    2.289130  ( -1.314854   0.503006   0.554323)
  34:      1328.34    3.975938  (  1.176590  -1.021190  -1.244486)
  35:      1435.94    1.420159  (  0.381142  -0.592511   0.961156)
  36:      1460.39   12.582880  ( -0.696731   2.461944  -2.456884)
  37:      1462.30   15.207746  ( -0.973136   3.288179   1.857049)
  38:      1497.70   10.656462  ( -0.599795   1.822465  -2.641085)
  39:      1532.95    7.031836  ( -0.375537  -1.330147  -2.263077)
  40:      1633.34   58.079318  ( -7.464272   0.286773   1.510536)
  41:      3054.01    4.345091  ( -0.401645  -1.059939   1.749371)
  42:      3096.52    2.717819  (  1.364215   0.690938  -0.615908)
  43:      3097.86   14.719012  (  3.080263   1.320628  -1.867333)
  44:      3118.35   11.145809  (  1.032063   3.004450   1.026614)
  45:      3171.65    3.234034  (  0.678759  -0.994524   1.335755)
  46:      3188.14    1.126353  (  0.597199   0.740578  -0.470372)
  47:      3198.88    8.152303  (  0.033904  -2.555526   1.272964)
  48:      3273.48    6.287814  (  0.572174   1.996407   1.405273)
  49:      3513.10   93.885693  (  9.240892  -2.382466  -1.677935)
  50:      3617.20  125.706213  ( -1.240353  -8.226254  -7.516414)

--------------------------
THERMOCHEMISTRY AT 298.15K
--------------------------

Temperature         ... 298.15 K
Pressure            ... 1.00 atm
Total Mass          ... 100.14 AMU

Throughout the following assumptions are being made:
  (1) The electronic state is orbitally nondegenerate
  (2) There are no thermally accessible electronically excited states
  (3) Hindered rotations indicated by low frequency modes) are not
      treated as such but are treated as vibrations and this may
      case some error
  (4) All equations used are the standard statistical mechanics
      equations for an ideal gas
  (5) All vibrations are strinctly harmonic

------------
INNER ENERGY
------------

The inner energy is: U= E(el) + E(ZPE) + E(vib) + E(rot) + E(trans)
    E(el)   - is the total energy from the electronic structure calculation
              = E(kin-el) + E(nuc-el) + E(el-el) + E(nuc-nuc)
    E(ZPE)  - the the zero temperature vibrational energy from the frequency calculation
    E(vib)  - the the finite temperature correction to E(ZPE) due to population
              of excietd vibrational states
    E(rot)  - is the rotational thermal energy
    E(trans)- is the translational thermal energy

Summary of contributions to the inner energy U:
Electronic energy                ...   -325.94632644 Eh
Zero point energy                ...      0.15213365 Eh      95.47 kcal/mol
Thermal vibrational correction   ...      0.00427395 Eh       2.68 kcal/mol
Thermal rotational correction    ...      0.00141627 Eh       0.89 kcal/mol
Thermal translational correction ...      0.00141627 Eh       0.89 kcal/mol
-----------------------------------------------------------------------
Total thermal energy                   -325.78708630 Eh

Summary of corrections to the electronic energy:
(perhaps to be used in another calculation)
Total thermal correction                  0.00710649 Eh       4.46 kcal/mol
Non-thermal (ZPE) correction              0.15213365 Eh      95.47 kcal/mol
-----------------------------------------------------------------------
Total correction                          0.15924015 Eh      99.92 kcal/mol

--------
ENTHALPY
--------

The enthalpy is H = U + kB*T
                kB is Boltzmann's constant
Total free energy                 ...   -325.78708630 Eh
Thermal Enthalpy correction       ...      0.00094421 Eh       0.59 kcal/mol
-----------------------------------------------------------------------
Total Enthalpy                    ...   -325.78614209 Eh

-------
ENTROPY
-------

The entropy contributions are T*S = T*(S(el)+S(vib)+S(rot)+S(trans)
     S(el)   - electronic entropy
     S(vib)  - vibrational entropy
     S(rot)  - rotational entropy
     S(trans)- translational entropy
The entropies will be listed as mutliplied by the temperature to get
units of energy

Electronic entropy                ...      0.00000000 Eh      0.00 kcal/mol
Vibrational entropy               ...      0.00795661 Eh      4.99 kcal/mol
Rotational entropy                ...      0.01206136 Eh      7.57 kcal/mol
Translational entropy             ...      0.01887324 Eh     11.84 kcal/mol
-----------------------------------------------------------------------
Final entropy term                ...      0.03889121 Eh     24.40 kcal/mol

CAUTION: The rotational entropy is not quite correctly treated here
         because it includes a symmetry number that is not yet correctly
         implemented in ORCA!
For a nonlinear molecule the correct rotational entropy is:
    S(rot) = R*(ln(qrot/sn)+1.5)
    R    = 8.31441 J/mol/K = 1.987191683e-3 kcal/mol/K
    qrot = 236339.9403161
    sn is the rotational symmetry number. We have assumed 3 here
       if it is different for your molecule then you should correct
       the printed rotational entropy by manually evaluating the equation
       as given above

For convenience we print out the resulting values for sn=1 - 12:
 sn= 1  qrot/sn=  236339.9403 T*S(rot)=     8.22 kcal/mol T*S(tot)=    25.06 kcal/mol
 sn= 2  qrot/sn=  118169.9702 T*S(rot)=     7.81 kcal/mol T*S(tot)=    24.64 kcal/mol
 sn= 3  qrot/sn=   78779.9801 T*S(rot)=     7.57 kcal/mol T*S(tot)=    24.40 kcal/mol
 sn= 4  qrot/sn=   59084.9851 T*S(rot)=     7.40 kcal/mol T*S(tot)=    24.23 kcal/mol
 sn= 5  qrot/sn=   47267.9881 T*S(rot)=     7.27 kcal/mol T*S(tot)=    24.10 kcal/mol
 sn= 6  qrot/sn=   39389.9901 T*S(rot)=     7.16 kcal/mol T*S(tot)=    23.99 kcal/mol
 sn= 7  qrot/sn=   33762.8486 T*S(rot)=     7.07 kcal/mol T*S(tot)=    23.90 kcal/mol
 sn= 8  qrot/sn=   29542.4925 T*S(rot)=     6.99 kcal/mol T*S(tot)=    23.82 kcal/mol
 sn= 9  qrot/sn=   26259.9934 T*S(rot)=     6.92 kcal/mol T*S(tot)=    23.75 kcal/mol
 sn=10  qrot/sn=   23633.9940 T*S(rot)=     6.86 kcal/mol T*S(tot)=    23.69 kcal/mol
 sn=11  qrot/sn=   21485.4491 T*S(rot)=     6.80 kcal/mol T*S(tot)=    23.63 kcal/mol
 sn=12  qrot/sn=   19694.9950 T*S(rot)=     6.75 kcal/mol T*S(tot)=    23.58 kcal/mol

-------------------
GIBBS FREE ENTHALPY
-------------------

The Gibbs free enthalpy is G = H - T*S

Total enthalpy                    ...   -325.78614209 Eh
Total entropy correction          ...     -0.03889121 Eh    -24.40 kcal/mol
-----------------------------------------------------------------------
Final Gibbs free enthalpy         ...   -325.82503330 Eh

For completeness - the Gibbs free enthalpy minus the electronic energy
G-E(el)                           ...      0.12129314 Eh     76.11 kcal/mol

                             ****ORCA TERMINATED NORMALLY****
TOTAL RUN TIME: 0 days 0 hours 33 minutes 40 seconds 471 msec
