                         Program Version 3.0.3 - RELEASE   -
|  1> ! NORI PBE0 def2-TZVP UseSym TightOPT Freq TightSCF Grid3 FinalGrid5 XYZFile
|  2> % pal
|  3>     nprocs 8
|  4> end
|  5> %method
|  6>     SymThresh 5.0e-2
|  7> end
|  8> % geom
|  9>     MaxIter 10
| 10> end
| 11> % maxcore 2000
| 12> % output
| 13>     printlevel mini
| 14>     print[ P_Basis ] 0
| 15>     print[ P_SCFInfo ] 1
| 16>     print[ P_SCFIterInfo ] 1
| 17>     print[ P_OrbEn ] 0
| 18>     print[ P_Cartesian ] 0
| 19> end
| 20> % elprop
| 21>     Dipole false
| 22> end
| 23> *xyz 1 1
| 24>  C        1.6410027647    -0.0863804772     0.1552468047
| 25>  N        0.8825383182    -1.3932943859     0.3079109056
| 26>  C       -0.2306403809    -0.8430205754    -0.6319704136
| 27>  C       -1.4343105903    -0.3767697099     0.0851634274
| 28>  C       -1.3225659437     0.9473477251     0.2383734885
| 29>  O       -0.2022553640     1.5064031867    -0.2589256890
| 30>  C        0.5831012883     0.4584614205    -0.8040097696
| 31>  H        1.7147414491     0.4444638585     1.1018666845
| 32>  H        2.6301040858    -0.2573139770    -0.2634966443
| 33>  H        1.3793175719    -2.2125242573    -0.0410885852
| 34>  H        0.5480108202    -1.5887017951     1.2511301538
| 35>  H       -0.3702023212    -1.5297736070    -1.4657351500
| 36>  H       -2.2877966992    -0.9807641625     0.3505084523
| 37>  H       -2.0190008940     1.6452328166     0.6838150083
| 38>  H        0.9268258949     0.7493939399    -1.7934886733
| 39> *
| 40>
| 41>                          ****END OF INPUT****
 Total Charge           Charge          ....    1
 Multiplicity           Mult            ....    1
 Number of Electrons    NEL             ....   52
FINAL SINGLE POINT ENERGY      -324.770348120101

CARTESIAN COORDINATES (ANGSTROEM)
---------------------------------
  C      1.542054    0.421348   -0.374561
  N      0.692260   -0.000017   -1.560836
  C     -0.589360    0.383255   -0.763075
  C     -1.299960   -0.777375   -0.189751
  C     -0.904502   -0.902141    1.082134
  O     -0.000060   -0.000029    1.509870
  C      0.301318    0.845051    0.411245
  H      2.083159   -0.422748    0.047960
  H      2.231817    1.215102   -0.652466
  H      0.853690    0.542216   -2.409249
  H      0.737382   -0.992550   -1.791081
  H     -1.171338    1.100976   -1.339809
  H     -2.066340   -1.356869   -0.680224
  H     -1.227529   -1.611812    1.832103
  H      0.262709    1.881192    0.738777

FINAL SINGLE POINT ENERGY      -324.770348423591
                    ***********************HURRAY********************
 Multiplicity           Mult            ....    1
 Number of Electrons    NEL             ....   52
 Basis Dimension        Dim             ....  265
FINAL SINGLE POINT ENERGY      -324.770348461928

VIBRATIONAL FREQUENCIES
-----------------------

   0:         0.00 cm**-1
   1:         0.00 cm**-1
   2:         0.00 cm**-1
   3:         0.00 cm**-1
   4:         0.00 cm**-1
   5:         0.00 cm**-1
   6:        80.12 cm**-1
   7:       296.28 cm**-1
   8:       392.14 cm**-1
   9:       555.01 cm**-1
  10:       637.08 cm**-1
  11:       755.58 cm**-1
  12:       761.96 cm**-1
  13:       770.38 cm**-1
  14:       835.65 cm**-1
  15:       853.71 cm**-1
  16:       872.61 cm**-1
  17:       940.40 cm**-1
  18:       949.52 cm**-1
  19:       984.44 cm**-1
  20:      1012.73 cm**-1
  21:      1059.38 cm**-1
  22:      1068.95 cm**-1
  23:      1126.92 cm**-1
  24:      1154.63 cm**-1
  25:      1194.15 cm**-1
  26:      1242.85 cm**-1
  27:      1259.27 cm**-1
  28:      1287.60 cm**-1
  29:      1301.21 cm**-1
  30:      1316.50 cm**-1
  31:      1333.64 cm**-1
  32:      1350.16 cm**-1
  33:      1409.74 cm**-1
  34:      1473.17 cm**-1
  35:      1625.19 cm**-1
  36:      1655.46 cm**-1
  37:      3128.51 cm**-1
  38:      3141.60 cm**-1
  39:      3165.46 cm**-1
  40:      3201.03 cm**-1
  41:      3253.80 cm**-1
  42:      3277.73 cm**-1
  43:      3452.79 cm**-1
  44:      3531.08 cm**-1

IR SPECTRUM
-----------

 Mode    freq (cm**-1)   T**2         TX         TY         TZ
-------------------------------------------------------------------
   6:        80.12    1.433445  ( -0.164063  -0.359270   1.130245)
   7:       296.28    5.807544  ( -0.567954   2.322380  -0.302530)
   8:       392.14    4.162579  ( -0.564482   0.637722   1.853982)
   9:       555.01   15.222335  ( -3.060280   2.228565   0.943675)
  10:       637.08    0.830755  ( -0.675667  -0.607541   0.071580)
  11:       755.58   42.624611  ( -4.215557   4.469584   2.208282)
  12:       761.96   28.103053  (  1.882497  -0.257063  -4.949058)
  13:       770.38   18.841916  ( -2.770508  -0.565081   3.293461)
  14:       835.65   12.270707  ( -2.500072   1.640929   1.824198)
  15:       853.71    7.007746  ( -1.943314  -0.847158  -1.585434)
  16:       872.61    7.752433  ( -2.111488  -0.428374   1.763675)
  17:       940.40   12.748043  (  2.380385  -2.608562   0.526513)
  18:       949.52    6.781964  (  2.041059   1.002736   1.269079)
  19:       984.44    4.716445  ( -2.067544   0.507420   0.429222)
  20:      1012.73    6.491621  (  0.617653   2.069249  -1.352160)
  21:      1059.38   22.539644  ( -2.508054  -2.026233  -3.484779)
  22:      1068.95   26.394689  (  0.989258   0.760871  -4.983687)
  23:      1126.92   13.523356  (  3.319584   1.572350   0.177289)
  24:      1154.63    9.885453  ( -1.218978   2.421038  -1.593147)
  25:      1194.15   80.463576  ( -5.408504  -6.165608  -3.632759)
  26:      1242.85   92.754435  (  9.124038   2.954213   0.882605)
  27:      1259.27    1.618394  ( -0.011174   1.226624   0.337139)
  28:      1287.60   22.604433  ( -3.905357  -1.021869   2.511653)
  29:      1301.21   12.522631  (  3.031013  -1.701617  -0.663394)
  30:      1316.50    6.926646  (  0.640095  -0.563933   2.489760)
  31:      1333.64   10.176352  (  1.024406  -1.860446   2.380270)
  32:      1350.16   16.165096  (  0.254881  -0.511152   3.979806)
  33:      1409.74   13.389816  (  1.020544   2.979861  -1.862454)
  34:      1473.17   14.956208  (  3.800327  -0.667129   0.262028)
  35:      1625.19  114.201801  ( -0.953506   3.363038  10.098644)
  36:      1655.46   46.173892  ( -3.625183   0.372838  -5.735236)
  37:      3128.51    0.260589  ( -0.406720   0.306258   0.037058)
  38:      3141.60    1.076185  (  0.143704   0.544780  -0.871062)
  39:      3165.46    0.930769  ( -0.333340  -0.690548   0.585489)
  40:      3201.03    1.688747  (  0.399058  -1.147958   0.460100)
  41:      3253.80    6.796916  ( -0.791571   0.303256  -2.465435)
  42:      3277.73    9.102782  (  2.296007   1.812494   0.738920)
  43:      3452.79   52.807577  ( -1.161010   2.629087   6.674394)
  44:      3531.08   75.642895  ( -0.393781  -8.088217   3.173103)

--------------------------
THERMOCHEMISTRY AT 298.15K
--------------------------

Temperature         ... 298.15 K
Pressure            ... 1.00 atm
Total Mass          ... 98.12 AMU

Throughout the following assumptions are being made:
  (1) The electronic state is orbitally nondegenerate
  (2) There are no thermally accessible electronically excited states
  (3) Hindered rotations indicated by low frequency modes) are not
      treated as such but are treated as vibrations and this may
      case some error
  (4) All equations used are the standard statistical mechanics
      equations for an ideal gas
  (5) All vibrations are strinctly harmonic

------------
INNER ENERGY
------------

The inner energy is: U= E(el) + E(ZPE) + E(vib) + E(rot) + E(trans)
    E(el)   - is the total energy from the electronic structure calculation
              = E(kin-el) + E(nuc-el) + E(el-el) + E(nuc-nuc)
    E(ZPE)  - the the zero temperature vibrational energy from the frequency calculation
    E(vib)  - the the finite temperature correction to E(ZPE) due to population
              of excietd vibrational states
    E(rot)  - is the rotational thermal energy
    E(trans)- is the translational thermal energy

Summary of contributions to the inner energy U:
Electronic energy                ...   -324.77034846 Eh
Zero point energy                ...      0.13146948 Eh      82.50 kcal/mol
Thermal vibrational correction   ...      0.00268518 Eh       1.68 kcal/mol
Thermal rotational correction    ...      0.00141627 Eh       0.89 kcal/mol
Thermal translational correction ...      0.00141627 Eh       0.89 kcal/mol
-----------------------------------------------------------------------
Total thermal energy                   -324.63336126 Eh

Summary of corrections to the electronic energy:
(perhaps to be used in another calculation)
Total thermal correction                  0.00551772 Eh       3.46 kcal/mol
Non-thermal (ZPE) correction              0.13146948 Eh      82.50 kcal/mol
-----------------------------------------------------------------------
Total correction                          0.13698720 Eh      85.96 kcal/mol

--------
ENTHALPY
--------

The enthalpy is H = U + kB*T
                kB is Boltzmann's constant
Total free energy                 ...   -324.63336126 Eh
Thermal Enthalpy correction       ...      0.00094421 Eh       0.59 kcal/mol
-----------------------------------------------------------------------
Total Enthalpy                    ...   -324.63241705 Eh

-------
ENTROPY
-------

The entropy contributions are T*S = T*(S(el)+S(vib)+S(rot)+S(trans)
     S(el)   - electronic entropy
     S(vib)  - vibrational entropy
     S(rot)  - rotational entropy
     S(trans)- translational entropy
The entropies will be listed as mutliplied by the temperature to get
units of energy

Electronic entropy                ...      0.00000000 Eh      0.00 kcal/mol
Vibrational entropy               ...      0.00447459 Eh      2.81 kcal/mol
Rotational entropy                ...      0.01160257 Eh      7.28 kcal/mol
Translational entropy             ...      0.01884443 Eh     11.83 kcal/mol
-----------------------------------------------------------------------
Final entropy term                ...      0.03492160 Eh     21.91 kcal/mol

CAUTION: The rotational entropy is not quite correctly treated here
         because it includes a symmetry number that is not yet correctly
         implemented in ORCA!
For a nonlinear molecule the correct rotational entropy is:
    S(rot) = R*(ln(qrot/sn)+1.5)
    R    = 8.31441 J/mol/K = 1.987191683e-3 kcal/mol/K
    qrot = 145381.3948701
    sn is the rotational symmetry number. We have assumed 3 here
       if it is different for your molecule then you should correct
       the printed rotational entropy by manually evaluating the equation
       as given above

For convenience we print out the resulting values for sn=1 - 12:
 sn= 1  qrot/sn=  145381.3949 T*S(rot)=     7.93 kcal/mol T*S(tot)=    22.56 kcal/mol
 sn= 2  qrot/sn=   72690.6974 T*S(rot)=     7.52 kcal/mol T*S(tot)=    22.15 kcal/mol
 sn= 3  qrot/sn=   48460.4650 T*S(rot)=     7.28 kcal/mol T*S(tot)=    21.91 kcal/mol
 sn= 4  qrot/sn=   36345.3487 T*S(rot)=     7.11 kcal/mol T*S(tot)=    21.74 kcal/mol
 sn= 5  qrot/sn=   29076.2790 T*S(rot)=     6.98 kcal/mol T*S(tot)=    21.61 kcal/mol
 sn= 6  qrot/sn=   24230.2325 T*S(rot)=     6.87 kcal/mol T*S(tot)=    21.50 kcal/mol
 sn= 7  qrot/sn=   20768.7707 T*S(rot)=     6.78 kcal/mol T*S(tot)=    21.41 kcal/mol
 sn= 8  qrot/sn=   18172.6744 T*S(rot)=     6.70 kcal/mol T*S(tot)=    21.33 kcal/mol
 sn= 9  qrot/sn=   16153.4883 T*S(rot)=     6.63 kcal/mol T*S(tot)=    21.26 kcal/mol
 sn=10  qrot/sn=   14538.1395 T*S(rot)=     6.57 kcal/mol T*S(tot)=    21.20 kcal/mol
 sn=11  qrot/sn=   13216.4904 T*S(rot)=     6.51 kcal/mol T*S(tot)=    21.14 kcal/mol
 sn=12  qrot/sn=   12115.1162 T*S(rot)=     6.46 kcal/mol T*S(tot)=    21.09 kcal/mol

-------------------
GIBBS FREE ENTHALPY
-------------------

The Gibbs free enthalpy is G = H - T*S

Total enthalpy                    ...   -324.63241705 Eh
Total entropy correction          ...     -0.03492160 Eh    -21.91 kcal/mol
-----------------------------------------------------------------------
Final Gibbs free enthalpy         ...   -324.66733865 Eh

For completeness - the Gibbs free enthalpy minus the electronic energy
G-E(el)                           ...      0.10300981 Eh     64.64 kcal/mol

                             ****ORCA TERMINATED NORMALLY****
TOTAL RUN TIME: 0 days 0 hours 33 minutes 36 seconds 627 msec
