                         Program Version 3.0.3 - RELEASE   -
|  1> ! NORI PBE0 def2-TZVP UseSym TightOPT Freq TightSCF Grid3 FinalGrid5 XYZFile
|  2> % pal
|  3>     nprocs 8
|  4> end
|  5> %method
|  6>     SymThresh 5.0e-2
|  7> end
|  8> % geom
|  9>     MaxIter 10
| 10> end
| 11> % maxcore 2000
| 12> % output
| 13>     printlevel mini
| 14>     print[ P_Basis ] 0
| 15>     print[ P_SCFInfo ] 1
| 16>     print[ P_SCFIterInfo ] 1
| 17>     print[ P_OrbEn ] 0
| 18>     print[ P_Cartesian ] 0
| 19> end
| 20> % elprop
| 21>     Dipole false
| 22> end
| 23> *xyz 1 1
| 24>  C        1.6775655656    -0.1150396552     0.1588597038
| 25>  N        0.8821241404    -1.4122528149     0.2655881909
| 26>  C       -0.2218959232    -0.7917031215    -0.5987371158
| 27>  C       -1.3583448817    -0.2563196478     0.2054264574
| 28>  N       -1.2672688370     0.9958128039     0.4157523723
| 29>  O       -0.1520639224     1.5209442329    -0.1614727871
| 30>  C        0.6115559817     0.4848528104    -0.7630862879
| 31>  H        1.7654852339     0.3733004382     1.1273880962
| 32>  H        2.6588848409    -0.2948726619    -0.2740720228
| 33>  H        1.3415044133    -2.2182877243    -0.1581335417
| 34>  H        0.5898758616    -1.6675893642     1.2096673617
| 35>  H       -0.4779325133    -1.4367131846    -1.4375949239
| 36>  H       -2.2225150380    -0.8056807463     0.5550232292
| 37>  H        0.9350250783     0.8073686354    -1.7495087321
| 38> *
| 39>
| 40>                          ****END OF INPUT****
 Total Charge           Charge          ....    1
 Multiplicity           Mult            ....    1
 Number of Electrons    NEL             ....   52
FINAL SINGLE POINT ENERGY      -340.753215963536

CARTESIAN COORDINATES (ANGSTROEM)
---------------------------------
  C      1.559754    0.340179   -0.403751
  N      0.653826    0.000153   -1.583121
  C     -0.563049    0.434275   -0.757099
  C     -1.277879   -0.713196   -0.126678
  N     -0.931773   -0.905639    1.083265
  O     -0.000206    0.000421    1.487890
  C      0.356432    0.842056    0.400280
  H      2.033056   -0.553240   -0.000677
  H      2.306079    1.078987   -0.686786
  H      0.820326    0.568868   -2.413434
  H      0.650647   -0.982268   -1.860970
  H     -1.175119    1.152206   -1.300519
  H     -2.053763   -1.320374   -0.574241
  H      0.385286    1.873591    0.742802

FINAL SINGLE POINT ENERGY      -340.753216305087
                    ***********************HURRAY********************
 Multiplicity           Mult            ....    1
 Number of Electrons    NEL             ....   52
 Basis Dimension        Dim             ....  259
FINAL SINGLE POINT ENERGY      -340.753216369792

VIBRATIONAL FREQUENCIES
-----------------------

   0:         0.00 cm**-1
   1:         0.00 cm**-1
   2:         0.00 cm**-1
   3:         0.00 cm**-1
   4:         0.00 cm**-1
   5:         0.00 cm**-1
   6:        79.35 cm**-1
   7:       292.75 cm**-1
   8:       392.93 cm**-1
   9:       592.06 cm**-1
  10:       662.57 cm**-1
  11:       759.07 cm**-1
  12:       799.38 cm**-1
  13:       831.45 cm**-1
  14:       863.14 cm**-1
  15:       875.69 cm**-1
  16:       897.22 cm**-1
  17:       945.04 cm**-1
  18:       959.02 cm**-1
  19:       969.64 cm**-1
  20:      1004.52 cm**-1
  21:      1060.22 cm**-1
  22:      1078.56 cm**-1
  23:      1149.17 cm**-1
  24:      1239.87 cm**-1
  25:      1248.60 cm**-1
  26:      1270.30 cm**-1
  27:      1287.10 cm**-1
  28:      1303.38 cm**-1
  29:      1327.98 cm**-1
  30:      1341.27 cm**-1
  31:      1366.87 cm**-1
  32:      1472.82 cm**-1
  33:      1631.67 cm**-1
  34:      1659.28 cm**-1
  35:      3127.32 cm**-1
  36:      3152.04 cm**-1
  37:      3169.32 cm**-1
  38:      3202.36 cm**-1
  39:      3245.15 cm**-1
  40:      3449.43 cm**-1
  41:      3521.78 cm**-1

IR SPECTRUM
-----------

 Mode    freq (cm**-1)   T**2         TX         TY         TZ
-------------------------------------------------------------------
   6:        79.35    1.375415  (  0.151288   0.077016  -1.160429)
   7:       292.75    6.330021  ( -1.729540  -0.495111   1.758856)
   8:       392.93    5.663503  ( -1.350274   1.015181   1.676207)
   9:       592.06    0.173067  (  0.248456   0.184104  -0.278286)
  10:       662.57    1.416561  ( -0.948416  -0.690553  -0.200514)
  11:       759.07    4.383012  ( -0.690727  -0.222547  -1.963767)
  12:       799.38    9.345178  ( -0.049999   2.211452  -2.110014)
  13:       831.45   22.112607  (  2.897307  -1.804442  -3.234534)
  14:       863.14    3.122799  (  0.017882   1.726323  -0.377212)
  15:       875.69    6.984962  ( -0.784069   2.356710   0.903391)
  16:       897.22   16.969274  (  3.534408   1.114881  -1.798408)
  17:       945.04   20.833148  (  2.027675   1.159269   3.921451)
  18:       959.02   21.631388  (  0.140338   3.741838   2.758685)
  19:       969.64   65.040454  (  5.568275   1.002612   5.747133)
  20:      1004.52    2.374634  ( -0.564260  -0.474416  -1.353209)
  21:      1060.22   16.694912  ( -3.047258  -1.917545   1.931877)
  22:      1078.56    2.552633  (  1.229195   0.247347  -0.990217)
  23:      1149.17    7.382098  ( -0.609779   2.644532  -0.129300)
  24:      1239.87    7.425842  (  2.590613   0.683204  -0.497795)
  25:      1248.60   40.246519  ( -6.124255  -1.486426  -0.728397)
  26:      1270.30    8.273304  (  2.805637   0.633393  -0.022744)
  27:      1287.10    6.249683  (  2.105930  -0.040139  -1.346525)
  28:      1303.38   18.483096  (  3.443521  -2.492159  -0.643738)
  29:      1327.98    3.023850  ( -0.807613  -1.493879  -0.374082)
  30:      1341.27   25.235111  (  3.853535   0.229348   3.214465)
  31:      1366.87    4.751354  (  1.720044  -1.153886   0.679226)
  32:      1472.82   14.941127  ( -3.734617   0.977616  -0.195016)
  33:      1631.67   84.355366  ( -0.477109   3.477527   8.487316)
  34:      1659.28    9.998085  ( -3.140219  -0.082043  -0.361075)
  35:      3127.32    1.036026  (  0.764661  -0.612531   0.275908)
  36:      3152.04    0.392863  (  0.311544  -0.536730   0.087885)
  37:      3169.32    0.757114  ( -0.130705   0.243113   0.825183)
  38:      3202.36    3.192565  ( -0.196807   1.670617  -0.602387)
  39:      3245.15   12.698054  (  2.701811   1.822504   1.441094)
  40:      3449.43   64.434887  ( -1.167551   3.130932   7.298560)
  41:      3521.78   91.497291  ( -1.056809  -8.622633   4.003830)

--------------------------
THERMOCHEMISTRY AT 298.15K
--------------------------

Temperature         ... 298.15 K
Pressure            ... 1.00 atm
Total Mass          ... 99.11 AMU

Throughout the following assumptions are being made:
  (1) The electronic state is orbitally nondegenerate
  (2) There are no thermally accessible electronically excited states
  (3) Hindered rotations indicated by low frequency modes) are not
      treated as such but are treated as vibrations and this may
      case some error
  (4) All equations used are the standard statistical mechanics
      equations for an ideal gas
  (5) All vibrations are strinctly harmonic

------------
INNER ENERGY
------------

The inner energy is: U= E(el) + E(ZPE) + E(vib) + E(rot) + E(trans)
    E(el)   - is the total energy from the electronic structure calculation
              = E(kin-el) + E(nuc-el) + E(el-el) + E(nuc-nuc)
    E(ZPE)  - the the zero temperature vibrational energy from the frequency calculation
    E(vib)  - the the finite temperature correction to E(ZPE) due to population
              of excietd vibrational states
    E(rot)  - is the rotational thermal energy
    E(trans)- is the translational thermal energy

Summary of contributions to the inner energy U:
Electronic energy                ...   -340.75321637 Eh
Zero point energy                ...      0.11898490 Eh      74.66 kcal/mol
Thermal vibrational correction   ...      0.00257432 Eh       1.62 kcal/mol
Thermal rotational correction    ...      0.00141627 Eh       0.89 kcal/mol
Thermal translational correction ...      0.00141627 Eh       0.89 kcal/mol
-----------------------------------------------------------------------
Total thermal energy                   -340.62882461 Eh

Summary of corrections to the electronic energy:
(perhaps to be used in another calculation)
Total thermal correction                  0.00540686 Eh       3.39 kcal/mol
Non-thermal (ZPE) correction              0.11898490 Eh      74.66 kcal/mol
-----------------------------------------------------------------------
Total correction                          0.12439176 Eh      78.06 kcal/mol

--------
ENTHALPY
--------

The enthalpy is H = U + kB*T
                kB is Boltzmann's constant
Total free energy                 ...   -340.62882461 Eh
Thermal Enthalpy correction       ...      0.00094421 Eh       0.59 kcal/mol
-----------------------------------------------------------------------
Total Enthalpy                    ...   -340.62788040 Eh

-------
ENTROPY
-------

The entropy contributions are T*S = T*(S(el)+S(vib)+S(rot)+S(trans)
     S(el)   - electronic entropy
     S(vib)  - vibrational entropy
     S(rot)  - rotational entropy
     S(trans)- translational entropy
The entropies will be listed as mutliplied by the temperature to get
units of energy

Electronic entropy                ...      0.00000000 Eh      0.00 kcal/mol
Vibrational entropy               ...      0.00433724 Eh      2.72 kcal/mol
Rotational entropy                ...      0.01157870 Eh      7.27 kcal/mol
Translational entropy             ...      0.01885862 Eh     11.83 kcal/mol
-----------------------------------------------------------------------
Final entropy term                ...      0.03477456 Eh     21.82 kcal/mol

CAUTION: The rotational entropy is not quite correctly treated here
         because it includes a symmetry number that is not yet correctly
         implemented in ORCA!
For a nonlinear molecule the correct rotational entropy is:
    S(rot) = R*(ln(qrot/sn)+1.5)
    R    = 8.31441 J/mol/K = 1.987191683e-3 kcal/mol/K
    qrot = 141751.4767758
    sn is the rotational symmetry number. We have assumed 3 here
       if it is different for your molecule then you should correct
       the printed rotational entropy by manually evaluating the equation
       as given above

For convenience we print out the resulting values for sn=1 - 12:
 sn= 1  qrot/sn=  141751.4768 T*S(rot)=     7.92 kcal/mol T*S(tot)=    22.47 kcal/mol
 sn= 2  qrot/sn=   70875.7384 T*S(rot)=     7.51 kcal/mol T*S(tot)=    22.06 kcal/mol
 sn= 3  qrot/sn=   47250.4923 T*S(rot)=     7.27 kcal/mol T*S(tot)=    21.82 kcal/mol
 sn= 4  qrot/sn=   35437.8692 T*S(rot)=     7.10 kcal/mol T*S(tot)=    21.65 kcal/mol
 sn= 5  qrot/sn=   28350.2954 T*S(rot)=     6.96 kcal/mol T*S(tot)=    21.52 kcal/mol
 sn= 6  qrot/sn=   23625.2461 T*S(rot)=     6.86 kcal/mol T*S(tot)=    21.41 kcal/mol
 sn= 7  qrot/sn=   20250.2110 T*S(rot)=     6.76 kcal/mol T*S(tot)=    21.32 kcal/mol
 sn= 8  qrot/sn=   17718.9346 T*S(rot)=     6.68 kcal/mol T*S(tot)=    21.24 kcal/mol
 sn= 9  qrot/sn=   15750.1641 T*S(rot)=     6.61 kcal/mol T*S(tot)=    21.17 kcal/mol
 sn=10  qrot/sn=   14175.1477 T*S(rot)=     6.55 kcal/mol T*S(tot)=    21.11 kcal/mol
 sn=11  qrot/sn=   12886.4979 T*S(rot)=     6.50 kcal/mol T*S(tot)=    21.05 kcal/mol
 sn=12  qrot/sn=   11812.6231 T*S(rot)=     6.44 kcal/mol T*S(tot)=    21.00 kcal/mol

-------------------
GIBBS FREE ENTHALPY
-------------------

The Gibbs free enthalpy is G = H - T*S

Total enthalpy                    ...   -340.62788040 Eh
Total entropy correction          ...     -0.03477456 Eh    -21.82 kcal/mol
-----------------------------------------------------------------------
Final Gibbs free enthalpy         ...   -340.66265496 Eh

For completeness - the Gibbs free enthalpy minus the electronic energy
G-E(el)                           ...      0.09056141 Eh     56.83 kcal/mol

                             ****ORCA TERMINATED NORMALLY****
TOTAL RUN TIME: 0 days 0 hours 30 minutes 34 seconds 205 msec
