                         Program Version 3.0.3 - RELEASE   -
|  1> ! NORI PBE0 def2-TZVP UseSym TightOPT Freq TightSCF Grid3 FinalGrid5 XYZFile
|  2> % pal
|  3>     nprocs 8
|  4> end
|  5> %method
|  6>     SymThresh 5.0e-2
|  7> end
|  8> % geom
|  9>     MaxIter 10
| 10> end
| 11> % maxcore 2000
| 12> % output
| 13>     printlevel mini
| 14>     print[ P_Basis ] 0
| 15>     print[ P_SCFInfo ] 1
| 16>     print[ P_SCFIterInfo ] 1
| 17>     print[ P_OrbEn ] 0
| 18>     print[ P_Cartesian ] 0
| 19> end
| 20> % elprop
| 21>     Dipole false
| 22> end
| 23> *xyz 1 1
| 24>  C       -1.2152483480    -0.7698858208    -0.4992119890
| 25>  N       -1.2159432644     0.7600087801    -0.4727087662
| 26>  C        0.0103042690     1.1294756875     0.3511743509
| 27>  C        1.2054453311     0.7307292958    -0.4983293602
| 28>  O        1.1582412086    -0.6969291088    -0.4897581249
| 29>  C        0.0452243202    -1.0639364127     0.3072323526
| 30>  C       -0.0025048866     0.0139025599     1.3831060107
| 31>  H       -1.1497048637    -1.1103475226    -1.5299014043
| 32>  H       -2.1335884139    -1.1305296488    -0.0379668155
| 33>  H       -2.0650760525     1.1190484412    -0.0375112433
| 34>  H       -1.1667312191     1.1552912381    -1.4115088561
| 35>  H       -0.0426228722     2.1674298070     0.6707943819
| 36>  H        1.1548183462     1.1056540881    -1.5263932393
| 37>  H        2.1367142444     1.0869613341    -0.0506963054
| 38>  H        0.1417210225    -2.1001520131     0.6216421185
| 39>  H        0.8905405589     0.0234505470     2.0060987898
| 40>  H       -0.8921993804    -0.0084012522     2.0151480998
| 41> *
| 42>
| 43>                          ****END OF INPUT****
 Total Charge           Charge          ....    1
 Multiplicity           Mult            ....    1
 Number of Electrons    NEL             ....   54
FINAL SINGLE POINT ENERGY      -326.011510909313

CARTESIAN COORDINATES (ANGSTROEM)
---------------------------------
  C      0.666354   -1.303484   -0.415636
  N      0.899233   -0.000251   -1.182577
  C     -0.162318    0.952743   -0.649671
  C      0.235296    1.241501    0.788236
  O      0.000099   -0.000177    1.454157
  C     -0.500375   -0.898107    0.478582
  C     -1.322040   -0.008666   -0.446907
  H      1.563927   -1.555172    0.144780
  H      0.429117   -2.093379   -1.126939
  H      0.788223   -0.140228   -2.186266
  H      1.838669    0.366519   -1.030493
  H     -0.273981    1.808711   -1.311232
  H      1.283788    1.539083    0.899964
  H     -0.390435    2.030209    1.213709
  H     -0.999059   -1.732301    0.965888
  H     -2.160322    0.464193    0.062114
  H     -1.671732   -0.495305   -1.359034

FINAL SINGLE POINT ENERGY      -326.011511827687
                    ***********************HURRAY********************
 Multiplicity           Mult            ....    1
 Number of Electrons    NEL             ....   54
 Basis Dimension        Dim             ....  277
FINAL SINGLE POINT ENERGY      -326.011512039275

VIBRATIONAL FREQUENCIES
-----------------------

   0:         0.00 cm**-1
   1:         0.00 cm**-1
   2:         0.00 cm**-1
   3:         0.00 cm**-1
   4:         0.00 cm**-1
   5:         0.00 cm**-1
   6:       172.01 cm**-1
   7:       361.43 cm**-1
   8:       419.27 cm**-1
   9:       468.80 cm**-1
  10:       588.01 cm**-1
  11:       779.29 cm**-1
  12:       790.61 cm**-1
  13:       834.12 cm**-1
  14:       842.34 cm**-1
  15:       877.75 cm**-1
  16:       916.42 cm**-1
  17:       940.81 cm**-1
  18:       950.38 cm**-1
  19:       970.32 cm**-1
  20:       979.43 cm**-1
  21:       988.45 cm**-1
  22:      1044.15 cm**-1
  23:      1085.54 cm**-1
  24:      1107.88 cm**-1
  25:      1154.59 cm**-1
  26:      1190.94 cm**-1
  27:      1202.19 cm**-1
  28:      1247.58 cm**-1
  29:      1268.19 cm**-1
  30:      1286.70 cm**-1
  31:      1311.37 cm**-1
  32:      1319.25 cm**-1
  33:      1349.91 cm**-1
  34:      1364.33 cm**-1
  35:      1373.15 cm**-1
  36:      1397.46 cm**-1
  37:      1479.60 cm**-1
  38:      1490.79 cm**-1
  39:      1521.27 cm**-1
  40:      1648.67 cm**-1
  41:      3052.74 cm**-1
  42:      3103.50 cm**-1
  43:      3108.46 cm**-1
  44:      3119.62 cm**-1
  45:      3171.80 cm**-1
  46:      3173.61 cm**-1
  47:      3177.55 cm**-1
  48:      3191.10 cm**-1
  49:      3465.55 cm**-1
  50:      3525.85 cm**-1

IR SPECTRUM
-----------

 Mode    freq (cm**-1)   T**2         TX         TY         TZ
-------------------------------------------------------------------
   6:       172.01    3.885300  (  1.103728  -0.370934  -1.590438)
   7:       361.43    4.496156  (  1.998472  -0.327015   0.628751)
   8:       419.27    6.835276  ( -1.021284   0.861927   2.247073)
   9:       468.80    4.061347  ( -1.953561   0.262343   0.419672)
  10:       588.01    2.402623  (  0.171192  -0.816864   1.306159)
  11:       779.29    1.155145  ( -0.350117   0.988481   0.235516)
  12:       790.61    0.566759  (  0.421338   0.145503   0.606681)
  13:       834.12    5.186726  ( -0.874050  -0.176766   2.095595)
  14:       842.34    2.580540  (  1.353138   0.235365  -0.833163)
  15:       877.75    5.349438  (  1.888331   1.266934   0.422518)
  16:       916.42   24.205732  ( -1.810559   2.288060  -3.961362)
  17:       940.81    4.245815  (  0.385492  -1.962977  -0.493895)
  18:       950.38   15.480679  ( -1.309405  -0.345372  -3.694165)
  19:       970.32    5.006650  (  0.943513  -0.072053  -2.027620)
  20:       979.43    6.739860  (  1.090805   2.355551   0.037193)
  21:       988.45    2.496228  ( -1.253044   0.221988  -0.936392)
  22:      1044.15    5.828675  ( -2.259749   0.656417   0.539746)
  23:      1085.54   32.090204  ( -0.616803  -5.516350  -1.131212)
  24:      1107.88   40.282279  ( -0.740411  -6.055134  -1.751978)
  25:      1154.59    2.839189  ( -1.620180  -0.137993  -0.441772)
  26:      1190.94   36.290466  (  1.880585   4.449028   3.600002)
  27:      1202.19    8.119512  ( -0.517291  -2.771632  -0.412287)
  28:      1247.58    5.705322  ( -0.722682  -2.268244   0.195247)
  29:      1268.19   31.592892  (  3.326843  -4.504926  -0.480256)
  30:      1286.70    4.239736  ( -0.393372  -1.555006   1.291104)
  31:      1311.37    1.333563  (  0.359425  -0.112091   1.091701)
  32:      1319.25    2.166080  (  0.198285   0.067252   1.456791)
  33:      1349.91    5.012535  (  1.545280  -1.441482   0.739442)
  34:      1364.33    2.401960  (  1.122788   0.257066  -1.036930)
  35:      1373.15   19.550987  ( -0.671378   3.914606  -1.943218)
  36:      1397.46   14.010952  ( -1.509264   3.382778  -0.538414)
  37:      1479.60   18.791301  (  4.171324  -0.845258   0.822739)
  38:      1490.79    7.358039  (  0.427270   2.350650   1.284494)
  39:      1521.27    4.140581  (  0.021458   0.925352   1.812138)
  40:      1648.67   72.241737  (  5.997633   0.869680  -5.959345)
  41:      3052.74   19.968410  ( -2.984455  -3.317487   0.236035)
  42:      3103.50    2.611843  (  0.495566  -0.738820  -1.349223)
  43:      3108.46    4.131854  ( -1.671508   1.146037  -0.156575)
  44:      3119.62    0.832048  ( -0.151141  -0.690120  -0.577008)
  45:      3171.80    0.190466  ( -0.286750  -0.222153  -0.242669)
  46:      3173.61    0.944456  (  0.712754   0.359152   0.554481)
  47:      3177.55    0.856620  ( -0.448411   0.318320   0.744459)
  48:      3191.10    0.206582  ( -0.277132   0.348085  -0.092828)
  49:      3465.55   60.541794  (  5.467349   1.451187  -5.342654)
  50:      3525.85   74.388095  ( -4.994113  -2.582315  -6.540534)

--------------------------
THERMOCHEMISTRY AT 298.15K
--------------------------

Temperature         ... 298.15 K
Pressure            ... 1.00 atm
Total Mass          ... 100.14 AMU

Throughout the following assumptions are being made:
  (1) The electronic state is orbitally nondegenerate
  (2) There are no thermally accessible electronically excited states
  (3) Hindered rotations indicated by low frequency modes) are not
      treated as such but are treated as vibrations and this may
      case some error
  (4) All equations used are the standard statistical mechanics
      equations for an ideal gas
  (5) All vibrations are strinctly harmonic

------------
INNER ENERGY
------------

The inner energy is: U= E(el) + E(ZPE) + E(vib) + E(rot) + E(trans)
    E(el)   - is the total energy from the electronic structure calculation
              = E(kin-el) + E(nuc-el) + E(el-el) + E(nuc-nuc)
    E(ZPE)  - the the zero temperature vibrational energy from the frequency calculation
    E(vib)  - the the finite temperature correction to E(ZPE) due to population
              of excietd vibrational states
    E(rot)  - is the rotational thermal energy
    E(trans)- is the translational thermal energy

Summary of contributions to the inner energy U:
Electronic energy                ...   -326.01151204 Eh
Zero point energy                ...      0.15676709 Eh      98.37 kcal/mol
Thermal vibrational correction   ...      0.00252907 Eh       1.59 kcal/mol
Thermal rotational correction    ...      0.00141627 Eh       0.89 kcal/mol
Thermal translational correction ...      0.00141627 Eh       0.89 kcal/mol
-----------------------------------------------------------------------
Total thermal energy                   -325.84938333 Eh

Summary of corrections to the electronic energy:
(perhaps to be used in another calculation)
Total thermal correction                  0.00536162 Eh       3.36 kcal/mol
Non-thermal (ZPE) correction              0.15676709 Eh      98.37 kcal/mol
-----------------------------------------------------------------------
Total correction                          0.16212871 Eh     101.74 kcal/mol

--------
ENTHALPY
--------

The enthalpy is H = U + kB*T
                kB is Boltzmann's constant
Total free energy                 ...   -325.84938333 Eh
Thermal Enthalpy correction       ...      0.00094421 Eh       0.59 kcal/mol
-----------------------------------------------------------------------
Total Enthalpy                    ...   -325.84843912 Eh

-------
ENTROPY
-------

The entropy contributions are T*S = T*(S(el)+S(vib)+S(rot)+S(trans)
     S(el)   - electronic entropy
     S(vib)  - vibrational entropy
     S(rot)  - rotational entropy
     S(trans)- translational entropy
The entropies will be listed as mutliplied by the temperature to get
units of energy

Electronic entropy                ...      0.00000000 Eh      0.00 kcal/mol
Vibrational entropy               ...      0.00373495 Eh      2.34 kcal/mol
Rotational entropy                ...      0.01156484 Eh      7.26 kcal/mol
Translational entropy             ...      0.01887324 Eh     11.84 kcal/mol
-----------------------------------------------------------------------
Final entropy term                ...      0.03417303 Eh     21.44 kcal/mol

CAUTION: The rotational entropy is not quite correctly treated here
         because it includes a symmetry number that is not yet correctly
         implemented in ORCA!
For a nonlinear molecule the correct rotational entropy is:
    S(rot) = R*(ln(qrot/sn)+1.5)
    R    = 8.31441 J/mol/K = 1.987191683e-3 kcal/mol/K
    qrot = 139685.6797978
    sn is the rotational symmetry number. We have assumed 3 here
       if it is different for your molecule then you should correct
       the printed rotational entropy by manually evaluating the equation
       as given above

For convenience we print out the resulting values for sn=1 - 12:
 sn= 1  qrot/sn=  139685.6798 T*S(rot)=     7.91 kcal/mol T*S(tot)=    22.09 kcal/mol
 sn= 2  qrot/sn=   69842.8399 T*S(rot)=     7.50 kcal/mol T*S(tot)=    21.68 kcal/mol
 sn= 3  qrot/sn=   46561.8933 T*S(rot)=     7.26 kcal/mol T*S(tot)=    21.44 kcal/mol
 sn= 4  qrot/sn=   34921.4199 T*S(rot)=     7.09 kcal/mol T*S(tot)=    21.27 kcal/mol
 sn= 5  qrot/sn=   27937.1360 T*S(rot)=     6.95 kcal/mol T*S(tot)=    21.14 kcal/mol
 sn= 6  qrot/sn=   23280.9466 T*S(rot)=     6.85 kcal/mol T*S(tot)=    21.03 kcal/mol
 sn= 7  qrot/sn=   19955.0971 T*S(rot)=     6.76 kcal/mol T*S(tot)=    20.94 kcal/mol
 sn= 8  qrot/sn=   17460.7100 T*S(rot)=     6.68 kcal/mol T*S(tot)=    20.86 kcal/mol
 sn= 9  qrot/sn=   15520.6311 T*S(rot)=     6.61 kcal/mol T*S(tot)=    20.79 kcal/mol
 sn=10  qrot/sn=   13968.5680 T*S(rot)=     6.54 kcal/mol T*S(tot)=    20.73 kcal/mol
 sn=11  qrot/sn=   12698.6982 T*S(rot)=     6.49 kcal/mol T*S(tot)=    20.67 kcal/mol
 sn=12  qrot/sn=   11640.4733 T*S(rot)=     6.44 kcal/mol T*S(tot)=    20.62 kcal/mol

-------------------
GIBBS FREE ENTHALPY
-------------------

The Gibbs free enthalpy is G = H - T*S

Total enthalpy                    ...   -325.84843912 Eh
Total entropy correction          ...     -0.03417303 Eh    -21.44 kcal/mol
-----------------------------------------------------------------------
Final Gibbs free enthalpy         ...   -325.88261215 Eh

For completeness - the Gibbs free enthalpy minus the electronic energy
G-E(el)                           ...      0.12889989 Eh     80.89 kcal/mol

                             ****ORCA TERMINATED NORMALLY****
TOTAL RUN TIME: 0 days 0 hours 41 minutes 59 seconds 866 msec
