                         Program Version 3.0.3 - RELEASE   -
|  1> ! NORI PBE0 def2-TZVP UseSym TightOPT Freq TightSCF Grid3 FinalGrid5 XYZFile
|  2> % pal
|  3>     nprocs 8
|  4> end
|  5> %method
|  6>     SymThresh 5.0e-2
|  7> end
|  8> % geom
|  9>     MaxIter 10
| 10> end
| 11> % maxcore 2000
| 12> % output
| 13>     printlevel mini
| 14>     print[ P_Basis ] 0
| 15>     print[ P_SCFInfo ] 1
| 16>     print[ P_SCFIterInfo ] 1
| 17>     print[ P_OrbEn ] 0
| 18>     print[ P_Cartesian ] 0
| 19> end
| 20> % elprop
| 21>     Dipole false
| 22> end
| 23> *xyz 1 1
| 24>  C       -1.7952671855     0.6435185114     0.3921116910
| 25>  N       -1.7618534074    -0.7232419716    -0.3280099829
| 26>  C       -0.2785401440    -0.7457054922     0.0428749333
| 27>  C        1.0390452274    -1.0437164937    -0.6225382495
| 28>  O        1.8214637169    -0.0430094111     0.0433204094
| 29>  C        1.0437125235     1.0302211706     0.6407355155
| 30>  C       -0.3056177268     0.7559940388     0.0318616268
| 31>  H       -2.0128333871     0.4609488667     1.4432680004
| 32>  H       -2.5096143598     1.3346300514    -0.0490809065
| 33>  H       -2.3525030377    -1.4719223947     0.0332705371
| 34>  H       -1.9275114862    -0.6198862137    -1.3298838633
| 35>  H       -0.2746329838    -1.1202541435     1.0690898188
| 36>  H        1.4700780453    -2.0176883748    -0.3928889124
| 37>  H        1.0233380988    -0.8879433318    -1.7071564407
| 38>  H        1.0614583942     0.9315335192     1.7299704192
| 39>  H        1.4965719874     1.9762904554     0.3490125761
| 40>  H       -0.2701442753     1.0834112135    -1.0147871722
| 41> *
| 42>
| 43>                          ****END OF INPUT****
 Total Charge           Charge          ....    1
 Multiplicity           Mult            ....    1
 Number of Electrons    NEL             ....   54
FINAL SINGLE POINT ENERGY      -325.939920889103

CARTESIAN COORDINATES (ANGSTROEM)
---------------------------------
  C     -0.773508   -0.070851   -1.759399
  N      0.769532   -0.000009   -1.728618
  C      0.633933   -0.325923   -0.240993
  C      1.188186    0.166738    1.069840
  O      0.000143   -0.000703    1.855649
  C     -1.226353   -0.094345    1.080604
  C     -0.720610    0.322522   -0.274958
  H     -1.055516   -1.102873   -1.962922
  H     -1.212331    0.612740   -2.482110
  H      1.293036   -0.652844   -2.311194
  H      1.101871    0.948534   -1.906835
  H      0.535772   -1.414033   -0.222760
  H      1.972755   -0.449296    1.508204
  H      1.507624    1.214325    1.040319
  H     -1.600311   -1.121408    1.112144
  H     -1.957837    0.578049    1.525862
  H     -0.571479    1.409669   -0.253863

FINAL SINGLE POINT ENERGY      -325.939921874504
                    ***********************HURRAY********************
 Multiplicity           Mult            ....    1
 Number of Electrons    NEL             ....   54
 Basis Dimension        Dim             ....  277
FINAL SINGLE POINT ENERGY      -325.939922261747

VIBRATIONAL FREQUENCIES
-----------------------

   0:         0.00 cm**-1
   1:         0.00 cm**-1
   2:         0.00 cm**-1
   3:         0.00 cm**-1
   4:         0.00 cm**-1
   5:         0.00 cm**-1
   6:       140.16 cm**-1
   7:       256.94 cm**-1
   8:       299.76 cm**-1
   9:       406.37 cm**-1
  10:       488.58 cm**-1
  11:       629.97 cm**-1
  12:       660.06 cm**-1
  13:       771.08 cm**-1
  14:       861.93 cm**-1
  15:       876.73 cm**-1
  16:       889.69 cm**-1
  17:       910.03 cm**-1
  18:       960.20 cm**-1
  19:       991.81 cm**-1
  20:      1028.82 cm**-1
  21:      1047.57 cm**-1
  22:      1085.18 cm**-1
  23:      1147.41 cm**-1
  24:      1163.69 cm**-1
  25:      1171.65 cm**-1
  26:      1203.71 cm**-1
  27:      1226.52 cm**-1
  28:      1248.18 cm**-1
  29:      1275.08 cm**-1
  30:      1285.03 cm**-1
  31:      1308.81 cm**-1
  32:      1330.88 cm**-1
  33:      1340.69 cm**-1
  34:      1370.99 cm**-1
  35:      1433.90 cm**-1
  36:      1437.98 cm**-1
  37:      1493.38 cm**-1
  38:      1518.63 cm**-1
  39:      1524.59 cm**-1
  40:      1635.77 cm**-1
  41:      3037.54 cm**-1
  42:      3050.82 cm**-1
  43:      3075.42 cm**-1
  44:      3102.78 cm**-1
  45:      3123.24 cm**-1
  46:      3146.36 cm**-1
  47:      3154.90 cm**-1
  48:      3203.21 cm**-1
  49:      3455.73 cm**-1
  50:      3532.84 cm**-1

IR SPECTRUM
-----------

 Mode    freq (cm**-1)   T**2         TX         TY         TZ
-------------------------------------------------------------------
   6:       140.16    5.791787  (  0.486555  -2.314712  -0.444025)
   7:       256.94    2.758655  ( -0.260433   1.587799   0.411976)
   8:       299.76    1.242661  (  0.048565   1.047110   0.379294)
   9:       406.37    0.830299  ( -0.741273   0.492892  -0.194602)
  10:       488.58    2.411388  ( -0.559957   0.418080   1.386739)
  11:       629.97    3.695789  ( -0.067065   0.142969   1.915947)
  12:       660.06    3.872280  (  0.643116  -1.713042  -0.723995)
  13:       771.08   17.088427  (  1.865085  -0.442479   3.662526)
  14:       861.93   16.433079  ( -1.482045  -1.258830  -3.556961)
  15:       876.73   11.616876  ( -1.502242   1.460267  -2.688450)
  16:       889.69   36.622736  ( -2.867438  -0.030849   5.329126)
  17:       910.03    2.366977  ( -0.652627   0.763860   1.165149)
  18:       960.20    1.039148  ( -0.792143   0.221798  -0.602050)
  19:       991.81    3.765885  ( -1.155135  -0.379515  -1.512454)
  20:      1028.82   56.891475  (  7.211316   1.921289   1.094095)
  21:      1047.57   13.988976  (  1.664266   1.256158  -3.105038)
  22:      1085.18   29.700057  ( -5.442609  -0.082972   0.266795)
  23:      1147.41    5.322994  (  1.728818   1.515415   0.194167)
  24:      1163.69    8.222253  (  1.554306   0.289175   2.392230)
  25:      1171.65   17.843707  (  4.163875  -0.711019  -0.017394)
  26:      1203.71    4.277887  (  0.149551   0.067867  -2.061775)
  27:      1226.52   20.654649  (  3.367739   0.331970   3.033609)
  28:      1248.18   26.494526  (  3.398479  -1.256298   3.656034)
  29:      1275.08   11.484797  (  1.190443  -0.142928   3.169734)
  30:      1285.03    7.522604  (  1.305542  -2.053397   1.265593)
  31:      1308.81   10.521860  ( -2.105828   0.886385  -2.302535)
  32:      1330.88    5.361991  (  2.250777  -0.327784  -0.434223)
  33:      1340.69    1.141994  ( -0.325854   0.532771   0.867161)
  34:      1370.99    1.346480  ( -0.596295   0.452794  -0.886504)
  35:      1433.90    0.602367  ( -0.278480  -0.501748  -0.522556)
  36:      1437.98    5.104210  (  0.054094  -1.161049  -1.937331)
  37:      1493.38    9.750286  (  1.144478   1.853069   2.237542)
  38:      1518.63    3.982338  ( -0.908576  -1.757162  -0.263075)
  39:      1524.59    0.804874  ( -0.506026  -0.507404   0.539772)
  40:      1635.77   62.411315  (  5.490788   2.595572  -5.052283)
  41:      3037.54    1.001206  (  0.179671  -0.702900   0.689098)
  42:      3050.82   23.609535  ( -3.667681  -3.112359   0.686202)
  43:      3075.42   19.907790  (  3.658264   2.516265  -0.439668)
  44:      3102.78    3.097858  ( -1.230465  -1.163129  -0.480569)
  45:      3123.24    1.232489  (  0.307117   0.436128   0.973633)
  46:      3146.36    3.523159  (  1.153515  -1.339373   0.631381)
  47:      3154.90    5.077240  (  1.294739  -1.726745  -0.647488)
  48:      3203.21    0.397937  ( -0.371313  -0.338917  -0.381051)
  49:      3455.73   69.753260  (  6.011723   1.732120  -5.532830)
  50:      3532.84   79.051766  ( -1.265745   8.450084   2.458810)

--------------------------
THERMOCHEMISTRY AT 298.15K
--------------------------

Temperature         ... 298.15 K
Pressure            ... 1.00 atm
Total Mass          ... 100.14 AMU

Throughout the following assumptions are being made:
  (1) The electronic state is orbitally nondegenerate
  (2) There are no thermally accessible electronically excited states
  (3) Hindered rotations indicated by low frequency modes) are not
      treated as such but are treated as vibrations and this may
      case some error
  (4) All equations used are the standard statistical mechanics
      equations for an ideal gas
  (5) All vibrations are strinctly harmonic

------------
INNER ENERGY
------------

The inner energy is: U= E(el) + E(ZPE) + E(vib) + E(rot) + E(trans)
    E(el)   - is the total energy from the electronic structure calculation
              = E(kin-el) + E(nuc-el) + E(el-el) + E(nuc-nuc)
    E(ZPE)  - the the zero temperature vibrational energy from the frequency calculation
    E(vib)  - the the finite temperature correction to E(ZPE) due to population
              of excietd vibrational states
    E(rot)  - is the rotational thermal energy
    E(trans)- is the translational thermal energy

Summary of contributions to the inner energy U:
Electronic energy                ...   -325.93992226 Eh
Zero point energy                ...      0.15560930 Eh      97.65 kcal/mol
Thermal vibrational correction   ...      0.00305211 Eh       1.92 kcal/mol
Thermal rotational correction    ...      0.00141627 Eh       0.89 kcal/mol
Thermal translational correction ...      0.00141627 Eh       0.89 kcal/mol
-----------------------------------------------------------------------
Total thermal energy                   -325.77842830 Eh

Summary of corrections to the electronic energy:
(perhaps to be used in another calculation)
Total thermal correction                  0.00588465 Eh       3.69 kcal/mol
Non-thermal (ZPE) correction              0.15560930 Eh      97.65 kcal/mol
-----------------------------------------------------------------------
Total correction                          0.16149396 Eh     101.34 kcal/mol

--------
ENTHALPY
--------

The enthalpy is H = U + kB*T
                kB is Boltzmann's constant
Total free energy                 ...   -325.77842830 Eh
Thermal Enthalpy correction       ...      0.00094421 Eh       0.59 kcal/mol
-----------------------------------------------------------------------
Total Enthalpy                    ...   -325.77748410 Eh

-------
ENTROPY
-------

The entropy contributions are T*S = T*(S(el)+S(vib)+S(rot)+S(trans)
     S(el)   - electronic entropy
     S(vib)  - vibrational entropy
     S(rot)  - rotational entropy
     S(trans)- translational entropy
The entropies will be listed as mutliplied by the temperature to get
units of energy

Electronic entropy                ...      0.00000000 Eh      0.00 kcal/mol
Vibrational entropy               ...      0.00476545 Eh      2.99 kcal/mol
Rotational entropy                ...      0.01176700 Eh      7.38 kcal/mol
Translational entropy             ...      0.01887324 Eh     11.84 kcal/mol
-----------------------------------------------------------------------
Final entropy term                ...      0.03540569 Eh     22.22 kcal/mol

CAUTION: The rotational entropy is not quite correctly treated here
         because it includes a symmetry number that is not yet correctly
         implemented in ORCA!
For a nonlinear molecule the correct rotational entropy is:
    S(rot) = R*(ln(qrot/sn)+1.5)
    R    = 8.31441 J/mol/K = 1.987191683e-3 kcal/mol/K
    qrot = 173038.7100623
    sn is the rotational symmetry number. We have assumed 3 here
       if it is different for your molecule then you should correct
       the printed rotational entropy by manually evaluating the equation
       as given above

For convenience we print out the resulting values for sn=1 - 12:
 sn= 1  qrot/sn=  173038.7101 T*S(rot)=     8.03 kcal/mol T*S(tot)=    22.87 kcal/mol
 sn= 2  qrot/sn=   86519.3550 T*S(rot)=     7.62 kcal/mol T*S(tot)=    22.46 kcal/mol
 sn= 3  qrot/sn=   57679.5700 T*S(rot)=     7.38 kcal/mol T*S(tot)=    22.22 kcal/mol
 sn= 4  qrot/sn=   43259.6775 T*S(rot)=     7.21 kcal/mol T*S(tot)=    22.05 kcal/mol
 sn= 5  qrot/sn=   34607.7420 T*S(rot)=     7.08 kcal/mol T*S(tot)=    21.91 kcal/mol
 sn= 6  qrot/sn=   28839.7850 T*S(rot)=     6.97 kcal/mol T*S(tot)=    21.81 kcal/mol
 sn= 7  qrot/sn=   24719.8157 T*S(rot)=     6.88 kcal/mol T*S(tot)=    21.72 kcal/mol
 sn= 8  qrot/sn=   21629.8388 T*S(rot)=     6.80 kcal/mol T*S(tot)=    21.64 kcal/mol
 sn= 9  qrot/sn=   19226.5233 T*S(rot)=     6.73 kcal/mol T*S(tot)=    21.57 kcal/mol
 sn=10  qrot/sn=   17303.8710 T*S(rot)=     6.67 kcal/mol T*S(tot)=    21.50 kcal/mol
 sn=11  qrot/sn=   15730.7918 T*S(rot)=     6.61 kcal/mol T*S(tot)=    21.45 kcal/mol
 sn=12  qrot/sn=   14419.8925 T*S(rot)=     6.56 kcal/mol T*S(tot)=    21.40 kcal/mol

-------------------
GIBBS FREE ENTHALPY
-------------------

The Gibbs free enthalpy is G = H - T*S

Total enthalpy                    ...   -325.77748410 Eh
Total entropy correction          ...     -0.03540569 Eh    -22.22 kcal/mol
-----------------------------------------------------------------------
Final Gibbs free enthalpy         ...   -325.81288979 Eh

For completeness - the Gibbs free enthalpy minus the electronic energy
G-E(el)                           ...      0.12703248 Eh     79.71 kcal/mol

                             ****ORCA TERMINATED NORMALLY****
TOTAL RUN TIME: 0 days 0 hours 39 minutes 22 seconds 44 msec
