                         Program Version 3.0.3 - RELEASE   -
|  1> ! NORI PBE0 def2-TZVP UseSym TightOPT Freq TightSCF Grid3 FinalGrid5 XYZFile
|  2> % pal
|  3>     nprocs 8
|  4> end
|  5> %method
|  6>     SymThresh 5.0e-2
|  7> end
|  8> % geom
|  9>     MaxIter 10
| 10> end
| 11> % maxcore 2000
| 12> % output
| 13>     printlevel mini
| 14>     print[ P_Basis ] 0
| 15>     print[ P_SCFInfo ] 1
| 16>     print[ P_SCFIterInfo ] 1
| 17>     print[ P_OrbEn ] 0
| 18>     print[ P_Cartesian ] 0
| 19> end
| 20> % elprop
| 21>     Dipole false
| 22> end
| 23> *xyz 1 1
| 24>  C       -0.3419762004    -0.9846922234    -0.4703358381
| 25>  O        0.9110323895    -1.4198442306    -0.9697864299
| 26>  C        0.9045731615    -0.3626930547    -0.0319393892
| 27>  C        1.5579313930    -0.6895480351     1.2831031620
| 28>  C        0.8251678322    -0.3461689230     2.5934874940
| 29>  N        1.1346901142    -1.7354830529     3.1208889217
| 30>  C        1.5295868564    -2.1606656937     1.7141671398
| 31>  H       -0.8646363120    -1.6990312659     0.1646371714
| 32>  H       -0.9728552175    -0.4583500534    -1.1801318040
| 33>  H        1.1598756872     0.6113444934    -0.4428875890
| 34>  H        2.5782649841    -0.3010154692     1.2926770423
| 35>  H       -0.2529686382    -0.2434952106     2.4793955882
| 36>  H        1.2167542374     0.4399237803     3.2348737429
| 37>  H        1.9221149828    -1.7429297762     3.7678132281
| 38>  H        0.3656479227    -2.2440133454     3.5548683898
| 39>  H        2.4541735687    -2.7315485325     1.6936861129
| 40>  H        0.7224532383    -2.7390594071     1.2696430571
| 41> *
| 42>
| 43>                          ****END OF INPUT****
 Total Charge           Charge          ....    1
 Multiplicity           Mult            ....    1
 Number of Electrons    NEL             ....   54
FINAL SINGLE POINT ENERGY      -325.953255135501
FINAL SINGLE POINT ENERGY      -325.953257933350
FINAL SINGLE POINT ENERGY      -325.953258881191

CARTESIAN COORDINATES (ANGSTROEM)
---------------------------------
  C     -0.620869    1.151781    1.499186
  O     -0.004230   -0.001561    2.045930
  C     -0.893649   -0.178830    0.962434
  C     -0.253364   -0.698942   -0.296026
  C     -0.560665   -0.008968   -1.638231
  N      0.921514   -0.002751   -1.964913
  C      1.223688   -0.347828   -0.513974
  H      0.047639    1.839041    0.982988
  H     -1.366114    1.627676    2.129352
  H     -1.839817   -0.648089    1.223288
  H     -0.409857   -1.777514   -0.366403
  H     -0.904493    1.018886   -1.534975
  H     -1.149695   -0.534280   -2.386382
  H      1.184874   -0.747785   -2.608247
  H      1.309626    0.870479   -2.318682
  H      1.969074   -1.132872   -0.417273
  H      1.552990    0.546198    0.010758

FINAL SINGLE POINT ENERGY      -325.953259294685
                    ***********************HURRAY********************
 Multiplicity           Mult            ....    1
 Number of Electrons    NEL             ....   54
 Basis Dimension        Dim             ....  277
FINAL SINGLE POINT ENERGY      -325.953259652750

VIBRATIONAL FREQUENCIES
-----------------------

   0:         0.00 cm**-1
   1:         0.00 cm**-1
   2:         0.00 cm**-1
   3:         0.00 cm**-1
   4:         0.00 cm**-1
   5:         0.00 cm**-1
   6:        78.43 cm**-1
   7:        90.89 cm**-1
   8:       197.94 cm**-1
   9:       264.11 cm**-1
  10:       458.63 cm**-1
  11:       537.04 cm**-1
  12:       650.71 cm**-1
  13:       785.71 cm**-1
  14:       825.21 cm**-1
  15:       870.95 cm**-1
  16:       897.24 cm**-1
  17:       904.80 cm**-1
  18:       922.93 cm**-1
  19:       965.39 cm**-1
  20:       988.89 cm**-1
  21:      1010.37 cm**-1
  22:      1072.79 cm**-1
  23:      1084.96 cm**-1
  24:      1135.66 cm**-1
  25:      1151.29 cm**-1
  26:      1174.11 cm**-1
  27:      1179.45 cm**-1
  28:      1254.51 cm**-1
  29:      1280.15 cm**-1
  30:      1285.76 cm**-1
  31:      1307.80 cm**-1
  32:      1315.59 cm**-1
  33:      1328.30 cm**-1
  34:      1336.42 cm**-1
  35:      1405.92 cm**-1
  36:      1447.59 cm**-1
  37:      1480.59 cm**-1
  38:      1499.34 cm**-1
  39:      1538.41 cm**-1
  40:      1650.10 cm**-1
  41:      3100.39 cm**-1
  42:      3103.40 cm**-1
  43:      3122.25 cm**-1
  44:      3135.98 cm**-1
  45:      3148.95 cm**-1
  46:      3195.05 cm**-1
  47:      3202.20 cm**-1
  48:      3205.37 cm**-1
  49:      3471.93 cm**-1
  50:      3538.03 cm**-1

IR SPECTRUM
-----------

 Mode    freq (cm**-1)   T**2         TX         TY         TZ
-------------------------------------------------------------------
   6:        78.43    3.448961  (  0.897578   0.126316  -1.620913)
   7:        90.89    4.644647  (  0.558260   2.080747  -0.059011)
   8:       197.94    9.317613  (  0.907300  -0.289228  -2.900132)
   9:       264.11    1.290527  ( -0.504889   0.079243   1.014561)
  10:       458.63    8.886674  ( -0.455106   0.270994   2.933618)
  11:       537.04    0.564252  (  0.090555   0.744939   0.033438)
  12:       650.71    5.180234  (  0.656996   1.334190   1.722941)
  13:       785.71    8.420255  (  1.217427  -2.573579   0.561085)
  14:       825.21    0.746383  (  0.842404  -0.191666  -0.001679)
  15:       870.95    3.301166  ( -1.650980  -0.359006  -0.668240)
  16:       897.24   12.235312  (  0.244393  -2.918861   1.912024)
  17:       904.80    7.684489  ( -0.128322   2.388233  -1.401558)
  18:       922.93   27.553922  ( -2.306781  -0.586368  -4.678553)
  19:       965.39   15.666326  ( -3.690971   1.424993  -0.111582)
  20:       988.89    2.226439  ( -0.084325  -0.101176  -1.486301)
  21:      1010.37    2.999864  ( -0.896052   0.354686  -1.439150)
  22:      1072.79    0.187395  ( -0.087040   0.335648   0.259151)
  23:      1084.96    8.382279  (  0.617793  -1.715150   2.249194)
  24:      1135.66    4.645336  (  1.634532  -1.179924   0.762508)
  25:      1151.29    4.803692  ( -1.801549   0.349456   1.198329)
  26:      1174.11    2.038639  ( -1.392674  -0.248853   0.192794)
  27:      1179.45    0.240975  ( -0.026627   0.309401  -0.380181)
  28:      1254.51   37.834066  (  5.195785  -1.117417   3.096653)
  29:      1280.15    5.923837  ( -1.768915   1.573054   0.565930)
  30:      1285.76    3.927313  (  0.718359   0.938065   1.591008)
  31:      1307.80   16.520747  (  2.967077  -1.651854   2.233513)
  32:      1315.59    6.330214  ( -2.254672   0.173034  -1.103054)
  33:      1328.30   24.776537  ( -4.339317   0.225240  -2.428195)
  34:      1336.42    1.780663  ( -0.335489  -1.095283   0.684445)
  35:      1405.92    2.069702  (  0.981251   0.921973  -0.506770)
  36:      1447.59    7.475971  (  0.559370  -0.725960   2.576055)
  37:      1480.59   14.242134  (  3.506660  -0.407455   1.333960)
  38:      1499.34    7.156643  (  0.336402   2.191757  -1.496555)
  39:      1538.41    7.558545  ( -1.601315  -1.266073  -1.841574)
  40:      1650.10   61.885036  ( -4.294066  -0.915974   6.527405)
  41:      3100.39    2.726297  ( -0.023085   1.620513   0.315754)
  42:      3103.40   15.803008  (  1.376350   2.845914  -2.410278)
  43:      3122.25    0.785245  (  0.421607  -0.543593   0.558569)
  44:      3135.98    0.664704  ( -0.431303  -0.530843   0.443720)
  45:      3148.95    4.398222  (  1.986652   0.612075   0.277130)
  46:      3195.05    0.240342  ( -0.066279   0.270087  -0.403736)
  47:      3202.20    6.250667  (  2.089457   0.344135  -1.329062)
  48:      3205.37    0.676995  ( -0.352588   0.388268   0.633975)
  49:      3471.93   74.125032  ( -4.675061  -0.961354   7.165517)
  50:      3538.03   90.154142  ( -0.313666  -9.219740  -2.247700)

--------------------------
THERMOCHEMISTRY AT 298.15K
--------------------------

Temperature         ... 298.15 K
Pressure            ... 1.00 atm
Total Mass          ... 100.14 AMU

Throughout the following assumptions are being made:
  (1) The electronic state is orbitally nondegenerate
  (2) There are no thermally accessible electronically excited states
  (3) Hindered rotations indicated by low frequency modes) are not
      treated as such but are treated as vibrations and this may
      case some error
  (4) All equations used are the standard statistical mechanics
      equations for an ideal gas
  (5) All vibrations are strinctly harmonic

------------
INNER ENERGY
------------

The inner energy is: U= E(el) + E(ZPE) + E(vib) + E(rot) + E(trans)
    E(el)   - is the total energy from the electronic structure calculation
              = E(kin-el) + E(nuc-el) + E(el-el) + E(nuc-nuc)
    E(ZPE)  - the the zero temperature vibrational energy from the frequency calculation
    E(vib)  - the the finite temperature correction to E(ZPE) due to population
              of excietd vibrational states
    E(rot)  - is the rotational thermal energy
    E(trans)- is the translational thermal energy

Summary of contributions to the inner energy U:
Electronic energy                ...   -325.95325965 Eh
Zero point energy                ...      0.15400760 Eh      96.64 kcal/mol
Thermal vibrational correction   ...      0.00387811 Eh       2.43 kcal/mol
Thermal rotational correction    ...      0.00141627 Eh       0.89 kcal/mol
Thermal translational correction ...      0.00141627 Eh       0.89 kcal/mol
-----------------------------------------------------------------------
Total thermal energy                   -325.79254140 Eh

Summary of corrections to the electronic energy:
(perhaps to be used in another calculation)
Total thermal correction                  0.00671065 Eh       4.21 kcal/mol
Non-thermal (ZPE) correction              0.15400760 Eh      96.64 kcal/mol
-----------------------------------------------------------------------
Total correction                          0.16071826 Eh     100.85 kcal/mol

--------
ENTHALPY
--------

The enthalpy is H = U + kB*T
                kB is Boltzmann's constant
Total free energy                 ...   -325.79254140 Eh
Thermal Enthalpy correction       ...      0.00094421 Eh       0.59 kcal/mol
-----------------------------------------------------------------------
Total Enthalpy                    ...   -325.79159719 Eh

-------
ENTROPY
-------

The entropy contributions are T*S = T*(S(el)+S(vib)+S(rot)+S(trans)
     S(el)   - electronic entropy
     S(vib)  - vibrational entropy
     S(rot)  - rotational entropy
     S(trans)- translational entropy
The entropies will be listed as mutliplied by the temperature to get
units of energy

Electronic entropy                ...      0.00000000 Eh      0.00 kcal/mol
Vibrational entropy               ...      0.00709361 Eh      4.45 kcal/mol
Rotational entropy                ...      0.01190001 Eh      7.47 kcal/mol
Translational entropy             ...      0.01887324 Eh     11.84 kcal/mol
-----------------------------------------------------------------------
Final entropy term                ...      0.03786686 Eh     23.76 kcal/mol

CAUTION: The rotational entropy is not quite correctly treated here
         because it includes a symmetry number that is not yet correctly
         implemented in ORCA!
For a nonlinear molecule the correct rotational entropy is:
    S(rot) = R*(ln(qrot/sn)+1.5)
    R    = 8.31441 J/mol/K = 1.987191683e-3 kcal/mol/K
    qrot = 199215.1252663
    sn is the rotational symmetry number. We have assumed 3 here
       if it is different for your molecule then you should correct
       the printed rotational entropy by manually evaluating the equation
       as given above

For convenience we print out the resulting values for sn=1 - 12:
 sn= 1  qrot/sn=  199215.1253 T*S(rot)=     8.12 kcal/mol T*S(tot)=    24.41 kcal/mol
 sn= 2  qrot/sn=   99607.5626 T*S(rot)=     7.71 kcal/mol T*S(tot)=    24.00 kcal/mol
 sn= 3  qrot/sn=   66405.0418 T*S(rot)=     7.47 kcal/mol T*S(tot)=    23.76 kcal/mol
 sn= 4  qrot/sn=   49803.7813 T*S(rot)=     7.30 kcal/mol T*S(tot)=    23.59 kcal/mol
 sn= 5  qrot/sn=   39843.0251 T*S(rot)=     7.16 kcal/mol T*S(tot)=    23.46 kcal/mol
 sn= 6  qrot/sn=   33202.5209 T*S(rot)=     7.06 kcal/mol T*S(tot)=    23.35 kcal/mol
 sn= 7  qrot/sn=   28459.3036 T*S(rot)=     6.97 kcal/mol T*S(tot)=    23.26 kcal/mol
 sn= 8  qrot/sn=   24901.8907 T*S(rot)=     6.89 kcal/mol T*S(tot)=    23.18 kcal/mol
 sn= 9  qrot/sn=   22135.0139 T*S(rot)=     6.82 kcal/mol T*S(tot)=    23.11 kcal/mol
 sn=10  qrot/sn=   19921.5125 T*S(rot)=     6.75 kcal/mol T*S(tot)=    23.05 kcal/mol
 sn=11  qrot/sn=   18110.4659 T*S(rot)=     6.70 kcal/mol T*S(tot)=    22.99 kcal/mol
 sn=12  qrot/sn=   16601.2604 T*S(rot)=     6.65 kcal/mol T*S(tot)=    22.94 kcal/mol

-------------------
GIBBS FREE ENTHALPY
-------------------

The Gibbs free enthalpy is G = H - T*S

Total enthalpy                    ...   -325.79159719 Eh
Total entropy correction          ...     -0.03786686 Eh    -23.76 kcal/mol
-----------------------------------------------------------------------
Final Gibbs free enthalpy         ...   -325.82946404 Eh

For completeness - the Gibbs free enthalpy minus the electronic energy
G-E(el)                           ...      0.12379561 Eh     77.68 kcal/mol

                             ****ORCA TERMINATED NORMALLY****
TOTAL RUN TIME: 0 days 0 hours 38 minutes 38 seconds 916 msec
