                         Program Version 3.0.3 - RELEASE   -
|  1> ! NORI PBE0 def2-TZVP UseSym TightOPT Freq TightSCF Grid3 FinalGrid5 XYZFile
|  2> % pal
|  3>     nprocs 8
|  4> end
|  5> %method
|  6>     SymThresh 5.0e-2
|  7> end
|  8> % geom
|  9>     MaxIter 10
| 10> end
| 11> % maxcore 2000
| 12> % output
| 13>     printlevel mini
| 14>     print[ P_Basis ] 0
| 15>     print[ P_SCFInfo ] 1
| 16>     print[ P_SCFIterInfo ] 1
| 17>     print[ P_OrbEn ] 0
| 18>     print[ P_Cartesian ] 0
| 19> end
| 20> % elprop
| 21>     Dipole false
| 22> end
| 23> *xyz 1 1
| 24>  C       -1.1786935423    -0.0006396989     1.0721158182
| 25>  C       -0.6140413163    -1.0001926871     0.0659397577
| 26>  C        0.8709874028    -1.2659864990     0.3149160527
| 27>  N        1.5901562982    -0.0015691125    -0.0740519791
| 28>  C        0.8745238767     1.2628933985     0.3213358038
| 29>  C       -0.6112379358     1.0025039122     0.0710983256
| 30>  O       -0.6888961819     0.0039529428    -0.9751922637
| 31>  H       -0.7998385987    -0.0038143762     2.0941521188
| 32>  H       -2.2669087666     0.0009121522     1.0695506946
| 33>  H       -1.1617989611    -1.9112897859    -0.1707803822
| 34>  H        1.0876350292    -1.4898657819     1.3592527714
| 35>  H        1.2707955887    -2.0618949543    -0.3138805901
| 36>  H        1.6207770421     0.0009959399    -1.0951219531
| 37>  H        2.5511638885    -0.0037654508     0.2667437296
| 38>  H        1.2765062090     2.0608224468    -0.3034980631
| 39>  H        1.0919053117     1.4809123061     1.3667626967
| 40>  H       -1.1564853442     1.9163252480    -0.1608925380
| 41> *
| 42>
| 43>                          ****END OF INPUT****
 Total Charge           Charge          ....    1
 Multiplicity           Mult            ....    1
 Number of Electrons    NEL             ....   54
FINAL SINGLE POINT ENERGY      -325.987830617079

CARTESIAN COORDINATES (ANGSTROEM)
---------------------------------
  C     -0.076184   -1.581855    0.000000
  C      0.416155   -0.540258    1.001349
  C     -0.645207    0.528607    1.264166
  N     -0.738658    1.340931    0.000000
  C     -0.645207    0.528607   -1.264166
  C      0.416155   -0.540258   -1.001349
  O      1.312409    0.000305   -0.000000
  H     -1.129368   -1.862606    0.000000
  H      0.553988   -2.468720    0.000000
  H      0.922974   -0.851038    1.913835
  H     -1.624090    0.102605    1.485100
  H     -0.364793    1.217675    2.061339
  H      0.077858    1.954612    0.000000
  H     -1.571418    1.929581    0.000000
  H     -0.364793    1.217675   -2.061339
  H     -1.624090    0.102605   -1.485100
  H      0.922974   -0.851038   -1.913835

FINAL SINGLE POINT ENERGY      -325.987831263908
                    ***********************HURRAY********************
 Multiplicity           Mult            ....    1
 Number of Electrons    NEL             ....   54
 Basis Dimension        Dim             ....  277
FINAL SINGLE POINT ENERGY      -325.987831531923

VIBRATIONAL FREQUENCIES
-----------------------

   0:         0.00 cm**-1
   1:         0.00 cm**-1
   2:         0.00 cm**-1
   3:         0.00 cm**-1
   4:         0.00 cm**-1
   5:         0.00 cm**-1
   6:       192.41 cm**-1
   7:       293.37 cm**-1
   8:       403.44 cm**-1
   9:       444.55 cm**-1
  10:       556.54 cm**-1
  11:       609.98 cm**-1
  12:       771.47 cm**-1
  13:       814.27 cm**-1
  14:       837.37 cm**-1
  15:       892.29 cm**-1
  16:       894.06 cm**-1
  17:       942.97 cm**-1
  18:       976.59 cm**-1
  19:       983.85 cm**-1
  20:      1006.79 cm**-1
  21:      1019.89 cm**-1
  22:      1038.70 cm**-1
  23:      1094.90 cm**-1
  24:      1141.05 cm**-1
  25:      1152.88 cm**-1
  26:      1173.04 cm**-1
  27:      1251.88 cm**-1
  28:      1267.36 cm**-1
  29:      1289.17 cm**-1
  30:      1292.01 cm**-1
  31:      1342.20 cm**-1
  32:      1345.54 cm**-1
  33:      1380.23 cm**-1
  34:      1400.79 cm**-1
  35:      1417.65 cm**-1
  36:      1446.33 cm**-1
  37:      1487.58 cm**-1
  38:      1492.18 cm**-1
  39:      1505.18 cm**-1
  40:      1608.53 cm**-1
  41:      3101.47 cm**-1
  42:      3101.82 cm**-1
  43:      3108.07 cm**-1
  44:      3144.16 cm**-1
  45:      3145.43 cm**-1
  46:      3163.55 cm**-1
  47:      3163.62 cm**-1
  48:      3179.42 cm**-1
  49:      3455.38 cm**-1
  50:      3516.34 cm**-1

IR SPECTRUM
-----------

 Mode    freq (cm**-1)   T**2         TX         TY         TZ
-------------------------------------------------------------------
   6:       192.41    7.328524  ( -2.659076   0.507777  -0.000002)
   7:       293.37    0.476317  ( -0.000000   0.000004  -0.690157)
   8:       403.44    7.921799  ( -0.980900   2.638112   0.000000)
   9:       444.55   23.561565  ( -3.749695   3.082426   0.000001)
  10:       556.54    2.332791  ( -0.000000   0.000001   1.527348)
  11:       609.98    0.389438  ( -0.110096  -0.614261   0.000005)
  12:       771.47    0.483920  (  0.647363  -0.254638   0.000001)
  13:       814.27    7.184662  ( -2.679864   0.054667   0.000001)
  14:       837.37    0.402457  ( -0.000000   0.000005   0.634395)
  15:       892.29   17.488662  (  2.655035   3.231014   0.000002)
  16:       894.06    6.386243  ( -0.000000   0.000002  -2.527102)
  17:       942.97   15.335214  (  3.906142   0.277975   0.000007)
  18:       976.59   17.184409  (  4.001561   1.082552   0.000004)
  19:       983.85   48.855906  ( -0.000000  -0.000001  -6.989700)
  20:      1006.79    9.071878  ( -0.000000  -0.000001  -3.011956)
  21:      1019.89   14.329189  (  0.000000   0.000001  -3.785391)
  22:      1038.70   17.892458  (  1.686052  -3.879393  -0.000013)
  23:      1094.90    5.008008  ( -2.217504  -0.301137   0.000007)
  24:      1141.05    0.558435  ( -0.050502  -0.745577   0.000009)
  25:      1152.88    0.498483  ( -0.000000   0.000006   0.706033)
  26:      1173.04    5.456949  ( -0.000000  -0.000009  -2.336011)
  27:      1251.88   26.590826  ( -0.000000  -0.000005   5.156629)
  28:      1267.36    2.844662  ( -0.000000   0.000009   1.686612)
  29:      1289.17    0.320530  ( -0.000000  -0.000000   0.566153)
  30:      1292.01    1.679880  (  1.170784   0.556008   0.000014)
  31:      1342.20    0.058638  (  0.000000   0.000009  -0.242152)
  32:      1345.54    4.126490  (  2.030023   0.074150   0.000006)
  33:      1380.23    1.054838  ( -0.025864   1.026727  -0.000009)
  34:      1400.79    3.614170  (  1.580900  -1.055900   0.000004)
  35:      1417.65    6.982975  (  0.000000   0.000001   2.642532)
  36:      1446.33   26.653949  (  0.000000  -0.000001  -5.162746)
  37:      1487.58    9.055283  (  0.151619   3.005378   0.000003)
  38:      1492.18   14.098104  ( -0.000000   0.000000   3.754744)
  39:      1505.18   14.417513  ( -3.795128   0.120478   0.000006)
  40:      1608.53   84.463299  ( -0.290639   9.185795   0.000000)
  41:      3101.47    0.625588  (  0.423666  -0.667904  -0.000008)
  42:      3101.82    0.593241  (  0.000000   0.000001  -0.770222)
  43:      3108.07    6.418254  (  2.333536   0.986338  -0.000002)
  44:      3144.16    9.148711  ( -0.000000   0.000010   3.024684)
  45:      3145.43    0.289555  ( -0.278010  -0.460723   0.000005)
  46:      3163.55    0.185977  ( -0.005205  -0.431219  -0.000011)
  47:      3163.62    0.102915  ( -0.000000  -0.000002  -0.320803)
  48:      3179.42    1.454721  ( -1.153785  -0.351429  -0.000002)
  49:      3455.38   65.712308  ( -1.575341  -7.951768   0.000000)
  50:      3516.34   91.840677  ( -9.474814   1.438257   0.000000)

--------------------------
THERMOCHEMISTRY AT 298.15K
--------------------------

Temperature         ... 298.15 K
Pressure            ... 1.00 atm
Total Mass          ... 100.14 AMU

Throughout the following assumptions are being made:
  (1) The electronic state is orbitally nondegenerate
  (2) There are no thermally accessible electronically excited states
  (3) Hindered rotations indicated by low frequency modes) are not
      treated as such but are treated as vibrations and this may
      case some error
  (4) All equations used are the standard statistical mechanics
      equations for an ideal gas
  (5) All vibrations are strinctly harmonic

------------
INNER ENERGY
------------

The inner energy is: U= E(el) + E(ZPE) + E(vib) + E(rot) + E(trans)
    E(el)   - is the total energy from the electronic structure calculation
              = E(kin-el) + E(nuc-el) + E(el-el) + E(nuc-nuc)
    E(ZPE)  - the the zero temperature vibrational energy from the frequency calculation
    E(vib)  - the the finite temperature correction to E(ZPE) due to population
              of excietd vibrational states
    E(rot)  - is the rotational thermal energy
    E(trans)- is the translational thermal energy

Summary of contributions to the inner energy U:
Electronic energy                ...   -325.98783153 Eh
Zero point energy                ...      0.15684347 Eh      98.42 kcal/mol
Thermal vibrational correction   ...      0.00268422 Eh       1.68 kcal/mol
Thermal rotational correction    ...      0.00141627 Eh       0.89 kcal/mol
Thermal translational correction ...      0.00141627 Eh       0.89 kcal/mol
-----------------------------------------------------------------------
Total thermal energy                   -325.82547129 Eh

Summary of corrections to the electronic energy:
(perhaps to be used in another calculation)
Total thermal correction                  0.00551677 Eh       3.46 kcal/mol
Non-thermal (ZPE) correction              0.15684347 Eh      98.42 kcal/mol
-----------------------------------------------------------------------
Total correction                          0.16236024 Eh     101.88 kcal/mol

--------
ENTHALPY
--------

The enthalpy is H = U + kB*T
                kB is Boltzmann's constant
Total free energy                 ...   -325.82547129 Eh
Thermal Enthalpy correction       ...      0.00094421 Eh       0.59 kcal/mol
-----------------------------------------------------------------------
Total Enthalpy                    ...   -325.82452708 Eh

-------
ENTROPY
-------

The entropy contributions are T*S = T*(S(el)+S(vib)+S(rot)+S(trans)
     S(el)   - electronic entropy
     S(vib)  - vibrational entropy
     S(rot)  - rotational entropy
     S(trans)- translational entropy
The entropies will be listed as mutliplied by the temperature to get
units of energy

Electronic entropy                ...      0.00000000 Eh      0.00 kcal/mol
Vibrational entropy               ...      0.00396678 Eh      2.49 kcal/mol
Rotational entropy                ...      0.01160391 Eh      7.28 kcal/mol
Translational entropy             ...      0.01887324 Eh     11.84 kcal/mol
-----------------------------------------------------------------------
Final entropy term                ...      0.03444392 Eh     21.61 kcal/mol

CAUTION: The rotational entropy is not quite correctly treated here
         because it includes a symmetry number that is not yet correctly
         implemented in ORCA!
For a nonlinear molecule the correct rotational entropy is:
    S(rot) = R*(ln(qrot/sn)+1.5)
    R    = 8.31441 J/mol/K = 1.987191683e-3 kcal/mol/K
    qrot = 145587.6184951
    sn is the rotational symmetry number. We have assumed 3 here
       if it is different for your molecule then you should correct
       the printed rotational entropy by manually evaluating the equation
       as given above

For convenience we print out the resulting values for sn=1 - 12:
 sn= 1  qrot/sn=  145587.6185 T*S(rot)=     7.93 kcal/mol T*S(tot)=    22.26 kcal/mol
 sn= 2  qrot/sn=   72793.8092 T*S(rot)=     7.52 kcal/mol T*S(tot)=    21.85 kcal/mol
 sn= 3  qrot/sn=   48529.2062 T*S(rot)=     7.28 kcal/mol T*S(tot)=    21.61 kcal/mol
 sn= 4  qrot/sn=   36396.9046 T*S(rot)=     7.11 kcal/mol T*S(tot)=    21.44 kcal/mol
 sn= 5  qrot/sn=   29117.5237 T*S(rot)=     6.98 kcal/mol T*S(tot)=    21.31 kcal/mol
 sn= 6  qrot/sn=   24264.6031 T*S(rot)=     6.87 kcal/mol T*S(tot)=    21.20 kcal/mol
 sn= 7  qrot/sn=   20798.2312 T*S(rot)=     6.78 kcal/mol T*S(tot)=    21.11 kcal/mol
 sn= 8  qrot/sn=   18198.4523 T*S(rot)=     6.70 kcal/mol T*S(tot)=    21.03 kcal/mol
 sn= 9  qrot/sn=   16176.4021 T*S(rot)=     6.63 kcal/mol T*S(tot)=    20.96 kcal/mol
 sn=10  qrot/sn=   14558.7618 T*S(rot)=     6.57 kcal/mol T*S(tot)=    20.90 kcal/mol
 sn=11  qrot/sn=   13235.2380 T*S(rot)=     6.51 kcal/mol T*S(tot)=    20.84 kcal/mol
 sn=12  qrot/sn=   12132.3015 T*S(rot)=     6.46 kcal/mol T*S(tot)=    20.79 kcal/mol

-------------------
GIBBS FREE ENTHALPY
-------------------

The Gibbs free enthalpy is G = H - T*S

Total enthalpy                    ...   -325.82452708 Eh
Total entropy correction          ...     -0.03444392 Eh    -21.61 kcal/mol
-----------------------------------------------------------------------
Final Gibbs free enthalpy         ...   -325.85897101 Eh

For completeness - the Gibbs free enthalpy minus the electronic energy
G-E(el)                           ...      0.12886052 Eh     80.86 kcal/mol

                             ****ORCA TERMINATED NORMALLY****
TOTAL RUN TIME: 0 days 0 hours 42 minutes 49 seconds 361 msec
