                         Program Version 3.0.3 - RELEASE   -
|  1> ! NORI PBE0 def2-TZVP UseSym TightOPT Freq TightSCF Grid3 FinalGrid5 XYZFile
|  2> % pal
|  3>     nprocs 8
|  4> end
|  5> %method
|  6>     SymThresh 5.0e-2
|  7> end
|  8> % geom
|  9>     MaxIter 10
| 10> end
| 11> % maxcore 2000
| 12> % output
| 13>     printlevel mini
| 14>     print[ P_Basis ] 0
| 15>     print[ P_SCFInfo ] 1
| 16>     print[ P_SCFIterInfo ] 1
| 17>     print[ P_OrbEn ] 0
| 18>     print[ P_Cartesian ] 0
| 19> end
| 20> % elprop
| 21>     Dipole false
| 22> end
| 23> *xyz 1 1
| 24>  C       -1.7941644333     0.6701741177     0.3310500712
| 25>  O       -1.7158440233    -0.6234657197    -0.3495713502
| 26>  C       -0.3515605738    -0.6674371282     0.0400613250
| 27>  C        0.9021289842    -1.0509971226    -0.7067212182
| 28>  N        1.8553600073    -0.0404494498    -0.0163821848
| 29>  C        1.0375949320     1.0805316204     0.7179435557
| 30>  C       -0.2834701714     0.8289247058     0.0602893061
| 31>  H       -2.0659923492     0.5397210322     1.3816941576
| 32>  H       -2.4680423380     1.3568932605    -0.1755985851
| 33>  H       -0.2875253262    -1.0885671859     1.0578571878
| 34>  H        1.3019053058    -2.0509418122    -0.5456528280
| 35>  H        0.8637155315    -0.8200866765    -1.7702614618
| 36>  H        2.4742121204     0.3797602510    -0.7080364991
| 37>  H        2.4563525437    -0.5247190662     0.6489923440
| 38>  H        1.0718111977     0.8597558136     1.7839418034
| 39>  H        1.5315149425     2.0285241793     0.5138767238
| 40>  H       -0.2189563500     1.1701691807    -0.9783123472
| 41> *
| 42>
| 43>                          ****END OF INPUT****
 Total Charge           Charge          ....    1
 Multiplicity           Mult            ....    1
 Number of Electrons    NEL             ....   54
FINAL SINGLE POINT ENERGY      -325.939190432639

CARTESIAN COORDINATES (ANGSTROEM)
---------------------------------
  C     -1.372009   -0.022820    1.331828
  O      0.000060    0.000270    1.841561
  C      0.407368    0.358030    0.529669
  C      1.543060   -0.117906   -0.342374
  N      0.805183   -0.000109   -1.701982
  C     -0.745762    0.110012   -1.483654
  C     -0.780111   -0.342133   -0.056781
  H     -1.836147    0.962810    1.423102
  H     -1.971284   -0.794319    1.809388
  H      0.325132    1.452855    0.419282
  H      2.436899    0.501584   -0.392629
  H      1.808154   -1.161527   -0.181497
  H      1.016154   -0.810845   -2.281794
  H      1.142833    0.813652   -2.214060
  H     -1.021343    1.151199   -1.644186
  H     -1.223927   -0.524834   -2.226786
  H     -0.573463   -1.417487   -0.033365

FINAL SINGLE POINT ENERGY      -325.939191210393
                    ***********************HURRAY********************
 Multiplicity           Mult            ....    1
 Number of Electrons    NEL             ....   54
 Basis Dimension        Dim             ....  277
FINAL SINGLE POINT ENERGY      -325.939191519240

VIBRATIONAL FREQUENCIES
-----------------------

   0:         0.00 cm**-1
   1:         0.00 cm**-1
   2:         0.00 cm**-1
   3:         0.00 cm**-1
   4:         0.00 cm**-1
   5:         0.00 cm**-1
   6:       153.61 cm**-1
   7:       271.29 cm**-1
   8:       311.70 cm**-1
   9:       407.33 cm**-1
  10:       520.67 cm**-1
  11:       613.75 cm**-1
  12:       692.69 cm**-1
  13:       771.47 cm**-1
  14:       786.22 cm**-1
  15:       814.02 cm**-1
  16:       863.51 cm**-1
  17:       932.02 cm**-1
  18:       955.40 cm**-1
  19:       960.73 cm**-1
  20:      1037.42 cm**-1
  21:      1053.12 cm**-1
  22:      1085.26 cm**-1
  23:      1151.96 cm**-1
  24:      1169.12 cm**-1
  25:      1200.28 cm**-1
  26:      1216.97 cm**-1
  27:      1225.69 cm**-1
  28:      1264.56 cm**-1
  29:      1293.99 cm**-1
  30:      1300.69 cm**-1
  31:      1303.03 cm**-1
  32:      1341.17 cm**-1
  33:      1359.60 cm**-1
  34:      1371.17 cm**-1
  35:      1434.79 cm**-1
  36:      1440.46 cm**-1
  37:      1498.52 cm**-1
  38:      1500.69 cm**-1
  39:      1509.76 cm**-1
  40:      1641.14 cm**-1
  41:      2970.41 cm**-1
  42:      3060.85 cm**-1
  43:      3080.06 cm**-1
  44:      3117.73 cm**-1
  45:      3119.39 cm**-1
  46:      3179.73 cm**-1
  47:      3187.47 cm**-1
  48:      3188.69 cm**-1
  49:      3481.96 cm**-1
  50:      3539.82 cm**-1

IR SPECTRUM
-----------

 Mode    freq (cm**-1)   T**2         TX         TY         TZ
-------------------------------------------------------------------
   6:       153.61    3.360478  (  0.145782   1.827305   0.013469)
   7:       271.29    5.548285  (  0.357543   2.293642  -0.399569)
   8:       311.70    0.491628  ( -0.023755   0.296027   0.635162)
   9:       407.33    7.205075  (  0.095398  -0.326861  -2.662543)
  10:       520.67    5.908536  (  1.224413  -0.953756  -1.870748)
  11:       613.75    2.500293  (  0.675608   0.916623  -1.097110)
  12:       692.69    6.829106  (  0.291841  -1.195080  -2.305584)
  13:       771.47    5.645749  ( -2.200762  -0.843297  -0.302071)
  14:       786.22    6.688782  (  0.119543   2.583370  -0.026296)
  15:       814.02   23.223907  (  3.231030  -0.320079   3.561166)
  16:       863.51   12.576614  ( -3.191546  -0.969776   1.204235)
  17:       932.02   12.772280  (  2.979890  -0.162288   1.966265)
  18:       955.40   17.362588  ( -4.035364   0.399650   0.958491)
  19:       960.73   12.655984  ( -3.387798  -0.102154  -1.080913)
  20:      1037.42    7.375632  ( -2.709697  -0.062286  -0.171154)
  21:      1053.12    5.157301  ( -1.229798  -1.474360   1.212914)
  22:      1085.26   13.829693  (  1.262342  -0.240693  -3.489735)
  23:      1151.96   12.264552  ( -2.604845   0.944506   2.141785)
  24:      1169.12   28.938515  (  2.850923   2.319395  -3.928251)
  25:      1200.28    5.669194  (  0.787785  -2.246775   0.024313)
  26:      1216.97    1.786782  (  0.504905   1.237082  -0.038483)
  27:      1225.69    3.261305  (  0.543756  -1.713247   0.174416)
  28:      1264.56   13.602815  (  3.587207   0.306971   0.800329)
  29:      1293.99    5.599564  (  2.252014   0.457048  -0.564894)
  30:      1300.69   12.901468  ( -3.390330  -0.660924   0.985043)
  31:      1303.03    3.422463  ( -1.667723   0.269149  -0.754137)
  32:      1341.17    2.376790  ( -1.195742  -0.410453  -0.882337)
  33:      1359.60   37.711504  (  4.844384  -0.057443   3.773612)
  34:      1371.17    0.182104  (  0.372122  -0.052118  -0.202271)
  35:      1434.79    6.325936  ( -1.574663  -0.029164   1.961000)
  36:      1440.46    2.348533  ( -0.884612   0.404288   1.184291)
  37:      1498.52   11.043727  ( -2.232899   2.174218  -1.153545)
  38:      1500.69    4.121085  (  1.258331  -0.617564  -1.468435)
  39:      1509.76    2.389765  ( -0.907186   1.248961   0.082913)
  40:      1641.14   64.725825  (  3.494254  -0.011981  -7.246783)
  41:      2970.41   22.713969  ( -0.617072  -4.231156   2.104878)
  42:      3060.85    1.859984  (  0.066446   1.335227   0.269701)
  43:      3080.06   20.310879  ( -3.579544   2.510870   1.092372)
  44:      3117.73    0.847102  ( -0.806271   0.329132   0.297828)
  45:      3119.39    2.519690  (  0.268453  -0.685060   1.406526)
  46:      3179.73    3.258019  (  0.874543   1.372392  -0.780855)
  47:      3187.47    0.374722  (  0.145940  -0.314731  -0.504348)
  48:      3188.69    0.329055  (  0.523047   0.128305  -0.197520)
  49:      3481.96   79.183895  ( -4.037992  -0.141632   7.928333)
  50:      3539.82   87.450746  ( -0.460506  -9.312397  -0.719683)

--------------------------
THERMOCHEMISTRY AT 298.15K
--------------------------

Temperature         ... 298.15 K
Pressure            ... 1.00 atm
Total Mass          ... 100.14 AMU

Throughout the following assumptions are being made:
  (1) The electronic state is orbitally nondegenerate
  (2) There are no thermally accessible electronically excited states
  (3) Hindered rotations indicated by low frequency modes) are not
      treated as such but are treated as vibrations and this may
      case some error
  (4) All equations used are the standard statistical mechanics
      equations for an ideal gas
  (5) All vibrations are strinctly harmonic

------------
INNER ENERGY
------------

The inner energy is: U= E(el) + E(ZPE) + E(vib) + E(rot) + E(trans)
    E(el)   - is the total energy from the electronic structure calculation
              = E(kin-el) + E(nuc-el) + E(el-el) + E(nuc-nuc)
    E(ZPE)  - the the zero temperature vibrational energy from the frequency calculation
    E(vib)  - the the finite temperature correction to E(ZPE) due to population
              of excietd vibrational states
    E(rot)  - is the rotational thermal energy
    E(trans)- is the translational thermal energy

Summary of contributions to the inner energy U:
Electronic energy                ...   -325.93919152 Eh
Zero point energy                ...      0.15578090 Eh      97.75 kcal/mol
Thermal vibrational correction   ...      0.00299862 Eh       1.88 kcal/mol
Thermal rotational correction    ...      0.00141627 Eh       0.89 kcal/mol
Thermal translational correction ...      0.00141627 Eh       0.89 kcal/mol
-----------------------------------------------------------------------
Total thermal energy                   -325.77757945 Eh

Summary of corrections to the electronic energy:
(perhaps to be used in another calculation)
Total thermal correction                  0.00583116 Eh       3.66 kcal/mol
Non-thermal (ZPE) correction              0.15578090 Eh      97.75 kcal/mol
-----------------------------------------------------------------------
Total correction                          0.16161207 Eh     101.41 kcal/mol

--------
ENTHALPY
--------

The enthalpy is H = U + kB*T
                kB is Boltzmann's constant
Total free energy                 ...   -325.77757945 Eh
Thermal Enthalpy correction       ...      0.00094421 Eh       0.59 kcal/mol
-----------------------------------------------------------------------
Total Enthalpy                    ...   -325.77663524 Eh

-------
ENTROPY
-------

The entropy contributions are T*S = T*(S(el)+S(vib)+S(rot)+S(trans)
     S(el)   - electronic entropy
     S(vib)  - vibrational entropy
     S(rot)  - rotational entropy
     S(trans)- translational entropy
The entropies will be listed as mutliplied by the temperature to get
units of energy

Electronic entropy                ...      0.00000000 Eh      0.00 kcal/mol
Vibrational entropy               ...      0.00460595 Eh      2.89 kcal/mol
Rotational entropy                ...      0.01176843 Eh      7.38 kcal/mol
Translational entropy             ...      0.01887324 Eh     11.84 kcal/mol
-----------------------------------------------------------------------
Final entropy term                ...      0.03524762 Eh     22.12 kcal/mol

CAUTION: The rotational entropy is not quite correctly treated here
         because it includes a symmetry number that is not yet correctly
         implemented in ORCA!
For a nonlinear molecule the correct rotational entropy is:
    S(rot) = R*(ln(qrot/sn)+1.5)
    R    = 8.31441 J/mol/K = 1.987191683e-3 kcal/mol/K
    qrot = 173300.6838703
    sn is the rotational symmetry number. We have assumed 3 here
       if it is different for your molecule then you should correct
       the printed rotational entropy by manually evaluating the equation
       as given above

For convenience we print out the resulting values for sn=1 - 12:
 sn= 1  qrot/sn=  173300.6839 T*S(rot)=     8.04 kcal/mol T*S(tot)=    22.77 kcal/mol
 sn= 2  qrot/sn=   86650.3419 T*S(rot)=     7.63 kcal/mol T*S(tot)=    22.36 kcal/mol
 sn= 3  qrot/sn=   57766.8946 T*S(rot)=     7.38 kcal/mol T*S(tot)=    22.12 kcal/mol
 sn= 4  qrot/sn=   43325.1710 T*S(rot)=     7.21 kcal/mol T*S(tot)=    21.95 kcal/mol
 sn= 5  qrot/sn=   34660.1368 T*S(rot)=     7.08 kcal/mol T*S(tot)=    21.82 kcal/mol
 sn= 6  qrot/sn=   28883.4473 T*S(rot)=     6.97 kcal/mol T*S(tot)=    21.71 kcal/mol
 sn= 7  qrot/sn=   24757.2406 T*S(rot)=     6.88 kcal/mol T*S(tot)=    21.62 kcal/mol
 sn= 8  qrot/sn=   21662.5855 T*S(rot)=     6.80 kcal/mol T*S(tot)=    21.54 kcal/mol
 sn= 9  qrot/sn=   19255.6315 T*S(rot)=     6.73 kcal/mol T*S(tot)=    21.47 kcal/mol
 sn=10  qrot/sn=   17330.0684 T*S(rot)=     6.67 kcal/mol T*S(tot)=    21.40 kcal/mol
 sn=11  qrot/sn=   15754.6076 T*S(rot)=     6.61 kcal/mol T*S(tot)=    21.35 kcal/mol
 sn=12  qrot/sn=   14441.7237 T*S(rot)=     6.56 kcal/mol T*S(tot)=    21.30 kcal/mol

-------------------
GIBBS FREE ENTHALPY
-------------------

The Gibbs free enthalpy is G = H - T*S

Total enthalpy                    ...   -325.77663524 Eh
Total entropy correction          ...     -0.03524762 Eh    -22.12 kcal/mol
-----------------------------------------------------------------------
Final Gibbs free enthalpy         ...   -325.81188287 Eh

For completeness - the Gibbs free enthalpy minus the electronic energy
G-E(el)                           ...      0.12730865 Eh     79.89 kcal/mol

                             ****ORCA TERMINATED NORMALLY****
TOTAL RUN TIME: 0 days 0 hours 39 minutes 18 seconds 299 msec
