                         Program Version 3.0.3 - RELEASE   -
|  1> ! NORI PBE0 def2-TZVP UseSym TightOPT Freq TightSCF Grid3 FinalGrid5 XYZFile
|  2> % pal
|  3>     nprocs 8
|  4> end
|  5> %method
|  6>     SymThresh 5.0e-2
|  7> end
|  8> % geom
|  9>     MaxIter 10
| 10> end
| 11> % maxcore 2000
| 12> % output
| 13>     printlevel mini
| 14>     print[ P_Basis ] 0
| 15>     print[ P_SCFInfo ] 1
| 16>     print[ P_SCFIterInfo ] 1
| 17>     print[ P_OrbEn ] 0
| 18>     print[ P_Cartesian ] 0
| 19> end
| 20> % elprop
| 21>     Dipole false
| 22> end
| 23> *xyz 1 1
| 24>  C       -1.1823120889     0.0013596924     1.0637871861
| 25>  C       -0.6253880842    -1.0369635966     0.0793751841
| 26>  C        0.8745852110    -1.1815248999     0.2677247251
| 27>  O        1.4252459860     0.0003887506     0.7919529253
| 28>  C        0.8750300570     1.1806993612     0.2636621129
| 29>  C       -0.6249947137     1.0360440262     0.0757960292
| 30>  N       -0.8269854767    -0.0023340664    -1.0287546992
| 31>  H       -0.7533990757     0.0030077162     2.0623371810
| 32>  H       -2.2711802164     0.0016408589     1.1105242450
| 33>  H       -1.1383006525    -1.9784709871    -0.1073042509
| 34>  H        1.3525216661    -1.4682497736    -0.6816501790
| 35>  H        1.0716542304    -1.9743190641     0.9916039606
| 36>  H        1.0723153773     1.9758983934     0.9848341111
| 37>  H        1.3531177685     1.4639967258    -0.6866649854
| 38>  H       -1.1375140687     1.9771054657    -0.1141674515
| 39>  H       -1.7765516332    -0.0027732763    -1.4001426484
| 40>  H       -0.1599042862    -0.0037953261    -1.8031734459
| 41> *
| 42>
| 43>                          ****END OF INPUT****
 Total Charge           Charge          ....    1
 Multiplicity           Mult            ....    1
 Number of Electrons    NEL             ....   54
FINAL SINGLE POINT ENERGY      -325.987598416854

CARTESIAN COORDINATES (ANGSTROEM)
---------------------------------
  C     -0.759767    1.259838    0.000000
  C     -0.628061    0.135055    1.036567
  C      0.827882   -0.272105    1.181062
  O      1.539072   -0.000071    0.000000
  C      0.827882   -0.272105   -1.181061
  C     -0.628061    0.135055   -1.036567
  N     -1.242149   -0.807030   -0.000000
  H      0.022288    2.014485    0.000000
  H     -1.745538    1.724543    0.000000
  H     -1.173658    0.159912    1.977684
  H      0.900909   -1.332949    1.466551
  H      1.289308    0.317794    1.975014
  H      1.289308    0.317794   -1.975014
  H      0.900909   -1.332949   -1.466551
  H     -1.173658    0.159912   -1.977684
  H     -2.261470   -0.781873   -0.000000
  H     -0.926770   -1.779120   -0.000000

FINAL SINGLE POINT ENERGY      -325.987598787160
                    ***********************HURRAY********************
 Multiplicity           Mult            ....    1
 Number of Electrons    NEL             ....   54
 Basis Dimension        Dim             ....  277
FINAL SINGLE POINT ENERGY      -325.987598897858

VIBRATIONAL FREQUENCIES
-----------------------

   0:         0.00 cm**-1
   1:         0.00 cm**-1
   2:         0.00 cm**-1
   3:         0.00 cm**-1
   4:         0.00 cm**-1
   5:         0.00 cm**-1
   6:       223.60 cm**-1
   7:       320.46 cm**-1
   8:       398.90 cm**-1
   9:       423.39 cm**-1
  10:       540.65 cm**-1
  11:       608.76 cm**-1
  12:       793.39 cm**-1
  13:       822.19 cm**-1
  14:       856.49 cm**-1
  15:       870.52 cm**-1
  16:       902.81 cm**-1
  17:       913.17 cm**-1
  18:       968.35 cm**-1
  19:       971.73 cm**-1
  20:       989.18 cm**-1
  21:      1064.84 cm**-1
  22:      1093.62 cm**-1
  23:      1101.21 cm**-1
  24:      1127.19 cm**-1
  25:      1134.48 cm**-1
  26:      1179.75 cm**-1
  27:      1225.42 cm**-1
  28:      1260.74 cm**-1
  29:      1266.54 cm**-1
  30:      1274.46 cm**-1
  31:      1297.39 cm**-1
  32:      1331.18 cm**-1
  33:      1355.06 cm**-1
  34:      1367.69 cm**-1
  35:      1386.95 cm**-1
  36:      1415.76 cm**-1
  37:      1486.56 cm**-1
  38:      1490.58 cm**-1
  39:      1496.43 cm**-1
  40:      1641.70 cm**-1
  41:      2998.79 cm**-1
  42:      3003.51 cm**-1
  43:      3117.19 cm**-1
  44:      3126.20 cm**-1
  45:      3127.83 cm**-1
  46:      3161.19 cm**-1
  47:      3161.93 cm**-1
  48:      3193.44 cm**-1
  49:      3434.46 cm**-1
  50:      3521.50 cm**-1

IR SPECTRUM
-----------

 Mode    freq (cm**-1)   T**2         TX         TY         TZ
-------------------------------------------------------------------
   6:       223.60    5.467064  ( -0.218191   2.327973  -0.000001)
   7:       320.46    0.015669  ( -0.000002   0.000025  -0.125178)
   8:       398.90    4.280271  ( -1.432966   1.492273   0.000001)
   9:       423.39    8.789516  (  2.817342  -0.923094   0.000002)
  10:       540.65    0.646494  ( -0.000004   0.000002   0.804049)
  11:       608.76    1.471450  ( -1.212418  -0.038649   0.000001)
  12:       793.39    3.339958  ( -0.000001   0.000006  -1.827555)
  13:       822.19    8.475334  (  2.502946   1.486807   0.000001)
  14:       856.49    1.101532  (  0.770591   0.712546  -0.000000)
  15:       870.52    0.834732  ( -0.000002  -0.000009   0.913637)
  16:       902.81    7.804850  (  0.570516  -2.734842  -0.000007)
  17:       913.17   24.226521  (  4.919378   0.161977  -0.000002)
  18:       968.35    0.268210  (  0.000033   0.000010  -0.517890)
  19:       971.73   17.028345  (  3.952913   1.184410   0.000005)
  20:       989.18    3.407036  (  0.000004   0.000000   1.845816)
  21:      1064.84    0.784975  (  0.878231  -0.116983  -0.000003)
  22:      1093.62    0.840446  (  0.041621  -0.915813   0.000020)
  23:      1101.21   22.246226  (  0.000002  -0.000008  -4.716591)
  24:      1127.19   10.641441  ( -0.000017   0.000019  -3.262122)
  25:      1134.48   13.659514  ( -2.583567   2.642857   0.000015)
  26:      1179.75   27.938250  ( -0.000005   0.000006   5.285665)
  27:      1225.42   24.420221  ( -0.000001   0.000003   4.941682)
  28:      1260.74  104.604627  ( -0.000026   0.000046 -10.227640)
  29:      1266.54    4.580597  ( -1.040493   1.870287   0.000243)
  30:      1274.46    4.098941  (  0.000003  -0.000005   2.024584)
  31:      1297.39   20.645449  ( -0.000001   0.000002  -4.543726)
  32:      1331.18    1.775682  ( -1.269069  -0.406382  -0.000008)
  33:      1355.06    0.012371  ( -0.000001   0.000001   0.111226)
  34:      1367.69    1.418237  ( -0.563352   1.049224  -0.000006)
  35:      1386.95    5.197053  ( -0.000003   0.000003   2.279705)
  36:      1415.76    1.367552  ( -0.067080  -1.167498   0.000003)
  37:      1486.56   16.448141  (  0.544618  -4.018897  -0.000033)
  38:      1490.58    4.708056  ( -0.000176   0.000032   2.169806)
  39:      1496.43    7.753380  (  2.511339  -1.202728   0.000158)
  40:      1641.70   70.677930  (  5.206818   6.600529  -0.000000)
  41:      2998.79   20.134962  (  0.000073   0.000608  -4.487200)
  42:      3003.51   33.950748  ( -0.717675  -5.782360  -0.000470)
  43:      3117.19    2.233239  ( -1.457814   0.328660  -0.000000)
  44:      3126.20    0.443152  (  0.000014  -0.000002  -0.665696)
  45:      3127.83    1.421573  (  1.055352  -0.554802   0.000005)
  46:      3161.19    0.106750  (  0.048286   0.323138   0.000001)
  47:      3161.93    1.807902  ( -0.000000   0.000000  -1.344582)
  48:      3193.44    0.330144  ( -0.460878  -0.343126   0.000000)
  49:      3434.46   40.839768  (  3.038211   5.622192   0.000000)
  50:      3521.50   71.893905  (  8.108318  -2.479735   0.000000)

--------------------------
THERMOCHEMISTRY AT 298.15K
--------------------------

Temperature         ... 298.15 K
Pressure            ... 1.00 atm
Total Mass          ... 100.14 AMU

Throughout the following assumptions are being made:
  (1) The electronic state is orbitally nondegenerate
  (2) There are no thermally accessible electronically excited states
  (3) Hindered rotations indicated by low frequency modes) are not
      treated as such but are treated as vibrations and this may
      case some error
  (4) All equations used are the standard statistical mechanics
      equations for an ideal gas
  (5) All vibrations are strinctly harmonic

------------
INNER ENERGY
------------

The inner energy is: U= E(el) + E(ZPE) + E(vib) + E(rot) + E(trans)
    E(el)   - is the total energy from the electronic structure calculation
              = E(kin-el) + E(nuc-el) + E(el-el) + E(nuc-nuc)
    E(ZPE)  - the the zero temperature vibrational energy from the frequency calculation
    E(vib)  - the the finite temperature correction to E(ZPE) due to population
              of excietd vibrational states
    E(rot)  - is the rotational thermal energy
    E(trans)- is the translational thermal energy

Summary of contributions to the inner energy U:
Electronic energy                ...   -325.98759890 Eh
Zero point energy                ...      0.15593418 Eh      97.85 kcal/mol
Thermal vibrational correction   ...      0.00263737 Eh       1.65 kcal/mol
Thermal rotational correction    ...      0.00141627 Eh       0.89 kcal/mol
Thermal translational correction ...      0.00141627 Eh       0.89 kcal/mol
-----------------------------------------------------------------------
Total thermal energy                   -325.82619481 Eh

Summary of corrections to the electronic energy:
(perhaps to be used in another calculation)
Total thermal correction                  0.00546991 Eh       3.43 kcal/mol
Non-thermal (ZPE) correction              0.15593418 Eh      97.85 kcal/mol
-----------------------------------------------------------------------
Total correction                          0.16140409 Eh     101.28 kcal/mol

--------
ENTHALPY
--------

The enthalpy is H = U + kB*T
                kB is Boltzmann's constant
Total free energy                 ...   -325.82619481 Eh
Thermal Enthalpy correction       ...      0.00094421 Eh       0.59 kcal/mol
-----------------------------------------------------------------------
Total Enthalpy                    ...   -325.82525060 Eh

-------
ENTROPY
-------

The entropy contributions are T*S = T*(S(el)+S(vib)+S(rot)+S(trans)
     S(el)   - electronic entropy
     S(vib)  - vibrational entropy
     S(rot)  - rotational entropy
     S(trans)- translational entropy
The entropies will be listed as mutliplied by the temperature to get
units of energy

Electronic entropy                ...      0.00000000 Eh      0.00 kcal/mol
Vibrational entropy               ...      0.00382273 Eh      2.40 kcal/mol
Rotational entropy                ...      0.01160237 Eh      7.28 kcal/mol
Translational entropy             ...      0.01887324 Eh     11.84 kcal/mol
-----------------------------------------------------------------------
Final entropy term                ...      0.03429833 Eh     21.52 kcal/mol

CAUTION: The rotational entropy is not quite correctly treated here
         because it includes a symmetry number that is not yet correctly
         implemented in ORCA!
For a nonlinear molecule the correct rotational entropy is:
    S(rot) = R*(ln(qrot/sn)+1.5)
    R    = 8.31441 J/mol/K = 1.987191683e-3 kcal/mol/K
    qrot = 145350.0712727
    sn is the rotational symmetry number. We have assumed 3 here
       if it is different for your molecule then you should correct
       the printed rotational entropy by manually evaluating the equation
       as given above

For convenience we print out the resulting values for sn=1 - 12:
 sn= 1  qrot/sn=  145350.0713 T*S(rot)=     7.93 kcal/mol T*S(tot)=    22.17 kcal/mol
 sn= 2  qrot/sn=   72675.0356 T*S(rot)=     7.52 kcal/mol T*S(tot)=    21.76 kcal/mol
 sn= 3  qrot/sn=   48450.0238 T*S(rot)=     7.28 kcal/mol T*S(tot)=    21.52 kcal/mol
 sn= 4  qrot/sn=   36337.5178 T*S(rot)=     7.11 kcal/mol T*S(tot)=    21.35 kcal/mol
 sn= 5  qrot/sn=   29070.0143 T*S(rot)=     6.98 kcal/mol T*S(tot)=    21.22 kcal/mol
 sn= 6  qrot/sn=   24225.0119 T*S(rot)=     6.87 kcal/mol T*S(tot)=    21.11 kcal/mol
 sn= 7  qrot/sn=   20764.2959 T*S(rot)=     6.78 kcal/mol T*S(tot)=    21.02 kcal/mol
 sn= 8  qrot/sn=   18168.7589 T*S(rot)=     6.70 kcal/mol T*S(tot)=    20.94 kcal/mol
 sn= 9  qrot/sn=   16150.0079 T*S(rot)=     6.63 kcal/mol T*S(tot)=    20.87 kcal/mol
 sn=10  qrot/sn=   14535.0071 T*S(rot)=     6.57 kcal/mol T*S(tot)=    20.81 kcal/mol
 sn=11  qrot/sn=   13213.6428 T*S(rot)=     6.51 kcal/mol T*S(tot)=    20.75 kcal/mol
 sn=12  qrot/sn=   12112.5059 T*S(rot)=     6.46 kcal/mol T*S(tot)=    20.70 kcal/mol

-------------------
GIBBS FREE ENTHALPY
-------------------

The Gibbs free enthalpy is G = H - T*S

Total enthalpy                    ...   -325.82525060 Eh
Total entropy correction          ...     -0.03429833 Eh    -21.52 kcal/mol
-----------------------------------------------------------------------
Final Gibbs free enthalpy         ...   -325.85954893 Eh

For completeness - the Gibbs free enthalpy minus the electronic energy
G-E(el)                           ...      0.12804997 Eh     80.35 kcal/mol

                             ****ORCA TERMINATED NORMALLY****
TOTAL RUN TIME: 0 days 0 hours 42 minutes 56 seconds 627 msec
