                         Program Version 3.0.3 - RELEASE   -
|  1> ! NORI PBE0 def2-TZVP UseSym TightOPT Freq TightSCF Grid3 FinalGrid5 XYZFile
|  2> % pal
|  3>     nprocs 8
|  4> end
|  5> %method
|  6>     SymThresh 5.0e-2
|  7> end
|  8> % geom
|  9>     MaxIter 10
| 10> end
| 11> % maxcore 2000
| 12> % output
| 13>     printlevel mini
| 14>     print[ P_Basis ] 0
| 15>     print[ P_SCFInfo ] 1
| 16>     print[ P_SCFIterInfo ] 1
| 17>     print[ P_OrbEn ] 0
| 18>     print[ P_Cartesian ] 0
| 19> end
| 20> % elprop
| 21>     Dipole false
| 22> end
| 23> *xyz 1 1
| 24>  C        0.6529505673    -1.2297362690     0.4925568302
| 25>  O       -0.5594747140    -1.4845748004    -0.1966382023
| 26>  C       -1.5278821711    -0.5546489467    -0.1457346656
| 27>  C       -1.3216335410     0.7466680715     0.0809838484
| 28>  C        0.0447193565     1.2226810994     0.2840201477
| 29>  N        1.0190131514     0.9068924512    -0.8663449082
| 30>  C        1.0914306899     0.2045379942     0.4390165379
| 31>  H        1.3968957005    -1.9014792605     0.0635887363
| 32>  H        0.5315677741    -1.4788473703     1.5531843942
| 33>  H       -2.5030744398    -0.9731443272    -0.3650048535
| 34>  H       -2.1440359172     1.4462698664     0.0672256838
| 35>  H        0.2127011552     2.2179541013     0.6762147217
| 36>  H        1.7493782446     1.5703146424    -1.1027334697
| 37>  H        0.6190699386     0.4092214416    -1.6567036885
| 38>  H        1.9901842048     0.4401613062     0.9986688876
| 39> *
| 40>
| 41>                          ****END OF INPUT****
 Total Charge           Charge          ....    1
 Multiplicity           Mult            ....    1
 Number of Electrons    NEL             ....   52
FINAL SINGLE POINT ENERGY      -324.765040938612
                    ***********************HURRAY********************
 Multiplicity           Mult            ....    1
 Number of Electrons    NEL             ....   52
 Basis Dimension        Dim             ....  265
FINAL SINGLE POINT ENERGY      -324.765041180631

VIBRATIONAL FREQUENCIES
-----------------------

   0:         0.00 cm**-1
   1:         0.00 cm**-1
   2:         0.00 cm**-1
   3:         0.00 cm**-1
   4:         0.00 cm**-1
   5:         0.00 cm**-1
   6:       114.51 cm**-1
   7:       283.92 cm**-1
   8:       341.48 cm**-1
   9:       491.34 cm**-1
  10:       519.91 cm**-1
  11:       625.00 cm**-1
  12:       654.15 cm**-1
  13:       773.52 cm**-1
  14:       828.98 cm**-1
  15:       852.08 cm**-1
  16:       870.46 cm**-1
  17:       917.79 cm**-1
  18:       962.56 cm**-1
  19:       977.00 cm**-1
  20:       998.56 cm**-1
  21:      1008.52 cm**-1
  22:      1073.91 cm**-1
  23:      1081.68 cm**-1
  24:      1130.44 cm**-1
  25:      1160.35 cm**-1
  26:      1186.12 cm**-1
  27:      1267.43 cm**-1
  28:      1290.73 cm**-1
  29:      1299.67 cm**-1
  30:      1364.79 cm**-1
  31:      1419.69 cm**-1
  32:      1444.86 cm**-1
  33:      1450.23 cm**-1
  34:      1492.70 cm**-1
  35:      1612.95 cm**-1
  36:      1689.29 cm**-1
  37:      3058.69 cm**-1
  38:      3140.45 cm**-1
  39:      3200.07 cm**-1
  40:      3219.31 cm**-1
  41:      3226.67 cm**-1
  42:      3258.55 cm**-1
  43:      3491.82 cm**-1
  44:      3608.99 cm**-1

IR SPECTRUM
-----------

 Mode    freq (cm**-1)   T**2         TX         TY         TZ
-------------------------------------------------------------------
   6:       114.51    3.844850  (  1.731211   0.523979  -0.757103)
   7:       283.92    4.540560  (  0.948633  -1.842276  -0.496662)
   8:       341.48    4.345899  (  1.151087  -0.234544   1.722175)
   9:       491.34   11.376925  ( -1.580523   1.198059  -2.728283)
  10:       519.91    1.838733  (  1.297813  -0.024562  -0.392187)
  11:       625.00   13.295707  ( -1.650090  -0.167477   3.247285)
  12:       654.15   16.819042  ( -3.478187  -0.725609   2.048109)
  13:       773.52   47.187513  ( -5.890948   3.394833  -0.979466)
  14:       828.98    8.918332  ( -1.327039  -0.084781  -2.673969)
  15:       852.08   42.135675  (  6.239274  -0.627302  -1.677387)
  16:       870.46    4.851294  (  0.484413  -1.075819  -1.859907)
  17:       917.79    6.617909  (  2.009714   0.800739   1.392040)
  18:       962.56   30.185356  (  0.453959   1.858588  -5.150236)
  19:       977.00   62.475665  (  2.892113   5.890531   4.406018)
  20:       998.56    4.059372  ( -1.429304  -0.636417   1.269423)
  21:      1008.52   18.166792  (  0.745410   3.656518   2.059376)
  22:      1073.91    4.802380  ( -0.532824  -0.626177  -2.031350)
  23:      1081.68    6.779038  (  2.135939   0.808795  -1.250061)
  24:      1130.44   37.442687  (  1.277171   5.979786   0.231702)
  25:      1160.35   17.857998  (  0.875969   3.677633   1.888304)
  26:      1186.12    1.055386  ( -0.464144   0.906670  -0.133812)
  27:      1267.43   26.641433  ( -2.586563  -2.533997  -3.678313)
  28:      1290.73   95.869262  (  3.176268   8.103180   4.485427)
  29:      1299.67    2.277777  (  1.356625   0.359507  -0.555069)
  30:      1364.79    4.413723  ( -0.990590  -1.746476   0.618283)
  31:      1419.69    2.858158  ( -0.258570  -1.460681  -0.810994)
  32:      1444.86    9.831106  (  1.528560   2.120563  -1.731423)
  33:      1450.23   18.805724  ( -1.485507  -2.423217   3.275212)
  34:      1492.70   12.416585  ( -0.048913  -3.462169  -0.653896)
  35:      1612.95   74.264525  (  7.918899  -3.111609  -1.368742)
  36:      1689.29  120.684824  (  1.764021   3.273222  10.337266)
  37:      3058.69    5.796841  ( -0.131381  -2.354960   0.483469)
  38:      3140.45    0.528295  ( -0.311980  -0.655958   0.026131)
  39:      3200.07    2.713588  ( -0.167840  -1.356996   0.918683)
  40:      3219.31    1.472697  (  0.914410  -0.057965   0.795733)
  41:      3226.67    3.891659  (  0.325386   0.235493   1.931405)
  42:      3258.55    8.170500  (  1.336583   2.062451   1.459569)
  43:      3491.82   97.150669  ( -9.053046   2.961287   2.534523)
  44:      3608.99  114.765026  ( -1.205683  -4.505440   9.644292)

--------------------------
THERMOCHEMISTRY AT 298.15K
--------------------------

Temperature         ... 298.15 K
Pressure            ... 1.00 atm
Total Mass          ... 98.12 AMU

Throughout the following assumptions are being made:
  (1) The electronic state is orbitally nondegenerate
  (2) There are no thermally accessible electronically excited states
  (3) Hindered rotations indicated by low frequency modes) are not
      treated as such but are treated as vibrations and this may
      case some error
  (4) All equations used are the standard statistical mechanics
      equations for an ideal gas
  (5) All vibrations are strinctly harmonic

------------
INNER ENERGY
------------

The inner energy is: U= E(el) + E(ZPE) + E(vib) + E(rot) + E(trans)
    E(el)   - is the total energy from the electronic structure calculation
              = E(kin-el) + E(nuc-el) + E(el-el) + E(nuc-nuc)
    E(ZPE)  - the the zero temperature vibrational energy from the frequency calculation
    E(vib)  - the the finite temperature correction to E(ZPE) due to population
              of excietd vibrational states
    E(rot)  - is the rotational thermal energy
    E(trans)- is the translational thermal energy

Summary of contributions to the inner energy U:
Electronic energy                ...   -324.76504118 Eh
Zero point energy                ...      0.13074215 Eh      82.04 kcal/mol
Thermal vibrational correction   ...      0.00291379 Eh       1.83 kcal/mol
Thermal rotational correction    ...      0.00141627 Eh       0.89 kcal/mol
Thermal translational correction ...      0.00141627 Eh       0.89 kcal/mol
-----------------------------------------------------------------------
Total thermal energy                   -324.62855271 Eh

Summary of corrections to the electronic energy:
(perhaps to be used in another calculation)
Total thermal correction                  0.00574633 Eh       3.61 kcal/mol
Non-thermal (ZPE) correction              0.13074215 Eh      82.04 kcal/mol
-----------------------------------------------------------------------
Total correction                          0.13648848 Eh      85.65 kcal/mol

--------
ENTHALPY
--------

The enthalpy is H = U + kB*T
                kB is Boltzmann's constant
Total free energy                 ...   -324.62855271 Eh
Thermal Enthalpy correction       ...      0.00094421 Eh       0.59 kcal/mol
-----------------------------------------------------------------------
Total Enthalpy                    ...   -324.62760850 Eh

-------
ENTROPY
-------

The entropy contributions are T*S = T*(S(el)+S(vib)+S(rot)+S(trans)
     S(el)   - electronic entropy
     S(vib)  - vibrational entropy
     S(rot)  - rotational entropy
     S(trans)- translational entropy
The entropies will be listed as mutliplied by the temperature to get
units of energy

Electronic entropy                ...      0.00000000 Eh      0.00 kcal/mol
Vibrational entropy               ...      0.00460874 Eh      2.89 kcal/mol
Rotational entropy                ...      0.01163803 Eh      7.30 kcal/mol
Translational entropy             ...      0.01884443 Eh     11.83 kcal/mol
-----------------------------------------------------------------------
Final entropy term                ...      0.03509121 Eh     22.02 kcal/mol

CAUTION: The rotational entropy is not quite correctly treated here
         because it includes a symmetry number that is not yet correctly
         implemented in ORCA!
For a nonlinear molecule the correct rotational entropy is:
    S(rot) = R*(ln(qrot/sn)+1.5)
    R    = 8.31441 J/mol/K = 1.987191683e-3 kcal/mol/K
    qrot = 150945.6944031
    sn is the rotational symmetry number. We have assumed 3 here
       if it is different for your molecule then you should correct
       the printed rotational entropy by manually evaluating the equation
       as given above

For convenience we print out the resulting values for sn=1 - 12:
 sn= 1  qrot/sn=  150945.6944 T*S(rot)=     7.95 kcal/mol T*S(tot)=    22.67 kcal/mol
 sn= 2  qrot/sn=   75472.8472 T*S(rot)=     7.54 kcal/mol T*S(tot)=    22.26 kcal/mol
 sn= 3  qrot/sn=   50315.2315 T*S(rot)=     7.30 kcal/mol T*S(tot)=    22.02 kcal/mol
 sn= 4  qrot/sn=   37736.4236 T*S(rot)=     7.13 kcal/mol T*S(tot)=    21.85 kcal/mol
 sn= 5  qrot/sn=   30189.1389 T*S(rot)=     7.00 kcal/mol T*S(tot)=    21.72 kcal/mol
 sn= 6  qrot/sn=   25157.6157 T*S(rot)=     6.89 kcal/mol T*S(tot)=    21.61 kcal/mol
 sn= 7  qrot/sn=   21563.6706 T*S(rot)=     6.80 kcal/mol T*S(tot)=    21.52 kcal/mol
 sn= 8  qrot/sn=   18868.2118 T*S(rot)=     6.72 kcal/mol T*S(tot)=    21.44 kcal/mol
 sn= 9  qrot/sn=   16771.7438 T*S(rot)=     6.65 kcal/mol T*S(tot)=    21.37 kcal/mol
 sn=10  qrot/sn=   15094.5694 T*S(rot)=     6.59 kcal/mol T*S(tot)=    21.31 kcal/mol
 sn=11  qrot/sn=   13722.3359 T*S(rot)=     6.53 kcal/mol T*S(tot)=    21.25 kcal/mol
 sn=12  qrot/sn=   12578.8079 T*S(rot)=     6.48 kcal/mol T*S(tot)=    21.20 kcal/mol

-------------------
GIBBS FREE ENTHALPY
-------------------

The Gibbs free enthalpy is G = H - T*S

Total enthalpy                    ...   -324.62760850 Eh
Total entropy correction          ...     -0.03509121 Eh    -22.02 kcal/mol
-----------------------------------------------------------------------
Final Gibbs free enthalpy         ...   -324.66269971 Eh

For completeness - the Gibbs free enthalpy minus the electronic energy
G-E(el)                           ...      0.10234147 Eh     64.22 kcal/mol

                             ****ORCA TERMINATED NORMALLY****
TOTAL RUN TIME: 0 days 0 hours 31 minutes 50 seconds 126 msec
