                         Program Version 3.0.3 - RELEASE   -
|  1> ! NORI PBE0 def2-TZVP UseSym TightOPT Freq TightSCF Grid3 FinalGrid5 XYZFile
|  2> % pal
|  3>     nprocs 8
|  4> end
|  5> %method
|  6>     SymThresh 5.0e-2
|  7> end
|  8> % geom
|  9>     MaxIter 10
| 10> end
| 11> % maxcore 2000
| 12> % output
| 13>     printlevel mini
| 14>     print[ P_Basis ] 0
| 15>     print[ P_SCFInfo ] 1
| 16>     print[ P_SCFIterInfo ] 1
| 17>     print[ P_OrbEn ] 0
| 18>     print[ P_Cartesian ] 0
| 19> end
| 20> % elprop
| 21>     Dipole false
| 22> end
| 23> *xyz 1 1
| 24>  C        0.6459380144    -1.2010193274     0.4827111893
| 25>  O       -0.4296391983    -1.3534688377    -0.4301631836
| 26>  N       -1.5389240935    -0.5516873410    -0.1908210976
| 27>  C       -1.2876765524     0.6521588968     0.1281719504
| 28>  C        0.0814796443     1.2020053140     0.2513837702
| 29>  N        1.0101479503     0.8503844633    -0.8771196365
| 30>  C        1.1527244700     0.2115628507     0.4521946581
| 31>  H        1.3982377401    -1.9225015665     0.1640196687
| 32>  H        0.3274119504    -1.4356780141     1.5049094168
| 33>  H       -2.1458610492     1.2933331688     0.2971703735
| 34>  H        0.2026819832     2.2217140996     0.5944115814
| 35>  H        1.6864234643     1.5463468084    -1.1735847213
| 36>  H        0.6264257514     0.2656547868    -1.6187756591
| 37>  H        2.0554799250     0.4761346983     0.9911616896
| 38> *
| 39>
| 40>                          ****END OF INPUT****
 Total Charge           Charge          ....    1
 Multiplicity           Mult            ....    1
 Number of Electrons    NEL             ....   52
FINAL SINGLE POINT ENERGY      -340.742055509562

CARTESIAN COORDINATES (ANGSTROEM)
---------------------------------
  C     -0.914500   -0.840428    0.731080
  O     -0.000194    0.000638    1.416911
  N      1.300232    0.000335    0.927263
  C      1.410010    0.027555   -0.338106
  C      0.254652    0.054581   -1.263580
  N     -0.825606    1.034781   -0.900821
  C     -1.022904   -0.420786   -0.705904
  H     -1.857256   -0.739279    1.268595
  H     -0.586376   -1.885690    0.766101
  H      2.420071    0.049165   -0.732232
  H      0.441639    0.009116   -2.328971
  H     -1.311958    1.509881   -1.654071
  H     -0.676838    1.585692   -0.056161
  H     -1.772669   -0.869760   -1.347547

FINAL SINGLE POINT ENERGY      -340.742056006063
                    ***********************HURRAY********************
 Multiplicity           Mult            ....    1
 Number of Electrons    NEL             ....   52
 Basis Dimension        Dim             ....  259
FINAL SINGLE POINT ENERGY      -340.742056312729

VIBRATIONAL FREQUENCIES
-----------------------

   0:         0.00 cm**-1
   1:         0.00 cm**-1
   2:         0.00 cm**-1
   3:         0.00 cm**-1
   4:         0.00 cm**-1
   5:         0.00 cm**-1
   6:       203.30 cm**-1
   7:       268.94 cm**-1
   8:       365.86 cm**-1
   9:       501.44 cm**-1
  10:       541.81 cm**-1
  11:       667.44 cm**-1
  12:       748.74 cm**-1
  13:       825.13 cm**-1
  14:       834.48 cm**-1
  15:       864.88 cm**-1
  16:       893.67 cm**-1
  17:       924.72 cm**-1
  18:       963.21 cm**-1
  19:       980.50 cm**-1
  20:      1026.19 cm**-1
  21:      1052.71 cm**-1
  22:      1092.66 cm**-1
  23:      1106.74 cm**-1
  24:      1134.46 cm**-1
  25:      1176.32 cm**-1
  26:      1255.09 cm**-1
  27:      1286.60 cm**-1
  28:      1315.84 cm**-1
  29:      1386.45 cm**-1
  30:      1400.11 cm**-1
  31:      1432.91 cm**-1
  32:      1480.57 cm**-1
  33:      1592.46 cm**-1
  34:      1693.96 cm**-1
  35:      3061.11 cm**-1
  36:      3152.11 cm**-1
  37:      3208.08 cm**-1
  38:      3213.53 cm**-1
  39:      3224.24 cm**-1
  40:      3467.40 cm**-1
  41:      3594.19 cm**-1

IR SPECTRUM
-----------

 Mode    freq (cm**-1)   T**2         TX         TY         TZ
-------------------------------------------------------------------
   6:       203.30   10.170300  ( -2.055517   1.975450  -1.429248)
   7:       268.94    5.094844  ( -1.648041   1.208133  -0.958760)
   8:       365.86    4.278001  (  0.176866  -0.730201   1.927051)
   9:       501.44    0.792983  ( -0.543723  -0.651350   0.270353)
  10:       541.81    5.257570  (  2.248994   0.435637   0.099085)
  11:       667.44    2.326080  (  0.125857   1.061580  -1.087790)
  12:       748.74    2.485969  ( -0.450411  -0.293493  -1.482215)
  13:       825.13    5.606227  ( -2.299203   0.049356   0.563432)
  14:       834.48   11.007738  (  0.349517   0.025527  -3.299231)
  15:       864.88   42.648405  (  2.610047  -5.562606  -2.212118)
  16:       893.67    9.241047  (  1.833131   1.958155   1.430492)
  17:       924.72   38.239851  ( -1.322599  -2.034038   5.687994)
  18:       963.21    8.999861  (  1.241576  -2.723824   0.197823)
  19:       980.50   23.784386  (  4.813372   0.649834  -0.439951)
  20:      1026.19   52.456279  ( -6.141431  -3.107293   2.254736)
  21:      1052.71   20.199499  ( -2.880556  -1.739168   2.979461)
  22:      1092.66    5.326254  ( -1.997728   0.649322  -0.955886)
  23:      1106.74   43.016865  (  5.499917   3.398615  -1.103265)
  24:      1134.46    7.894262  (  0.843222   0.436279  -2.644409)
  25:      1176.32    0.686404  ( -0.465685   0.106562   0.676894)
  26:      1255.09    6.549928  (  0.177717   1.420596   2.121380)
  27:      1286.60    2.484886  ( -1.266304   0.459742  -0.818533)
  28:      1315.84    3.532556  ( -1.851957  -0.317089   0.047593)
  29:      1386.45    2.596689  ( -0.224543   0.250354   1.575942)
  30:      1400.11    5.802480  (  1.610193   1.392339  -1.127453)
  31:      1432.91    3.982178  ( -1.873220   0.374629   0.576955)
  32:      1480.57    8.154204  ( -0.503643  -2.519453   1.246156)
  33:      1592.46   83.362629  ( -2.822546   8.648872   0.769987)
  34:      1693.96    9.993585  (  2.159913   0.136972  -2.304257)
  35:      3061.11    3.630561  (  1.318748   1.274561   0.516681)
  36:      3152.11    0.721221  ( -0.620349   0.064717   0.576368)
  37:      3208.08    3.284769  (  1.345937   0.876149   0.839992)
  38:      3213.53    5.689488  (  2.332805   0.454249  -0.202894)
  39:      3224.24    8.250286  ( -1.290703   0.465305   2.523463)
  40:      3467.40  101.291867  ( -2.498266   9.487678   2.243768)
  41:      3594.19  164.455134  (  5.691382  -2.871528  11.127337)

--------------------------
THERMOCHEMISTRY AT 298.15K
--------------------------

Temperature         ... 298.15 K
Pressure            ... 1.00 atm
Total Mass          ... 99.11 AMU

Throughout the following assumptions are being made:
  (1) The electronic state is orbitally nondegenerate
  (2) There are no thermally accessible electronically excited states
  (3) Hindered rotations indicated by low frequency modes) are not
      treated as such but are treated as vibrations and this may
      case some error
  (4) All equations used are the standard statistical mechanics
      equations for an ideal gas
  (5) All vibrations are strinctly harmonic

------------
INNER ENERGY
------------

The inner energy is: U= E(el) + E(ZPE) + E(vib) + E(rot) + E(trans)
    E(el)   - is the total energy from the electronic structure calculation
              = E(kin-el) + E(nuc-el) + E(el-el) + E(nuc-nuc)
    E(ZPE)  - the the zero temperature vibrational energy from the frequency calculation
    E(vib)  - the the finite temperature correction to E(ZPE) due to population
              of excietd vibrational states
    E(rot)  - is the rotational thermal energy
    E(trans)- is the translational thermal energy

Summary of contributions to the inner energy U:
Electronic energy                ...   -340.74205631 Eh
Zero point energy                ...      0.11832312 Eh      74.25 kcal/mol
Thermal vibrational correction   ...      0.00260983 Eh       1.64 kcal/mol
Thermal rotational correction    ...      0.00141627 Eh       0.89 kcal/mol
Thermal translational correction ...      0.00141627 Eh       0.89 kcal/mol
-----------------------------------------------------------------------
Total thermal energy                   -340.61829082 Eh

Summary of corrections to the electronic energy:
(perhaps to be used in another calculation)
Total thermal correction                  0.00544237 Eh       3.42 kcal/mol
Non-thermal (ZPE) correction              0.11832312 Eh      74.25 kcal/mol
-----------------------------------------------------------------------
Total correction                          0.12376550 Eh      77.66 kcal/mol

--------
ENTHALPY
--------

The enthalpy is H = U + kB*T
                kB is Boltzmann's constant
Total free energy                 ...   -340.61829082 Eh
Thermal Enthalpy correction       ...      0.00094421 Eh       0.59 kcal/mol
-----------------------------------------------------------------------
Total Enthalpy                    ...   -340.61734661 Eh

-------
ENTROPY
-------

The entropy contributions are T*S = T*(S(el)+S(vib)+S(rot)+S(trans)
     S(el)   - electronic entropy
     S(vib)  - vibrational entropy
     S(rot)  - rotational entropy
     S(trans)- translational entropy
The entropies will be listed as mutliplied by the temperature to get
units of energy

Electronic entropy                ...      0.00000000 Eh      0.00 kcal/mol
Vibrational entropy               ...      0.00388598 Eh      2.44 kcal/mol
Rotational entropy                ...      0.01157406 Eh      7.26 kcal/mol
Translational entropy             ...      0.01885862 Eh     11.83 kcal/mol
-----------------------------------------------------------------------
Final entropy term                ...      0.03431867 Eh     21.54 kcal/mol

CAUTION: The rotational entropy is not quite correctly treated here
         because it includes a symmetry number that is not yet correctly
         implemented in ORCA!
For a nonlinear molecule the correct rotational entropy is:
    S(rot) = R*(ln(qrot/sn)+1.5)
    R    = 8.31441 J/mol/K = 1.987191683e-3 kcal/mol/K
    qrot = 141057.6678415
    sn is the rotational symmetry number. We have assumed 3 here
       if it is different for your molecule then you should correct
       the printed rotational entropy by manually evaluating the equation
       as given above

For convenience we print out the resulting values for sn=1 - 12:
 sn= 1  qrot/sn=  141057.6678 T*S(rot)=     7.91 kcal/mol T*S(tot)=    22.19 kcal/mol
 sn= 2  qrot/sn=   70528.8339 T*S(rot)=     7.50 kcal/mol T*S(tot)=    21.78 kcal/mol
 sn= 3  qrot/sn=   47019.2226 T*S(rot)=     7.26 kcal/mol T*S(tot)=    21.54 kcal/mol
 sn= 4  qrot/sn=   35264.4170 T*S(rot)=     7.09 kcal/mol T*S(tot)=    21.36 kcal/mol
 sn= 5  qrot/sn=   28211.5336 T*S(rot)=     6.96 kcal/mol T*S(tot)=    21.23 kcal/mol
 sn= 6  qrot/sn=   23509.6113 T*S(rot)=     6.85 kcal/mol T*S(tot)=    21.12 kcal/mol
 sn= 7  qrot/sn=   20151.0954 T*S(rot)=     6.76 kcal/mol T*S(tot)=    21.03 kcal/mol
 sn= 8  qrot/sn=   17632.2085 T*S(rot)=     6.68 kcal/mol T*S(tot)=    20.95 kcal/mol
 sn= 9  qrot/sn=   15673.0742 T*S(rot)=     6.61 kcal/mol T*S(tot)=    20.88 kcal/mol
 sn=10  qrot/sn=   14105.7668 T*S(rot)=     6.55 kcal/mol T*S(tot)=    20.82 kcal/mol
 sn=11  qrot/sn=   12823.4243 T*S(rot)=     6.49 kcal/mol T*S(tot)=    20.77 kcal/mol
 sn=12  qrot/sn=   11754.8057 T*S(rot)=     6.44 kcal/mol T*S(tot)=    20.71 kcal/mol

-------------------
GIBBS FREE ENTHALPY
-------------------

The Gibbs free enthalpy is G = H - T*S

Total enthalpy                    ...   -340.61734661 Eh
Total entropy correction          ...     -0.03431867 Eh    -21.54 kcal/mol
-----------------------------------------------------------------------
Final Gibbs free enthalpy         ...   -340.65166528 Eh

For completeness - the Gibbs free enthalpy minus the electronic energy
G-E(el)                           ...      0.09039104 Eh     56.72 kcal/mol

                             ****ORCA TERMINATED NORMALLY****
TOTAL RUN TIME: 0 days 0 hours 31 minutes 30 seconds 904 msec
