                         Program Version 3.0.3 - RELEASE   -
|  1> ! NORI PBE0 def2-TZVP UseSym TightOPT Freq TightSCF Grid3 FinalGrid5 XYZFile
|  2> % pal
|  3>     nprocs 8
|  4> end
|  5> %method
|  6>     SymThresh 5.0e-2
|  7> end
|  8> % geom
|  9>     MaxIter 10
| 10> end
| 11> % maxcore 2000
| 12> % output
| 13>     printlevel mini
| 14>     print[ P_Basis ] 0
| 15>     print[ P_SCFInfo ] 1
| 16>     print[ P_SCFIterInfo ] 1
| 17>     print[ P_OrbEn ] 0
| 18>     print[ P_Cartesian ] 0
| 19> end
| 20> % elprop
| 21>     Dipole false
| 22> end
| 23> *xyz 1 1
| 24>  C        1.4609056998     0.4711148839    -0.1494242535
| 25>  C        2.8388899754    -0.0575611602     0.0486126040
| 26>  C        3.0494915386    -1.5188178577     0.3685035849
| 27>  N        4.5484078670    -1.6406674516     0.3504876159
| 28>  C        5.0599448447    -0.6821986127    -0.6929496245
| 29>  C        4.0629665643     0.4346130911    -0.5816689908
| 30>  O        3.7788085739     0.7365015911     0.7763748640
| 31>  H        0.9538377133    -0.0604086796    -0.9575667430
| 32>  H        1.4993192776     1.5309996425    -0.3983291443
| 33>  H        0.8709036273     0.3547068171     0.7624334466
| 34>  H        2.6347627138    -2.1670281149    -0.4049101708
| 35>  H        2.6784566708    -1.8248380791     1.3469690603
| 36>  H        4.8973495198    -1.3263559069     1.2570942715
| 37>  H        4.8672284708    -2.5967097774     0.1997064513
| 38>  H        6.0864035118    -0.4077269979    -0.4494517303
| 39>  H        5.0263666286    -1.1681110659    -1.6694294530
| 40>  H        4.0908868026     1.2591376782    -1.2852217886
| 41> *
| 42>
| 43>                          ****END OF INPUT****
 Total Charge           Charge          ....    1
 Multiplicity           Mult            ....    1
 Number of Electrons    NEL             ....   54
FINAL SINGLE POINT ENERGY      -326.000773472852

CARTESIAN COORDINATES (ANGSTROEM)
---------------------------------
  C     -2.023792   -0.967120    0.197973
  C     -0.657555   -0.380819    0.113795
  C      0.350420   -0.948363   -0.857796
  N      1.508601    0.000051   -0.712621
  C      0.934075    1.363824   -0.430610
  C     -0.286377    1.010183    0.368870
  O      0.000085   -0.000105    1.324767
  H     -2.525034   -0.923355   -0.771401
  H     -2.621639   -0.419341    0.925612
  H     -1.974189   -2.011625    0.512744
  H     -0.010577   -0.907758   -1.886557
  H      0.685333   -1.958893   -0.622130
  H      2.044322   -0.285954    0.108293
  H      2.131647   -0.007637   -1.519070
  H      1.676435    1.957973    0.102639
  H      0.681337    1.845844   -1.376249
  H     -0.993717    1.782201    0.649724

FINAL SINGLE POINT ENERGY      -326.000773836258
                    ***********************HURRAY********************
 Multiplicity           Mult            ....    1
 Number of Electrons    NEL             ....   54
 Basis Dimension        Dim             ....  277
FINAL SINGLE POINT ENERGY      -326.000773993100

VIBRATIONAL FREQUENCIES
-----------------------

   0:         0.00 cm**-1
   1:         0.00 cm**-1
   2:         0.00 cm**-1
   3:         0.00 cm**-1
   4:         0.00 cm**-1
   5:         0.00 cm**-1
   6:       182.23 cm**-1
   7:       213.21 cm**-1
   8:       251.28 cm**-1
   9:       309.36 cm**-1
  10:       405.01 cm**-1
  11:       458.91 cm**-1
  12:       578.77 cm**-1
  13:       663.95 cm**-1
  14:       726.64 cm**-1
  15:       846.94 cm**-1
  16:       875.08 cm**-1
  17:       895.28 cm**-1
  18:       919.22 cm**-1
  19:       955.00 cm**-1
  20:       969.07 cm**-1
  21:      1000.98 cm**-1
  22:      1032.22 cm**-1
  23:      1061.94 cm**-1
  24:      1105.07 cm**-1
  25:      1152.35 cm**-1
  26:      1193.36 cm**-1
  27:      1230.63 cm**-1
  28:      1269.69 cm**-1
  29:      1298.24 cm**-1
  30:      1308.04 cm**-1
  31:      1383.15 cm**-1
  32:      1399.79 cm**-1
  33:      1412.28 cm**-1
  34:      1419.11 cm**-1
  35:      1467.94 cm**-1
  36:      1480.20 cm**-1
  37:      1483.39 cm**-1
  38:      1493.74 cm**-1
  39:      1512.22 cm**-1
  40:      1617.54 cm**-1
  41:      3067.20 cm**-1
  42:      3101.37 cm**-1
  43:      3102.90 cm**-1
  44:      3141.11 cm**-1
  45:      3164.64 cm**-1
  46:      3165.11 cm**-1
  47:      3165.87 cm**-1
  48:      3206.97 cm**-1
  49:      3463.41 cm**-1
  50:      3529.51 cm**-1

IR SPECTRUM
-----------

 Mode    freq (cm**-1)   T**2         TX         TY         TZ
-------------------------------------------------------------------
   6:       182.23    0.205831  ( -0.238978   0.170490  -0.345910)
   7:       213.21    8.112930  ( -0.716264  -0.662533   2.675995)
   8:       251.28    5.000098  ( -1.560465   1.128708   1.136251)
   9:       309.36    2.723185  (  1.091346   0.770398   0.968833)
  10:       405.01    7.141027  ( -0.279590   0.728254   2.555876)
  11:       458.91   19.907090  ( -3.856908  -0.618379   2.156144)
  12:       578.77    0.101921  ( -0.245115   0.203364  -0.021986)
  13:       663.95    1.804890  ( -0.522400  -0.382960  -1.177000)
  14:       726.64    6.644290  (  1.087629   2.328875  -0.194145)
  15:       846.94    2.351876  (  1.264063  -0.463772   0.734123)
  16:       875.08   21.659282  (  1.891962   1.711032   3.892574)
  17:       895.28    5.008363  ( -2.047903   0.472223  -0.769066)
  18:       919.22    1.355944  ( -0.423856  -0.714410  -0.816032)
  19:       955.00    7.884908  (  1.200272   1.588748  -1.979933)
  20:       969.07   13.407610  (  0.026292   0.066976  -3.660933)
  21:      1000.98    6.740744  (  0.886851  -0.184415  -2.433152)
  22:      1032.22    2.726671  (  1.334783   0.263474  -0.935739)
  23:      1061.94   15.263773  ( -0.533470  -3.817322   0.638150)
  24:      1105.07   11.294022  ( -0.893023   2.478611  -2.086388)
  25:      1152.35    7.791305  ( -1.603986   0.627233  -2.196614)
  26:      1193.36    0.957476  ( -0.062670   0.513096  -0.830831)
  27:      1230.63   11.472024  (  1.912511   2.773959   0.345654)
  28:      1269.69    9.830359  (  0.371999  -2.312989  -2.083761)
  29:      1298.24    6.141180  ( -1.252079   1.621982  -1.393791)
  30:      1308.04    6.571864  ( -0.071911  -0.119636  -2.559762)
  31:      1383.15    6.767488  ( -1.294656   0.788475   2.114157)
  32:      1399.79    5.901269  (  0.753313   2.263742  -0.457447)
  33:      1412.28   30.208339  (  1.224196   5.261611   1.012490)
  34:      1419.11    6.046544  ( -2.423157   0.094618   0.407307)
  35:      1467.94   10.912452  ( -0.957252  -3.110661  -0.565607)
  36:      1480.20    8.496760  ( -0.051045   2.497379  -1.502416)
  37:      1483.39   17.349586  (  1.711511   2.395452   2.946545)
  38:      1493.74   10.424983  ( -0.215759  -0.660380   3.153146)
  39:      1512.22   21.674632  (  4.633113  -0.420574   0.178932)
  40:      1617.54   79.233101  (  8.646115  -2.111423  -0.140297)
  41:      3067.20    1.218856  (  0.448457   0.799886   0.614757)
  42:      3101.37    0.692328  (  0.349709   0.612822   0.441000)
  43:      3102.90    0.559007  (  0.127310   0.352029  -0.647205)
  44:      3141.11    1.828210  ( -0.207237   0.865610  -1.017832)
  45:      3164.64    0.058695  ( -0.014675   0.172273   0.169710)
  46:      3165.11    0.618748  (  0.100272   0.644198   0.440117)
  47:      3165.87    0.083088  (  0.025906  -0.161859   0.237104)
  48:      3206.97    0.966434  (  0.191530  -0.384289  -0.884349)
  49:      3463.41   76.385665  ( -8.257193   2.222964  -1.806338)
  50:      3529.51   99.829153  ( -2.481331  -1.220364   9.601191)

--------------------------
THERMOCHEMISTRY AT 298.15K
--------------------------

Temperature         ... 298.15 K
Pressure            ... 1.00 atm
Total Mass          ... 100.14 AMU

Throughout the following assumptions are being made:
  (1) The electronic state is orbitally nondegenerate
  (2) There are no thermally accessible electronically excited states
  (3) Hindered rotations indicated by low frequency modes) are not
      treated as such but are treated as vibrations and this may
      case some error
  (4) All equations used are the standard statistical mechanics
      equations for an ideal gas
  (5) All vibrations are strinctly harmonic

------------
INNER ENERGY
------------

The inner energy is: U= E(el) + E(ZPE) + E(vib) + E(rot) + E(trans)
    E(el)   - is the total energy from the electronic structure calculation
              = E(kin-el) + E(nuc-el) + E(el-el) + E(nuc-nuc)
    E(ZPE)  - the the zero temperature vibrational energy from the frequency calculation
    E(vib)  - the the finite temperature correction to E(ZPE) due to population
              of excietd vibrational states
    E(rot)  - is the rotational thermal energy
    E(trans)- is the translational thermal energy

Summary of contributions to the inner energy U:
Electronic energy                ...   -326.00077399 Eh
Zero point energy                ...      0.15418620 Eh      96.75 kcal/mol
Thermal vibrational correction   ...      0.00356985 Eh       2.24 kcal/mol
Thermal rotational correction    ...      0.00141627 Eh       0.89 kcal/mol
Thermal translational correction ...      0.00141627 Eh       0.89 kcal/mol
-----------------------------------------------------------------------
Total thermal energy                   -325.84018540 Eh

Summary of corrections to the electronic energy:
(perhaps to be used in another calculation)
Total thermal correction                  0.00640239 Eh       4.02 kcal/mol
Non-thermal (ZPE) correction              0.15418620 Eh      96.75 kcal/mol
-----------------------------------------------------------------------
Total correction                          0.16058859 Eh     100.77 kcal/mol

--------
ENTHALPY
--------

The enthalpy is H = U + kB*T
                kB is Boltzmann's constant
Total free energy                 ...   -325.84018540 Eh
Thermal Enthalpy correction       ...      0.00094421 Eh       0.59 kcal/mol
-----------------------------------------------------------------------
Total Enthalpy                    ...   -325.83924119 Eh

-------
ENTROPY
-------

The entropy contributions are T*S = T*(S(el)+S(vib)+S(rot)+S(trans)
     S(el)   - electronic entropy
     S(vib)  - vibrational entropy
     S(rot)  - rotational entropy
     S(trans)- translational entropy
The entropies will be listed as mutliplied by the temperature to get
units of energy

Electronic entropy                ...      0.00000000 Eh      0.00 kcal/mol
Vibrational entropy               ...      0.00556765 Eh      3.49 kcal/mol
Rotational entropy                ...      0.01173649 Eh      7.36 kcal/mol
Translational entropy             ...      0.01887324 Eh     11.84 kcal/mol
-----------------------------------------------------------------------
Final entropy term                ...      0.03617738 Eh     22.70 kcal/mol

CAUTION: The rotational entropy is not quite correctly treated here
         because it includes a symmetry number that is not yet correctly
         implemented in ORCA!
For a nonlinear molecule the correct rotational entropy is:
    S(rot) = R*(ln(qrot/sn)+1.5)
    R    = 8.31441 J/mol/K = 1.987191683e-3 kcal/mol/K
    qrot = 167536.0923940
    sn is the rotational symmetry number. We have assumed 3 here
       if it is different for your molecule then you should correct
       the printed rotational entropy by manually evaluating the equation
       as given above

For convenience we print out the resulting values for sn=1 - 12:
 sn= 1  qrot/sn=  167536.0924 T*S(rot)=     8.02 kcal/mol T*S(tot)=    23.35 kcal/mol
 sn= 2  qrot/sn=   83768.0462 T*S(rot)=     7.60 kcal/mol T*S(tot)=    22.94 kcal/mol
 sn= 3  qrot/sn=   55845.3641 T*S(rot)=     7.36 kcal/mol T*S(tot)=    22.70 kcal/mol
 sn= 4  qrot/sn=   41884.0231 T*S(rot)=     7.19 kcal/mol T*S(tot)=    22.53 kcal/mol
 sn= 5  qrot/sn=   33507.2185 T*S(rot)=     7.06 kcal/mol T*S(tot)=    22.40 kcal/mol
 sn= 6  qrot/sn=   27922.6821 T*S(rot)=     6.95 kcal/mol T*S(tot)=    22.29 kcal/mol
 sn= 7  qrot/sn=   23933.7275 T*S(rot)=     6.86 kcal/mol T*S(tot)=    22.20 kcal/mol
 sn= 8  qrot/sn=   20942.0115 T*S(rot)=     6.78 kcal/mol T*S(tot)=    22.12 kcal/mol
 sn= 9  qrot/sn=   18615.1214 T*S(rot)=     6.71 kcal/mol T*S(tot)=    22.05 kcal/mol
 sn=10  qrot/sn=   16753.6092 T*S(rot)=     6.65 kcal/mol T*S(tot)=    21.99 kcal/mol
 sn=11  qrot/sn=   15230.5539 T*S(rot)=     6.59 kcal/mol T*S(tot)=    21.93 kcal/mol
 sn=12  qrot/sn=   13961.3410 T*S(rot)=     6.54 kcal/mol T*S(tot)=    21.88 kcal/mol

-------------------
GIBBS FREE ENTHALPY
-------------------

The Gibbs free enthalpy is G = H - T*S

Total enthalpy                    ...   -325.83924119 Eh
Total entropy correction          ...     -0.03617738 Eh    -22.70 kcal/mol
-----------------------------------------------------------------------
Final Gibbs free enthalpy         ...   -325.87541856 Eh

For completeness - the Gibbs free enthalpy minus the electronic energy
G-E(el)                           ...      0.12535543 Eh     78.66 kcal/mol

                             ****ORCA TERMINATED NORMALLY****
TOTAL RUN TIME: 0 days 0 hours 39 minutes 17 seconds 504 msec
