                         Program Version 3.0.3 - RELEASE   -
|  1> ! NORI PBE0 def2-TZVP UseSym TightOPT Freq TightSCF Grid3 FinalGrid5 XYZFile
|  2> % pal
|  3>     nprocs 8
|  4> end
|  5> %method
|  6>     SymThresh 5.0e-2
|  7> end
|  8> % geom
|  9>     MaxIter 10
| 10> end
| 11> % maxcore 2000
| 12> % output
| 13>     printlevel mini
| 14>     print[ P_Basis ] 0
| 15>     print[ P_SCFInfo ] 1
| 16>     print[ P_SCFIterInfo ] 1
| 17>     print[ P_OrbEn ] 0
| 18>     print[ P_Cartesian ] 0
| 19> end
| 20> % elprop
| 21>     Dipole false
| 22> end
| 23> *xyz 1 1
| 24>  C        1.4916099240     0.1195926715    -0.3345670904
| 25>  C        2.8881444315    -0.2308907954     0.0488539975
| 26>  C        3.2469777962    -1.5581459838     0.6879658029
| 27>  O        4.6574241421    -1.5483694355     0.7589922729
| 28>  C        5.1413053709    -0.8930346560    -0.3969227318
| 29>  C        4.1249552224     0.1955271095    -0.6324402471
| 30>  N        3.7468837433     0.8472246564     0.6537214235
| 31>  H        1.4291017861     1.1003981441    -0.8090291966
| 32>  H        0.8304668402     0.1015548925     0.5336489763
| 33>  H        1.1267097828    -0.6185291830    -1.0517219388
| 34>  H        2.8677933958    -2.3585050182     0.0398882002
| 35>  H        2.8493244417    -1.6962087911     1.6943964824
| 36>  H        6.1532204656    -0.5391687589    -0.1970165492
| 37>  H        5.1567899354    -1.5496187129    -1.2761836453
| 38>  H        4.1460454160     0.8467747968    -1.4967618017
| 39>  H        3.4028855750     1.8000014653     0.6273679191
| 40>  H        4.3049017312     0.5963975984     1.4679181263
| 41> *
| 42>
| 43>                          ****END OF INPUT****
 Total Charge           Charge          ....    1
 Multiplicity           Mult            ....    1
 Number of Electrons    NEL             ....   54
FINAL SINGLE POINT ENERGY      -325.994133258629

CARTESIAN COORDINATES (ANGSTROEM)
---------------------------------
  C     -0.728553    0.963402   -1.896047
  C     -0.195196    0.382361   -0.631773
  C     -0.607853    0.892483    0.735102
  O     -0.000796   -0.000042    1.645816
  C     -0.031028   -1.290429    1.067944
  C      0.191720   -1.021840   -0.398909
  N      1.260080   -0.000272   -0.588773
  H     -0.344769    0.449354   -2.779070
  H     -0.489403    2.025696   -1.970827
  H     -1.815454    0.861405   -1.900366
  H     -1.703626    0.862379    0.789892
  H     -0.267284    1.904161    0.960597
  H      0.737033   -1.901503    1.543378
  H     -1.005436   -1.780524    1.186776
  H      0.146782   -1.795250   -1.154712
  H      1.777325   -0.001389   -1.460210
  H      1.786410    0.262065    0.242631

FINAL SINGLE POINT ENERGY      -325.994133820946
                    ***********************HURRAY********************
 Multiplicity           Mult            ....    1
 Number of Electrons    NEL             ....   54
 Basis Dimension        Dim             ....  277
FINAL SINGLE POINT ENERGY      -325.994133997673

VIBRATIONAL FREQUENCIES
-----------------------

   0:         0.00 cm**-1
   1:         0.00 cm**-1
   2:         0.00 cm**-1
   3:         0.00 cm**-1
   4:         0.00 cm**-1
   5:         0.00 cm**-1
   6:       195.93 cm**-1
   7:       239.85 cm**-1
   8:       277.87 cm**-1
   9:       310.80 cm**-1
  10:       401.65 cm**-1
  11:       432.32 cm**-1
  12:       573.51 cm**-1
  13:       664.21 cm**-1
  14:       748.15 cm**-1
  15:       829.38 cm**-1
  16:       880.84 cm**-1
  17:       911.14 cm**-1
  18:       924.24 cm**-1
  19:       972.57 cm**-1
  20:       979.67 cm**-1
  21:      1010.99 cm**-1
  22:      1037.36 cm**-1
  23:      1043.37 cm**-1
  24:      1094.90 cm**-1
  25:      1119.52 cm**-1
  26:      1132.16 cm**-1
  27:      1154.26 cm**-1
  28:      1224.97 cm**-1
  29:      1274.66 cm**-1
  30:      1299.13 cm**-1
  31:      1302.64 cm**-1
  32:      1348.85 cm**-1
  33:      1378.72 cm**-1
  34:      1421.59 cm**-1
  35:      1454.40 cm**-1
  36:      1475.99 cm**-1
  37:      1487.34 cm**-1
  38:      1495.03 cm**-1
  39:      1507.96 cm**-1
  40:      1584.81 cm**-1
  41:      3042.89 cm**-1
  42:      3048.56 cm**-1
  43:      3066.81 cm**-1
  44:      3136.15 cm**-1
  45:      3141.20 cm**-1
  46:      3148.66 cm**-1
  47:      3150.21 cm**-1
  48:      3231.90 cm**-1
  49:      3475.26 cm**-1
  50:      3610.12 cm**-1

IR SPECTRUM
-----------

 Mode    freq (cm**-1)   T**2         TX         TY         TZ
-------------------------------------------------------------------
   6:       195.93    0.097945  ( -0.000010  -0.258109  -0.176989)
   7:       239.85    4.148649  (  1.550232   1.018156  -0.841896)
   8:       277.87   15.211161  ( -3.176148   0.450817   2.218110)
   9:       310.80    2.959396  (  0.504983   0.681240  -1.496764)
  10:       401.65    2.000320  ( -0.031618  -0.685591  -1.236643)
  11:       432.32    3.828214  (  0.176468   1.583292  -1.135895)
  12:       573.51    1.510944  (  0.806218  -0.499797  -0.781767)
  13:       664.21    3.562544  ( -0.904203   0.898993  -1.391679)
  14:       748.15    5.495479  ( -0.197074  -0.437086  -2.294689)
  15:       829.38   10.311920  (  2.956928   1.066823   0.656039)
  16:       880.84   22.124358  ( -3.553945   1.401841   2.743843)
  17:       911.14    0.047170  ( -0.011304  -0.093966  -0.195481)
  18:       924.24   20.030426  ( -0.466309   1.020994  -4.332500)
  19:       972.57   23.877587  ( -2.282326  -0.372905  -4.304593)
  20:       979.67   23.012776  (  1.809019  -4.420755  -0.444017)
  21:      1010.99   12.197731  ( -1.092209   3.120025  -1.127056)
  22:      1037.36    6.993677  (  2.568125  -0.529668  -0.343310)
  23:      1043.37   52.710954  ( -1.868200   6.986000  -0.645434)
  24:      1094.90    5.157855  (  1.560911  -1.386132  -0.894455)
  25:      1119.52   35.247193  (  0.828945   5.778120  -1.083225)
  26:      1132.16    3.304118  (  0.978401  -1.036587  -1.127979)
  27:      1154.26   44.013986  (  2.488148  -5.800672   2.043356)
  28:      1224.97   10.363870  ( -0.392916   3.168412  -0.413103)
  29:      1274.66    6.930306  ( -2.497943  -0.414908  -0.720027)
  30:      1299.13    2.519380  (  0.504417  -1.503551  -0.065422)
  31:      1302.64    2.530705  (  0.157688  -0.188888  -1.571675)
  32:      1348.85    1.398869  (  0.527256  -0.949245   0.468834)
  33:      1378.72    1.439808  ( -0.389389   0.775389  -0.828829)
  34:      1421.59    6.982693  ( -1.758127  -0.531228  -1.899863)
  35:      1454.40   10.456294  ( -0.376738   2.134960  -2.399231)
  36:      1475.99    9.573830  (  2.053982   2.275428   0.421207)
  37:      1487.34    8.533347  (  1.400626  -1.298488  -2.210322)
  38:      1495.03    6.869257  (  1.116112  -2.369636  -0.091530)
  39:      1507.96   10.512881  (  1.991604   0.096320  -2.556778)
  40:      1584.81   90.133225  ( -9.361452  -1.526798   0.406612)
  41:      3042.89   11.442811  (  2.487000  -1.976716   1.161998)
  42:      3048.56    9.198471  ( -1.238956  -2.755115  -0.269817)
  43:      3066.81    0.561804  ( -0.583373  -0.002624   0.470609)
  44:      3136.15    1.135402  ( -0.275171  -1.007135   0.212982)
  45:      3141.20    0.802924  (  0.771757  -0.453497   0.040687)
  46:      3148.66    1.209196  ( -0.107329   0.459181   0.993393)
  47:      3150.21    0.727830  ( -0.437206   0.726653  -0.093040)
  48:      3231.90    4.021217  ( -0.152144  -1.701866  -1.049628)
  49:      3475.26   87.294049  ( -8.733615  -2.090651  -2.578217)
  50:      3610.12  129.185157  ( -3.461453   0.862984  10.791606)

--------------------------
THERMOCHEMISTRY AT 298.15K
--------------------------

Temperature         ... 298.15 K
Pressure            ... 1.00 atm
Total Mass          ... 100.14 AMU

Throughout the following assumptions are being made:
  (1) The electronic state is orbitally nondegenerate
  (2) There are no thermally accessible electronically excited states
  (3) Hindered rotations indicated by low frequency modes) are not
      treated as such but are treated as vibrations and this may
      case some error
  (4) All equations used are the standard statistical mechanics
      equations for an ideal gas
  (5) All vibrations are strinctly harmonic

------------
INNER ENERGY
------------

The inner energy is: U= E(el) + E(ZPE) + E(vib) + E(rot) + E(trans)
    E(el)   - is the total energy from the electronic structure calculation
              = E(kin-el) + E(nuc-el) + E(el-el) + E(nuc-nuc)
    E(ZPE)  - the the zero temperature vibrational energy from the frequency calculation
    E(vib)  - the the finite temperature correction to E(ZPE) due to population
              of excietd vibrational states
    E(rot)  - is the rotational thermal energy
    E(trans)- is the translational thermal energy

Summary of contributions to the inner energy U:
Electronic energy                ...   -325.99413400 Eh
Zero point energy                ...      0.15318983 Eh      96.13 kcal/mol
Thermal vibrational correction   ...      0.00351127 Eh       2.20 kcal/mol
Thermal rotational correction    ...      0.00141627 Eh       0.89 kcal/mol
Thermal translational correction ...      0.00141627 Eh       0.89 kcal/mol
-----------------------------------------------------------------------
Total thermal energy                   -325.83460035 Eh

Summary of corrections to the electronic energy:
(perhaps to be used in another calculation)
Total thermal correction                  0.00634381 Eh       3.98 kcal/mol
Non-thermal (ZPE) correction              0.15318983 Eh      96.13 kcal/mol
-----------------------------------------------------------------------
Total correction                          0.15953365 Eh     100.11 kcal/mol

--------
ENTHALPY
--------

The enthalpy is H = U + kB*T
                kB is Boltzmann's constant
Total free energy                 ...   -325.83460035 Eh
Thermal Enthalpy correction       ...      0.00094421 Eh       0.59 kcal/mol
-----------------------------------------------------------------------
Total Enthalpy                    ...   -325.83365614 Eh

-------
ENTROPY
-------

The entropy contributions are T*S = T*(S(el)+S(vib)+S(rot)+S(trans)
     S(el)   - electronic entropy
     S(vib)  - vibrational entropy
     S(rot)  - rotational entropy
     S(trans)- translational entropy
The entropies will be listed as mutliplied by the temperature to get
units of energy

Electronic entropy                ...      0.00000000 Eh      0.00 kcal/mol
Vibrational entropy               ...      0.00537781 Eh      3.37 kcal/mol
Rotational entropy                ...      0.01173318 Eh      7.36 kcal/mol
Translational entropy             ...      0.01887324 Eh     11.84 kcal/mol
-----------------------------------------------------------------------
Final entropy term                ...      0.03598422 Eh     22.58 kcal/mol

CAUTION: The rotational entropy is not quite correctly treated here
         because it includes a symmetry number that is not yet correctly
         implemented in ORCA!
For a nonlinear molecule the correct rotational entropy is:
    S(rot) = R*(ln(qrot/sn)+1.5)
    R    = 8.31441 J/mol/K = 1.987191683e-3 kcal/mol/K
    qrot = 166949.8491350
    sn is the rotational symmetry number. We have assumed 3 here
       if it is different for your molecule then you should correct
       the printed rotational entropy by manually evaluating the equation
       as given above

For convenience we print out the resulting values for sn=1 - 12:
 sn= 1  qrot/sn=  166949.8491 T*S(rot)=     8.01 kcal/mol T*S(tot)=    23.23 kcal/mol
 sn= 2  qrot/sn=   83474.9246 T*S(rot)=     7.60 kcal/mol T*S(tot)=    22.82 kcal/mol
 sn= 3  qrot/sn=   55649.9497 T*S(rot)=     7.36 kcal/mol T*S(tot)=    22.58 kcal/mol
 sn= 4  qrot/sn=   41737.4623 T*S(rot)=     7.19 kcal/mol T*S(tot)=    22.41 kcal/mol
 sn= 5  qrot/sn=   33389.9698 T*S(rot)=     7.06 kcal/mol T*S(tot)=    22.28 kcal/mol
 sn= 6  qrot/sn=   27824.9749 T*S(rot)=     6.95 kcal/mol T*S(tot)=    22.17 kcal/mol
 sn= 7  qrot/sn=   23849.9784 T*S(rot)=     6.86 kcal/mol T*S(tot)=    22.08 kcal/mol
 sn= 8  qrot/sn=   20868.7311 T*S(rot)=     6.78 kcal/mol T*S(tot)=    22.00 kcal/mol
 sn= 9  qrot/sn=   18549.9832 T*S(rot)=     6.71 kcal/mol T*S(tot)=    21.93 kcal/mol
 sn=10  qrot/sn=   16694.9849 T*S(rot)=     6.65 kcal/mol T*S(tot)=    21.87 kcal/mol
 sn=11  qrot/sn=   15177.2590 T*S(rot)=     6.59 kcal/mol T*S(tot)=    21.81 kcal/mol
 sn=12  qrot/sn=   13912.4874 T*S(rot)=     6.54 kcal/mol T*S(tot)=    21.76 kcal/mol

-------------------
GIBBS FREE ENTHALPY
-------------------

The Gibbs free enthalpy is G = H - T*S

Total enthalpy                    ...   -325.83365614 Eh
Total entropy correction          ...     -0.03598422 Eh    -22.58 kcal/mol
-----------------------------------------------------------------------
Final Gibbs free enthalpy         ...   -325.86964037 Eh

For completeness - the Gibbs free enthalpy minus the electronic energy
G-E(el)                           ...      0.12449363 Eh     78.12 kcal/mol

                             ****ORCA TERMINATED NORMALLY****
TOTAL RUN TIME: 0 days 0 hours 39 minutes 44 seconds 888 msec
