                         Program Version 3.0.3 - RELEASE   -
|  1> ! NORI PBE0 def2-TZVP UseSym TightOPT Freq TightSCF Grid3 FinalGrid5 XYZFile
|  2> % pal
|  3>     nprocs 8
|  4> end
|  5> %method
|  6>     SymThresh 5.0e-2
|  7> end
|  8> % geom
|  9>     MaxIter 10
| 10> end
| 11> % maxcore 2000
| 12> % output
| 13>     printlevel mini
| 14>     print[ P_Basis ] 0
| 15>     print[ P_SCFInfo ] 1
| 16>     print[ P_SCFIterInfo ] 1
| 17>     print[ P_OrbEn ] 0
| 18>     print[ P_Cartesian ] 0
| 19> end
| 20> % elprop
| 21>     Dipole false
| 22> end
| 23> *xyz 1 1
| 24>  C        0.9469973102     0.0879299617    -0.2079172425
| 25>  C        2.4424779055     0.0733247250    -0.0570423137
| 26>  C        3.2964557202    -0.7414087862    -0.9863678599
| 27>  C        3.3573386112     0.7446781014    -1.0373135364
| 28>  N        2.7182246283     1.4532268365    -2.1752317766
| 29>  C        4.5676687272     1.5256011395    -0.6096618972
| 30>  O        4.1425252068     2.8729036782    -0.5580892706
| 31>  H        0.5118979092     1.0303783266     0.1337499193
| 32>  H        0.5083330978    -0.7105642923     0.3925515483
| 33>  H        0.6177381877    -0.1075068353    -1.2355111504
| 34>  H        2.7899524590     0.1479501391     0.9682372110
| 35>  H        4.1697631966    -1.2573365543    -0.6060312120
| 36>  H        2.7894743982    -1.2625536517    -1.7922114812
| 37>  H        3.1462291567     1.2232505028    -3.0738704635
| 38>  H        2.8596953441     2.4593584575    -1.9862542923
| 39>  H        1.7174308289     1.2559905386    -2.2267573763
| 40>  H        5.3902803465     1.3972271878    -1.3265802143
| 41>  H        4.9016740624     1.1558203252     0.3642850226
| 42>  H        4.8794629036     3.4581801998    -0.3605236144
| 43> *
| 44>
| 45>                          ****END OF INPUT****
 Total Charge           Charge          ....    1
 Multiplicity           Mult            ....    1
 Number of Electrons    NEL             ....   56
FINAL SINGLE POINT ENERGY      -327.208794888064
FINAL SINGLE POINT ENERGY      -327.208796170224

CARTESIAN COORDINATES (ANGSTROEM)
---------------------------------
  C     -0.217720    1.668881   -1.678945
  C     -0.777446    0.475291   -0.956877
  C     -0.395439   -0.916807   -1.371692
  C      0.056513   -0.386480   -0.056342
  N      1.480933   -0.000186    0.114763
  C     -0.453866   -0.917457    1.253373
  O     -0.002419   -0.000181    2.229289
  H     -0.140959    2.541363   -1.025692
  H     -0.874046    1.938515   -2.507943
  H      0.760420    1.474351   -2.134139
  H     -1.793424    0.604870   -0.598575
  H     -1.134939   -1.708147   -1.355841
  H      0.337386   -1.010282   -2.166357
  H      2.119406   -0.790628    0.008687
  H      1.553814    0.359898    1.080440
  H      1.753601    0.733902   -0.540901
  H     -0.062595   -1.925692    1.446145
  H     -1.545645   -0.976751    1.209368
  H     -0.222558   -0.304359    3.114479

FINAL SINGLE POINT ENERGY      -327.208796585392
                    ***********************HURRAY********************
 Multiplicity           Mult            ....    1
 Number of Electrons    NEL             ....   56
 Basis Dimension        Dim             ....  289
FINAL SINGLE POINT ENERGY      -327.208796702442

VIBRATIONAL FREQUENCIES
-----------------------

   0:         0.00 cm**-1
   1:         0.00 cm**-1
   2:         0.00 cm**-1
   3:         0.00 cm**-1
   4:         0.00 cm**-1
   5:         0.00 cm**-1
   6:       108.19 cm**-1
   7:       179.56 cm**-1
   8:       196.99 cm**-1
   9:       244.98 cm**-1
  10:       260.22 cm**-1
  11:       310.04 cm**-1
  12:       319.06 cm**-1
  13:       360.51 cm**-1
  14:       419.17 cm**-1
  15:       480.27 cm**-1
  16:       521.07 cm**-1
  17:       719.84 cm**-1
  18:       810.56 cm**-1
  19:       880.40 cm**-1
  20:       905.95 cm**-1
  21:       913.53 cm**-1
  22:       994.91 cm**-1
  23:      1012.26 cm**-1
  24:      1038.06 cm**-1
  25:      1079.25 cm**-1
  26:      1097.59 cm**-1
  27:      1118.13 cm**-1
  28:      1140.45 cm**-1
  29:      1163.84 cm**-1
  30:      1196.44 cm**-1
  31:      1219.40 cm**-1
  32:      1259.43 cm**-1
  33:      1297.33 cm**-1
  34:      1341.89 cm**-1
  35:      1407.69 cm**-1
  36:      1421.49 cm**-1
  37:      1451.84 cm**-1
  38:      1473.55 cm**-1
  39:      1477.71 cm**-1
  40:      1502.68 cm**-1
  41:      1512.51 cm**-1
  42:      1519.31 cm**-1
  43:      1637.01 cm**-1
  44:      1661.41 cm**-1
  45:      3020.38 cm**-1
  46:      3034.64 cm**-1
  47:      3089.61 cm**-1
  48:      3109.44 cm**-1
  49:      3140.07 cm**-1
  50:      3148.38 cm**-1
  51:      3178.81 cm**-1
  52:      3237.59 cm**-1
  53:      3301.55 cm**-1
  54:      3454.60 cm**-1
  55:      3503.82 cm**-1
  56:      3865.32 cm**-1

IR SPECTRUM
-----------

 Mode    freq (cm**-1)   T**2         TX         TY         TZ
-------------------------------------------------------------------
   6:       108.19    3.868224  (  1.601813  -1.068301  -0.401436)
   7:       179.56    4.119941  (  1.197948   0.882477  -1.380614)
   8:       196.99   11.430177  ( -2.674202   1.446036   1.479123)
   9:       244.98    1.004295  (  0.637403  -0.728518   0.259374)
  10:       260.22    4.636668  (  1.530062  -1.184175   0.945149)
  11:       310.04   80.919317  ( -6.868088   4.773343   3.311176)
  12:       319.06   63.769824  ( -4.703718   4.637706  -4.487377)
  13:       360.51   18.313307  ( -4.268438   0.073968   0.297112)
  14:       419.17    3.212041  (  0.170658   0.074511  -1.782517)
  15:       480.27    5.319706  ( -1.487206   1.737772   0.296768)
  16:       521.07    4.986768  (  1.179085  -0.100918   1.893764)
  17:       719.84    5.013307  (  1.997488   0.766077   0.660663)
  18:       810.56    0.895812  (  0.641076   0.063691   0.693381)
  19:       880.40    4.052267  (  0.004576   1.709645   1.062713)
  20:       905.95    1.680479  (  0.765848   0.647347   0.821522)
  21:       913.53    9.741278  ( -1.109184   1.017282  -2.734251)
  22:       994.91   50.731857  ( -0.271116   1.087437  -7.033906)
  23:      1012.26   31.603095  ( -0.414839  -1.337457  -5.444466)
  24:      1038.06    8.770476  (  2.536722   1.040608   1.119220)
  25:      1079.25   11.134984  (  2.493351  -1.676829  -1.451353)
  26:      1097.59   67.298423  (  2.568301   3.802876   6.800029)
  27:      1118.13    4.876661  (  0.150285   2.154358  -0.461320)
  28:      1140.45    6.094727  ( -0.477691   2.407204  -0.268160)
  29:      1163.84   28.713418  ( -0.324981  -4.510434  -2.874681)
  30:      1196.44   12.251446  ( -1.047120  -2.747170  -1.899485)
  31:      1219.40   21.443580  (  2.242011   3.778179   1.463670)
  32:      1259.43    6.079250  (  2.073650   0.930869   0.955358)
  33:      1297.33    8.823623  ( -0.103681  -1.174861  -2.726275)
  34:      1341.89    3.209678  (  0.065614  -1.042339   1.455645)
  35:      1407.69    6.917985  ( -2.176912   1.291212  -0.715411)
  36:      1421.49    6.247300  (  2.478908   0.088792  -0.307297)
  37:      1451.84   58.895290  (  6.916610   2.460503   2.236453)
  38:      1473.55   98.159197  (  8.905873   4.339940   0.097704)
  39:      1477.71    9.005915  ( -1.647289   2.387896  -0.768314)
  40:      1502.68   63.606254  (  7.447095  -0.846393  -2.725921)
  41:      1512.51   10.903784  (  2.082162   1.191578  -2.269036)
  42:      1519.31    0.644936  ( -0.594169  -0.500279  -0.204010)
  43:      1637.01   15.810703  ( -1.341193   3.111866   2.080432)
  44:      1661.41   29.075817  ( -0.232848  -3.777666   3.840682)
  45:      3020.38   23.885076  (  0.139647  -4.885169  -0.026473)
  46:      3034.64   15.009702  (  3.820822   0.546269  -0.335574)
  47:      3089.61    8.360630  ( -2.367893   0.604024  -1.545596)
  48:      3109.44    9.446160  (  1.948816  -2.322180  -0.505723)
  49:      3140.07    1.106318  ( -0.209707  -0.772253  -0.682617)
  50:      3148.38    1.052594  (  1.008688   0.023200   0.186022)
  51:      3178.81    0.562898  ( -0.463524  -0.081884   0.584242)
  52:      3237.59    0.092510  ( -0.278802  -0.067955   0.100807)
  53:      3301.55  131.598010  ( -0.377796   2.145119  11.262937)
  54:      3454.60   84.669945  (  4.628483   0.330112  -7.945950)
  55:      3503.82  103.332407  ( -3.196323   8.990672  -3.504817)
  56:      3865.32  131.263671  ( -1.476052  -1.299328  11.287014)

--------------------------
THERMOCHEMISTRY AT 298.15K
--------------------------

Temperature         ... 298.15 K
Pressure            ... 1.00 atm
Total Mass          ... 102.16 AMU

Throughout the following assumptions are being made:
  (1) The electronic state is orbitally nondegenerate
  (2) There are no thermally accessible electronically excited states
  (3) Hindered rotations indicated by low frequency modes) are not
      treated as such but are treated as vibrations and this may
      case some error
  (4) All equations used are the standard statistical mechanics
      equations for an ideal gas
  (5) All vibrations are strinctly harmonic

------------
INNER ENERGY
------------

The inner energy is: U= E(el) + E(ZPE) + E(vib) + E(rot) + E(trans)
    E(el)   - is the total energy from the electronic structure calculation
              = E(kin-el) + E(nuc-el) + E(el-el) + E(nuc-nuc)
    E(ZPE)  - the the zero temperature vibrational energy from the frequency calculation
    E(vib)  - the the finite temperature correction to E(ZPE) due to population
              of excietd vibrational states
    E(rot)  - is the rotational thermal energy
    E(trans)- is the translational thermal energy

Summary of contributions to the inner energy U:
Electronic energy                ...   -327.20879670 Eh
Zero point energy                ...      0.17482364 Eh     109.70 kcal/mol
Thermal vibrational correction   ...      0.00541763 Eh       3.40 kcal/mol
Thermal rotational correction    ...      0.00141627 Eh       0.89 kcal/mol
Thermal translational correction ...      0.00141627 Eh       0.89 kcal/mol
-----------------------------------------------------------------------
Total thermal energy                   -327.02572289 Eh

Summary of corrections to the electronic energy:
(perhaps to be used in another calculation)
Total thermal correction                  0.00825017 Eh       5.18 kcal/mol
Non-thermal (ZPE) correction              0.17482364 Eh     109.70 kcal/mol
-----------------------------------------------------------------------
Total correction                          0.18307381 Eh     114.88 kcal/mol

--------
ENTHALPY
--------

The enthalpy is H = U + kB*T
                kB is Boltzmann's constant
Total free energy                 ...   -327.02572289 Eh
Thermal Enthalpy correction       ...      0.00094421 Eh       0.59 kcal/mol
-----------------------------------------------------------------------
Total Enthalpy                    ...   -327.02477869 Eh

-------
ENTROPY
-------

The entropy contributions are T*S = T*(S(el)+S(vib)+S(rot)+S(trans)
     S(el)   - electronic entropy
     S(vib)  - vibrational entropy
     S(rot)  - rotational entropy
     S(trans)- translational entropy
The entropies will be listed as mutliplied by the temperature to get
units of energy

Electronic entropy                ...      0.00000000 Eh      0.00 kcal/mol
Vibrational entropy               ...      0.00901357 Eh      5.66 kcal/mol
Rotational entropy                ...      0.01206895 Eh      7.57 kcal/mol
Translational entropy             ...      0.01890147 Eh     11.86 kcal/mol
-----------------------------------------------------------------------
Final entropy term                ...      0.03998399 Eh     25.09 kcal/mol

CAUTION: The rotational entropy is not quite correctly treated here
         because it includes a symmetry number that is not yet correctly
         implemented in ORCA!
For a nonlinear molecule the correct rotational entropy is:
    S(rot) = R*(ln(qrot/sn)+1.5)
    R    = 8.31441 J/mol/K = 1.987191683e-3 kcal/mol/K
    qrot = 238248.6778428
    sn is the rotational symmetry number. We have assumed 3 here
       if it is different for your molecule then you should correct
       the printed rotational entropy by manually evaluating the equation
       as given above

For convenience we print out the resulting values for sn=1 - 12:
 sn= 1  qrot/sn=  238248.6778 T*S(rot)=     8.22 kcal/mol T*S(tot)=    25.74 kcal/mol
 sn= 2  qrot/sn=  119124.3389 T*S(rot)=     7.81 kcal/mol T*S(tot)=    25.33 kcal/mol
 sn= 3  qrot/sn=   79416.2259 T*S(rot)=     7.57 kcal/mol T*S(tot)=    25.09 kcal/mol
 sn= 4  qrot/sn=   59562.1695 T*S(rot)=     7.40 kcal/mol T*S(tot)=    24.92 kcal/mol
 sn= 5  qrot/sn=   47649.7356 T*S(rot)=     7.27 kcal/mol T*S(tot)=    24.79 kcal/mol
 sn= 6  qrot/sn=   39708.1130 T*S(rot)=     7.16 kcal/mol T*S(tot)=    24.68 kcal/mol
 sn= 7  qrot/sn=   34035.5254 T*S(rot)=     7.07 kcal/mol T*S(tot)=    24.59 kcal/mol
 sn= 8  qrot/sn=   29781.0847 T*S(rot)=     6.99 kcal/mol T*S(tot)=    24.51 kcal/mol
 sn= 9  qrot/sn=   26472.0753 T*S(rot)=     6.92 kcal/mol T*S(tot)=    24.44 kcal/mol
 sn=10  qrot/sn=   23824.8678 T*S(rot)=     6.86 kcal/mol T*S(tot)=    24.38 kcal/mol
 sn=11  qrot/sn=   21658.9707 T*S(rot)=     6.80 kcal/mol T*S(tot)=    24.32 kcal/mol
 sn=12  qrot/sn=   19854.0565 T*S(rot)=     6.75 kcal/mol T*S(tot)=    24.27 kcal/mol

-------------------
GIBBS FREE ENTHALPY
-------------------

The Gibbs free enthalpy is G = H - T*S

Total enthalpy                    ...   -327.02477869 Eh
Total entropy correction          ...     -0.03998399 Eh    -25.09 kcal/mol
-----------------------------------------------------------------------
Final Gibbs free enthalpy         ...   -327.06476267 Eh

For completeness - the Gibbs free enthalpy minus the electronic energy
G-E(el)                           ...      0.14403403 Eh     90.38 kcal/mol

                             ****ORCA TERMINATED NORMALLY****
TOTAL RUN TIME: 0 days 0 hours 47 minutes 44 seconds 246 msec
