                         Program Version 3.0.3 - RELEASE   -
|  1> ! NORI PBE0 def2-TZVP UseSym TightOPT Freq TightSCF Grid3 FinalGrid5 XYZFile
|  2> % pal
|  3>     nprocs 8
|  4> end
|  5> %method
|  6>     SymThresh 5.0e-2
|  7> end
|  8> % geom
|  9>     MaxIter 10
| 10> end
| 11> % maxcore 2000
| 12> % output
| 13>     printlevel mini
| 14>     print[ P_Basis ] 0
| 15>     print[ P_SCFInfo ] 1
| 16>     print[ P_SCFIterInfo ] 1
| 17>     print[ P_OrbEn ] 0
| 18>     print[ P_Cartesian ] 0
| 19> end
| 20> % elprop
| 21>     Dipole false
| 22> end
| 23> *xyz 1 1
| 24>  C        0.9774909854     0.0619674535    -0.2186539516
| 25>  C        2.4677582356     0.0517192711    -0.0372648800
| 26>  C        3.3225532499    -0.9305635776    -0.7902579583
| 27>  C        3.3870454906     0.5158109138    -1.1377947394
| 28>  O        2.8123623683     1.0105948714    -2.3142358295
| 29>  C        4.6102498702     1.3159340869    -0.8028840892
| 30>  N        4.2010478233     2.7611691978    -0.8972094098
| 31>  H        0.5426176475     1.0138833948     0.0945788423
| 32>  H        0.5204601929    -0.7251312507     0.3834716764
| 33>  H        0.7024270107    -0.1037306565    -1.2606053684
| 34>  H        2.8102781111     0.2744997655     0.9703662490
| 35>  H        4.1734605018    -1.3894952439    -0.3011785168
| 36>  H        2.8127741046    -1.5700068733    -1.5025250262
| 37>  H        3.0353543329     0.4459031857    -3.0616260904
| 38>  H        5.4088989042     1.1747769867    -1.5346619617
| 39>  H        4.9929234024     1.1228400938     0.1981456693
| 40>  H        3.6466245293     2.8381398375    -1.7627670309
| 41>  H        4.9909667497     3.4053024558    -0.9314680546
| 42>  H        3.5950764896     3.0251960879    -0.1184395302
| 43> *
| 44>
| 45>                          ****END OF INPUT****
 Total Charge           Charge          ....    1
 Multiplicity           Mult            ....    1
 Number of Electrons    NEL             ....   56
FINAL SINGLE POINT ENERGY      -327.209654408522
FINAL SINGLE POINT ENERGY      -327.209655667051

CARTESIAN COORDINATES (ANGSTROEM)
---------------------------------
  C     -1.597149   -1.699487   -0.346431
  C     -0.875471   -0.478534   -0.839248
  C     -1.363016    0.896325   -0.472654
  C     -0.086883    0.392248    0.105814
  O      0.000878    0.001087    1.446828
  C      1.223418    0.976355   -0.331736
  N      2.280618   -0.000677    0.107526
  H     -0.957493   -2.583956   -0.381235
  H     -2.470615   -1.896236   -0.970445
  H     -1.935676   -1.572202    0.682189
  H     -0.459456   -0.562405   -1.840572
  H     -1.327858    1.693706   -1.205267
  H     -2.207467    0.944912    0.205979
  H     -0.426865    0.649659    2.015641
  H      1.445582    1.917229    0.176332
  H      1.298657    1.116042   -1.409135
  H      2.029352   -0.269223    1.070362
  H      3.224143    0.385933    0.089126
  H      2.261313   -0.847080   -0.463811

FINAL SINGLE POINT ENERGY      -327.209656502483
                    ***********************HURRAY********************
 Multiplicity           Mult            ....    1
 Number of Electrons    NEL             ....   56
 Basis Dimension        Dim             ....  289
FINAL SINGLE POINT ENERGY      -327.209656693102

VIBRATIONAL FREQUENCIES
-----------------------

   0:         0.00 cm**-1
   1:         0.00 cm**-1
   2:         0.00 cm**-1
   3:         0.00 cm**-1
   4:         0.00 cm**-1
   5:         0.00 cm**-1
   6:       105.13 cm**-1
   7:       168.76 cm**-1
   8:       190.37 cm**-1
   9:       212.58 cm**-1
  10:       261.70 cm**-1
  11:       306.02 cm**-1
  12:       352.86 cm**-1
  13:       375.97 cm**-1
  14:       430.32 cm**-1
  15:       507.06 cm**-1
  16:       532.85 cm**-1
  17:       716.46 cm**-1
  18:       812.13 cm**-1
  19:       850.26 cm**-1
  20:       898.14 cm**-1
  21:       910.40 cm**-1
  22:       944.10 cm**-1
  23:       955.50 cm**-1
  24:      1019.53 cm**-1
  25:      1066.23 cm**-1
  26:      1075.14 cm**-1
  27:      1108.80 cm**-1
  28:      1133.99 cm**-1
  29:      1147.13 cm**-1
  30:      1198.24 cm**-1
  31:      1249.82 cm**-1
  32:      1293.19 cm**-1
  33:      1312.96 cm**-1
  34:      1358.62 cm**-1
  35:      1393.63 cm**-1
  36:      1413.81 cm**-1
  37:      1437.18 cm**-1
  38:      1476.45 cm**-1
  39:      1481.80 cm**-1
  40:      1484.20 cm**-1
  41:      1487.34 cm**-1
  42:      1504.80 cm**-1
  43:      1640.00 cm**-1
  44:      1671.55 cm**-1
  45:      3064.47 cm**-1
  46:      3093.45 cm**-1
  47:      3133.91 cm**-1
  48:      3139.62 cm**-1
  49:      3149.01 cm**-1
  50:      3156.80 cm**-1
  51:      3168.34 cm**-1
  52:      3238.06 cm**-1
  53:      3341.31 cm**-1
  54:      3476.00 cm**-1
  55:      3531.39 cm**-1
  56:      3835.71 cm**-1

IR SPECTRUM
-----------

 Mode    freq (cm**-1)   T**2         TX         TY         TZ
-------------------------------------------------------------------
   6:       105.13    7.321245  (  0.517705   1.793108   1.959079)
   7:       168.76    6.135543  (  1.783139   1.072211  -1.343994)
   8:       190.37    6.770189  (  1.798533   0.743717  -1.726949)
   9:       212.58    2.853463  (  0.825198   0.837417   1.212949)
  10:       261.70    3.028522  ( -1.270214  -1.102723   0.446184)
  11:       306.02   53.441248  ( -7.035298  -1.215049   1.571462)
  12:       352.86   32.430440  (  4.463082   3.338758   1.167918)
  13:       375.97   37.593473  (  5.237788   3.171046   0.321746)
  14:       430.32    2.913638  ( -1.541098   0.261370   0.685814)
  15:       507.06    3.585523  ( -1.856841   0.106940  -0.355287)
  16:       532.85    4.360992  (  0.293909  -1.397004   1.524136)
  17:       716.46    9.665352  (  2.364027  -0.404294   1.978200)
  18:       812.13   14.207332  (  1.711314  -0.318774   3.343220)
  19:       850.26    1.987783  ( -0.898130   0.208596   1.066599)
  20:       898.14    9.136343  (  0.628839  -1.843680  -2.311223)
  21:       910.40    5.669798  (  1.316876   1.773886   0.888237)
  22:       944.10   23.888010  (  3.764149  -1.105817  -2.914852)
  23:       955.50   12.370446  (  1.736590   0.077933   3.057552)
  24:      1019.53   29.434493  ( -0.922048   1.447988  -5.146616)
  25:      1066.23   19.227782  (  1.143993   0.620522   4.187364)
  26:      1075.14   46.817482  (  5.148624   2.787457  -3.541079)
  27:      1108.80   13.934390  (  2.169611   2.090485  -2.203872)
  28:      1133.99    0.738659  ( -0.390119  -0.226470   0.731558)
  29:      1147.13    0.338406  (  0.507871   0.136268  -0.248805)
  30:      1198.24    1.032685  (  0.532626   0.583608   0.639059)
  31:      1249.82   47.847048  (  0.969303  -1.807834   6.606000)
  32:      1293.19   30.125037  (  2.416586  -1.872417   4.558421)
  33:      1312.96    6.223250  ( -0.743568   0.345209  -2.356096)
  34:      1358.62   10.179220  (  0.202755   0.749489   3.094572)
  35:      1393.63    8.154207  (  1.779930   1.644619   1.510391)
  36:      1413.81    0.565325  (  0.029950   0.675083  -0.329683)
  37:      1437.18    7.961953  (  2.718206   0.225362  -0.722856)
  38:      1476.45  190.398826  (-10.960647   7.635722  -3.458148)
  39:      1481.80    1.902365  ( -0.597985   1.131280  -0.514767)
  40:      1484.20   13.484471  ( -2.339117   0.089222  -2.829319)
  41:      1487.34   15.274378  ( -3.407735  -1.767629   0.732943)
  42:      1504.80   10.135875  (  0.281735   0.254711  -3.160953)
  43:      1640.00   42.238527  ( -1.376744   2.788344   5.706859)
  44:      1671.55   38.744927  (  5.036466   3.642831  -0.329731)
  45:      3064.47   10.545038  (  0.812179   3.131387  -0.282525)
  46:      3093.45    4.208958  ( -1.302431  -1.572243  -0.201703)
  47:      3133.91    5.323111  (  1.300631  -1.778359   0.684768)
  48:      3139.62    5.717613  ( -2.335405   0.129761   0.496649)
  49:      3149.01    0.867941  (  0.560543   0.736557   0.105903)
  50:      3156.80    9.258443  ( -1.266096   0.976438   2.588825)
  51:      3168.34    0.992285  ( -0.239516  -0.427475  -0.867284)
  52:      3238.06    0.531095  (  0.395480  -0.530124   0.306039)
  53:      3341.31   84.210120  ( -2.966560  -2.791111   8.223098)
  54:      3476.00   96.093349  (  7.049426  -2.890985  -6.167750)
  55:      3531.39  102.047708  (  7.491783   6.500146   1.915461)
  56:      3835.71   89.411860  ( -3.915148   4.547515   7.307776)

--------------------------
THERMOCHEMISTRY AT 298.15K
--------------------------

Temperature         ... 298.15 K
Pressure            ... 1.00 atm
Total Mass          ... 102.16 AMU

Throughout the following assumptions are being made:
  (1) The electronic state is orbitally nondegenerate
  (2) There are no thermally accessible electronically excited states
  (3) Hindered rotations indicated by low frequency modes) are not
      treated as such but are treated as vibrations and this may
      case some error
  (4) All equations used are the standard statistical mechanics
      equations for an ideal gas
  (5) All vibrations are strinctly harmonic

------------
INNER ENERGY
------------

The inner energy is: U= E(el) + E(ZPE) + E(vib) + E(rot) + E(trans)
    E(el)   - is the total energy from the electronic structure calculation
              = E(kin-el) + E(nuc-el) + E(el-el) + E(nuc-nuc)
    E(ZPE)  - the the zero temperature vibrational energy from the frequency calculation
    E(vib)  - the the finite temperature correction to E(ZPE) due to population
              of excietd vibrational states
    E(rot)  - is the rotational thermal energy
    E(trans)- is the translational thermal energy

Summary of contributions to the inner energy U:
Electronic energy                ...   -327.20965669 Eh
Zero point energy                ...      0.17499306 Eh     109.81 kcal/mol
Thermal vibrational correction   ...      0.00544148 Eh       3.41 kcal/mol
Thermal rotational correction    ...      0.00141627 Eh       0.89 kcal/mol
Thermal translational correction ...      0.00141627 Eh       0.89 kcal/mol
-----------------------------------------------------------------------
Total thermal energy                   -327.02638961 Eh

Summary of corrections to the electronic energy:
(perhaps to be used in another calculation)
Total thermal correction                  0.00827402 Eh       5.19 kcal/mol
Non-thermal (ZPE) correction              0.17499306 Eh     109.81 kcal/mol
-----------------------------------------------------------------------
Total correction                          0.18326709 Eh     115.00 kcal/mol

--------
ENTHALPY
--------

The enthalpy is H = U + kB*T
                kB is Boltzmann's constant
Total free energy                 ...   -327.02638961 Eh
Thermal Enthalpy correction       ...      0.00094421 Eh       0.59 kcal/mol
-----------------------------------------------------------------------
Total Enthalpy                    ...   -327.02544540 Eh

-------
ENTROPY
-------

The entropy contributions are T*S = T*(S(el)+S(vib)+S(rot)+S(trans)
     S(el)   - electronic entropy
     S(vib)  - vibrational entropy
     S(rot)  - rotational entropy
     S(trans)- translational entropy
The entropies will be listed as mutliplied by the temperature to get
units of energy

Electronic entropy                ...      0.00000000 Eh      0.00 kcal/mol
Vibrational entropy               ...      0.00912329 Eh      5.72 kcal/mol
Rotational entropy                ...      0.01206379 Eh      7.57 kcal/mol
Translational entropy             ...      0.01890147 Eh     11.86 kcal/mol
-----------------------------------------------------------------------
Final entropy term                ...      0.04008855 Eh     25.16 kcal/mol

CAUTION: The rotational entropy is not quite correctly treated here
         because it includes a symmetry number that is not yet correctly
         implemented in ORCA!
For a nonlinear molecule the correct rotational entropy is:
    S(rot) = R*(ln(qrot/sn)+1.5)
    R    = 8.31441 J/mol/K = 1.987191683e-3 kcal/mol/K
    qrot = 236950.5035442
    sn is the rotational symmetry number. We have assumed 3 here
       if it is different for your molecule then you should correct
       the printed rotational entropy by manually evaluating the equation
       as given above

For convenience we print out the resulting values for sn=1 - 12:
 sn= 1  qrot/sn=  236950.5035 T*S(rot)=     8.22 kcal/mol T*S(tot)=    25.81 kcal/mol
 sn= 2  qrot/sn=  118475.2518 T*S(rot)=     7.81 kcal/mol T*S(tot)=    25.40 kcal/mol
 sn= 3  qrot/sn=   78983.5012 T*S(rot)=     7.57 kcal/mol T*S(tot)=    25.16 kcal/mol
 sn= 4  qrot/sn=   59237.6259 T*S(rot)=     7.40 kcal/mol T*S(tot)=    24.99 kcal/mol
 sn= 5  qrot/sn=   47390.1007 T*S(rot)=     7.27 kcal/mol T*S(tot)=    24.85 kcal/mol
 sn= 6  qrot/sn=   39491.7506 T*S(rot)=     7.16 kcal/mol T*S(tot)=    24.75 kcal/mol
 sn= 7  qrot/sn=   33850.0719 T*S(rot)=     7.07 kcal/mol T*S(tot)=    24.65 kcal/mol
 sn= 8  qrot/sn=   29618.8129 T*S(rot)=     6.99 kcal/mol T*S(tot)=    24.57 kcal/mol
 sn= 9  qrot/sn=   26327.8337 T*S(rot)=     6.92 kcal/mol T*S(tot)=    24.50 kcal/mol
 sn=10  qrot/sn=   23695.0504 T*S(rot)=     6.86 kcal/mol T*S(tot)=    24.44 kcal/mol
 sn=11  qrot/sn=   21540.9549 T*S(rot)=     6.80 kcal/mol T*S(tot)=    24.39 kcal/mol
 sn=12  qrot/sn=   19745.8753 T*S(rot)=     6.75 kcal/mol T*S(tot)=    24.33 kcal/mol

-------------------
GIBBS FREE ENTHALPY
-------------------

The Gibbs free enthalpy is G = H - T*S

Total enthalpy                    ...   -327.02544540 Eh
Total entropy correction          ...     -0.04008855 Eh    -25.16 kcal/mol
-----------------------------------------------------------------------
Final Gibbs free enthalpy         ...   -327.06553394 Eh

For completeness - the Gibbs free enthalpy minus the electronic energy
G-E(el)                           ...      0.14412275 Eh     90.44 kcal/mol

                             ****ORCA TERMINATED NORMALLY****
TOTAL RUN TIME: 0 days 0 hours 47 minutes 17 seconds 505 msec
