                         Program Version 3.0.3 - RELEASE   -
|  1> ! NORI PBE0 def2-TZVP UseSym TightOPT Freq TightSCF Grid3 FinalGrid5 XYZFile
|  2> % pal
|  3>     nprocs 8
|  4> end
|  5> %method
|  6>     SymThresh 5.0e-2
|  7> end
|  8> % geom
|  9>     MaxIter 10
| 10> end
| 11> % maxcore 2000
| 12> % output
| 13>     printlevel mini
| 14>     print[ P_Basis ] 0
| 15>     print[ P_SCFInfo ] 1
| 16>     print[ P_SCFIterInfo ] 1
| 17>     print[ P_OrbEn ] 0
| 18>     print[ P_Cartesian ] 0
| 19> end
| 20> % elprop
| 21>     Dipole false
| 22> end
| 23> *xyz 1 1
| 24>  C        1.0930784116    -0.3584202990     0.2587140153
| 25>  C        2.5144268083    -0.0272174445    -0.0727859757
| 26>  C        3.1667004395     1.1807831302     0.6217912318
| 27>  C        4.1577681794     0.1673490317     1.1879298772
| 28>  C        5.5704372406     0.1866694516     0.6247365717
| 29>  N        6.0202166500    -1.2433055632     0.6334573086
| 30>  O        3.4680788545    -0.9347652264     0.5901797525
| 31>  H        0.8284296588    -1.3461970372    -0.1231084604
| 32>  H        0.4288975999     0.3720407485    -0.2099749889
| 33>  H        0.9253554954    -0.3413389036     1.3373380207
| 34>  H        2.6831437482    -0.0583929079    -1.1530882849
| 35>  H        2.5372068079     1.6490731762     1.3762749142
| 36>  H        3.5811430480     1.9494560973    -0.0295538894
| 37>  H        4.1832028674     0.0780749878     2.2803920115
| 38>  H        5.5746258533     0.5052752156    -0.4181562158
| 39>  H        6.2700542676     0.7942468174     1.1978467373
| 40>  H        5.1834621659    -1.7761107384     0.3268248403
| 41>  H        6.2765254611    -1.5631542875     1.5687825701
| 42>  H        6.8035164426    -1.4235462482     0.0064599637
| 43> *
| 44>
| 45>                          ****END OF INPUT****
 Total Charge           Charge          ....    1
 Multiplicity           Mult            ....    1
 Number of Electrons    NEL             ....   56
FINAL SINGLE POINT ENERGY      -327.208513313246
FINAL SINGLE POINT ENERGY      -327.208514513222

CARTESIAN COORDINATES (ANGSTROEM)
---------------------------------
  C     -2.433453   -0.273089    1.099038
  C     -1.236637   -0.597575    0.261378
  C     -1.040595    0.161650   -1.062266
  C      0.264882    0.657048   -0.445681
  C      1.557232    0.082070   -1.004196
  N      2.493652   -0.000526    0.163734
  O     -0.001069    0.001125    0.798130
  H     -2.337485   -0.710907    2.094358
  H     -3.329474   -0.690846    0.632822
  H     -2.564095    0.805962    1.200346
  H     -1.100331   -1.678894    0.173409
  H     -1.772701    0.948599   -1.232229
  H     -0.948939   -0.445982   -1.961600
  H      0.354074    1.741544   -0.314307
  H      1.413547   -0.939715   -1.357265
  H      2.007824    0.683883   -1.792767
  H      1.898033   -0.331971    0.946594
  H      2.875992    0.911504    0.418233
  H      3.270114   -0.643800    0.013649

FINAL SINGLE POINT ENERGY      -327.208514843243
                    ***********************HURRAY********************
 Multiplicity           Mult            ....    1
 Number of Electrons    NEL             ....   56
 Basis Dimension        Dim             ....  289
FINAL SINGLE POINT ENERGY      -327.208514925852

VIBRATIONAL FREQUENCIES
-----------------------

   0:         0.00 cm**-1
   1:         0.00 cm**-1
   2:         0.00 cm**-1
   3:         0.00 cm**-1
   4:         0.00 cm**-1
   5:         0.00 cm**-1
   6:        63.83 cm**-1
   7:       130.37 cm**-1
   8:       199.44 cm**-1
   9:       241.54 cm**-1
  10:       306.52 cm**-1
  11:       335.20 cm**-1
  12:       356.98 cm**-1
  13:       460.18 cm**-1
  14:       532.35 cm**-1
  15:       715.90 cm**-1
  16:       814.37 cm**-1
  17:       851.21 cm**-1
  18:       884.46 cm**-1
  19:       910.72 cm**-1
  20:       935.93 cm**-1
  21:       962.66 cm**-1
  22:      1011.88 cm**-1
  23:      1039.12 cm**-1
  24:      1041.32 cm**-1
  25:      1091.46 cm**-1
  26:      1112.54 cm**-1
  27:      1148.12 cm**-1
  28:      1192.22 cm**-1
  29:      1229.92 cm**-1
  30:      1269.05 cm**-1
  31:      1285.14 cm**-1
  32:      1319.88 cm**-1
  33:      1341.77 cm**-1
  34:      1361.86 cm**-1
  35:      1387.14 cm**-1
  36:      1411.98 cm**-1
  37:      1419.69 cm**-1
  38:      1468.80 cm**-1
  39:      1473.42 cm**-1
  40:      1484.59 cm**-1
  41:      1490.21 cm**-1
  42:      1492.69 cm**-1
  43:      1643.83 cm**-1
  44:      1671.90 cm**-1
  45:      3051.10 cm**-1
  46:      3058.00 cm**-1
  47:      3075.49 cm**-1
  48:      3104.35 cm**-1
  49:      3111.97 cm**-1
  50:      3138.33 cm**-1
  51:      3146.87 cm**-1
  52:      3170.90 cm**-1
  53:      3173.04 cm**-1
  54:      3233.27 cm**-1
  55:      3473.54 cm**-1
  56:      3533.75 cm**-1

IR SPECTRUM
-----------

 Mode    freq (cm**-1)   T**2         TX         TY         TZ
-------------------------------------------------------------------
   6:        63.83    6.732469  (  0.468265   2.546128   0.174438)
   7:       130.37   15.846609  (  3.205115   2.142574  -0.991576)
   8:       199.44   14.661106  ( -2.761614   1.150756   2.389635)
   9:       241.54    2.702607  (  1.637721   0.052270   0.133210)
  10:       306.52    2.662462  ( -1.561573   0.464233  -0.091859)
  11:       335.20   20.425357  (  4.445969  -0.784741   0.207109)
  12:       356.98   11.787990  (  3.392958  -0.451890  -0.267622)
  13:       460.18   20.433440  ( -4.372483   1.009094  -0.544570)
  14:       532.35    3.602433  (  0.454970   0.054864  -1.841854)
  15:       715.90    4.625010  ( -1.685689  -0.331481   1.293671)
  16:       814.37    0.782484  ( -0.363348   0.465485  -0.658624)
  17:       851.21   47.886120  ( -6.257074  -2.248353  -1.918348)
  18:       884.46   40.212576  (  6.239565   0.727506   0.866683)
  19:       910.72    1.441141  (  1.175527   0.239623   0.043115)
  20:       935.93    7.258787  ( -2.344569   1.194653   0.578435)
  21:       962.66   15.723803  (  3.709558   1.159525  -0.786438)
  22:      1011.88   68.764552  ( -5.661664  -4.481160   4.077907)
  23:      1039.12   99.795219  (  9.119615   1.290624  -3.868092)
  24:      1041.32   17.744039  (  3.562704   2.194189   0.486537)
  25:      1091.46   17.809270  ( -0.492941  -1.153366  -4.029395)
  26:      1112.54    9.340122  ( -0.889017   2.596244  -1.345098)
  27:      1148.12    6.094734  ( -2.394626   0.473945  -0.368612)
  28:      1192.22    3.196684  (  1.683488  -0.497301  -0.339476)
  29:      1229.92    1.976766  (  0.571720   1.284414  -0.013528)
  30:      1269.05    7.708894  ( -1.628331  -1.933749   1.148062)
  31:      1285.14    5.440033  ( -1.121110  -1.632504   1.232102)
  32:      1319.88   10.203900  ( -3.035734  -0.990564   0.083673)
  33:      1341.77   13.269985  ( -0.242276  -2.184156   2.905297)
  34:      1361.86   13.216199  ( -2.147526  -1.223193   2.666108)
  35:      1387.14    3.755673  ( -1.787298  -0.721195  -0.202772)
  36:      1411.98   15.822825  ( -3.365208   0.400811   2.082679)
  37:      1419.69   13.929869  (  3.634890   0.403846  -0.744547)
  38:      1468.80  148.763056  (  9.469196  -1.383265   7.562007)
  39:      1473.42   23.697886  ( -2.874827   2.363954  -3.137670)
  40:      1484.59   28.843185  (  3.349261   1.761094   3.811061)
  41:      1490.21   19.345096  (  3.593369  -2.499465   0.430665)
  42:      1492.69   15.562435  (  0.386672   0.379102   3.907583)
  43:      1643.83   28.217924  (  3.281132   4.093581  -0.833478)
  44:      1671.90   37.667919  ( -4.137458   3.907087   2.298701)
  45:      3051.10   21.994102  (  1.990686   4.215906  -0.507356)
  46:      3058.00    1.742783  (  0.783364  -0.851704  -0.635393)
  47:      3075.49   14.491673  ( -0.543377  -3.763450  -0.181268)
  48:      3104.35    1.297531  ( -0.511671   0.816253   0.607828)
  49:      3111.97    5.089178  ( -0.539778  -0.249084  -2.176184)
  50:      3138.33    4.747871  ( -0.680803  -1.390304  -1.533439)
  51:      3146.87    8.889097  ( -0.003356   2.797790  -1.030271)
  52:      3170.90    2.420873  ( -1.234486   0.329669   0.887827)
  53:      3173.04    2.464618  ( -0.208959  -1.537570  -0.238395)
  54:      3233.27  178.043243  (-10.970301  -2.582860   7.143149)
  55:      3473.54  110.584604  ( -9.976125  -3.315247  -0.265849)
  56:      3533.75  104.953519  ( -4.706223   8.795399   2.333653)

--------------------------
THERMOCHEMISTRY AT 298.15K
--------------------------

Temperature         ... 298.15 K
Pressure            ... 1.00 atm
Total Mass          ... 102.16 AMU

Throughout the following assumptions are being made:
  (1) The electronic state is orbitally nondegenerate
  (2) There are no thermally accessible electronically excited states
  (3) Hindered rotations indicated by low frequency modes) are not
      treated as such but are treated as vibrations and this may
      case some error
  (4) All equations used are the standard statistical mechanics
      equations for an ideal gas
  (5) All vibrations are strinctly harmonic

------------
INNER ENERGY
------------

The inner energy is: U= E(el) + E(ZPE) + E(vib) + E(rot) + E(trans)
    E(el)   - is the total energy from the electronic structure calculation
              = E(kin-el) + E(nuc-el) + E(el-el) + E(nuc-nuc)
    E(ZPE)  - the the zero temperature vibrational energy from the frequency calculation
    E(vib)  - the the finite temperature correction to E(ZPE) due to population
              of excietd vibrational states
    E(rot)  - is the rotational thermal energy
    E(trans)- is the translational thermal energy

Summary of contributions to the inner energy U:
Electronic energy                ...   -327.20851493 Eh
Zero point energy                ...      0.17624085 Eh     110.59 kcal/mol
Thermal vibrational correction   ...      0.00489622 Eh       3.07 kcal/mol
Thermal rotational correction    ...      0.00141627 Eh       0.89 kcal/mol
Thermal translational correction ...      0.00141627 Eh       0.89 kcal/mol
-----------------------------------------------------------------------
Total thermal energy                   -327.02454532 Eh

Summary of corrections to the electronic energy:
(perhaps to be used in another calculation)
Total thermal correction                  0.00772876 Eh       4.85 kcal/mol
Non-thermal (ZPE) correction              0.17624085 Eh     110.59 kcal/mol
-----------------------------------------------------------------------
Total correction                          0.18396961 Eh     115.44 kcal/mol

--------
ENTHALPY
--------

The enthalpy is H = U + kB*T
                kB is Boltzmann's constant
Total free energy                 ...   -327.02454532 Eh
Thermal Enthalpy correction       ...      0.00094421 Eh       0.59 kcal/mol
-----------------------------------------------------------------------
Total Enthalpy                    ...   -327.02360111 Eh

-------
ENTROPY
-------

The entropy contributions are T*S = T*(S(el)+S(vib)+S(rot)+S(trans)
     S(el)   - electronic entropy
     S(vib)  - vibrational entropy
     S(rot)  - rotational entropy
     S(trans)- translational entropy
The entropies will be listed as mutliplied by the temperature to get
units of energy

Electronic entropy                ...      0.00000000 Eh      0.00 kcal/mol
Vibrational entropy               ...      0.00866167 Eh      5.44 kcal/mol
Rotational entropy                ...      0.01202709 Eh      7.55 kcal/mol
Translational entropy             ...      0.01890147 Eh     11.86 kcal/mol
-----------------------------------------------------------------------
Final entropy term                ...      0.03959022 Eh     24.84 kcal/mol

CAUTION: The rotational entropy is not quite correctly treated here
         because it includes a symmetry number that is not yet correctly
         implemented in ORCA!
For a nonlinear molecule the correct rotational entropy is:
    S(rot) = R*(ln(qrot/sn)+1.5)
    R    = 8.31441 J/mol/K = 1.987191683e-3 kcal/mol/K
    qrot = 227915.3542435
    sn is the rotational symmetry number. We have assumed 3 here
       if it is different for your molecule then you should correct
       the printed rotational entropy by manually evaluating the equation
       as given above

For convenience we print out the resulting values for sn=1 - 12:
 sn= 1  qrot/sn=  227915.3542 T*S(rot)=     8.20 kcal/mol T*S(tot)=    25.49 kcal/mol
 sn= 2  qrot/sn=  113957.6771 T*S(rot)=     7.79 kcal/mol T*S(tot)=    25.08 kcal/mol
 sn= 3  qrot/sn=   75971.7847 T*S(rot)=     7.55 kcal/mol T*S(tot)=    24.84 kcal/mol
 sn= 4  qrot/sn=   56978.8386 T*S(rot)=     7.38 kcal/mol T*S(tot)=    24.67 kcal/mol
 sn= 5  qrot/sn=   45583.0708 T*S(rot)=     7.24 kcal/mol T*S(tot)=    24.54 kcal/mol
 sn= 6  qrot/sn=   37985.8924 T*S(rot)=     7.14 kcal/mol T*S(tot)=    24.43 kcal/mol
 sn= 7  qrot/sn=   32559.3363 T*S(rot)=     7.05 kcal/mol T*S(tot)=    24.34 kcal/mol
 sn= 8  qrot/sn=   28489.4193 T*S(rot)=     6.97 kcal/mol T*S(tot)=    24.26 kcal/mol
 sn= 9  qrot/sn=   25323.9282 T*S(rot)=     6.90 kcal/mol T*S(tot)=    24.19 kcal/mol
 sn=10  qrot/sn=   22791.5354 T*S(rot)=     6.83 kcal/mol T*S(tot)=    24.13 kcal/mol
 sn=11  qrot/sn=   20719.5777 T*S(rot)=     6.78 kcal/mol T*S(tot)=    24.07 kcal/mol
 sn=12  qrot/sn=   18992.9462 T*S(rot)=     6.73 kcal/mol T*S(tot)=    24.02 kcal/mol

-------------------
GIBBS FREE ENTHALPY
-------------------

The Gibbs free enthalpy is G = H - T*S

Total enthalpy                    ...   -327.02360111 Eh
Total entropy correction          ...     -0.03959022 Eh    -24.84 kcal/mol
-----------------------------------------------------------------------
Final Gibbs free enthalpy         ...   -327.06319133 Eh

For completeness - the Gibbs free enthalpy minus the electronic energy
G-E(el)                           ...      0.14532360 Eh     91.19 kcal/mol

                             ****ORCA TERMINATED NORMALLY****
TOTAL RUN TIME: 0 days 0 hours 46 minutes 27 seconds 86 msec
