                         Program Version 3.0.3 - RELEASE   -
|  1> ! NORI PBE0 def2-TZVP UseSym TightOPT Freq TightSCF Grid3 FinalGrid5 XYZFile
|  2> % pal
|  3>     nprocs 8
|  4> end
|  5> %method
|  6>     SymThresh 5.0e-2
|  7> end
|  8> % geom
|  9>     MaxIter 10
| 10> end
| 11> % maxcore 2000
| 12> % output
| 13>     printlevel mini
| 14>     print[ P_Basis ] 0
| 15>     print[ P_SCFInfo ] 1
| 16>     print[ P_SCFIterInfo ] 1
| 17>     print[ P_OrbEn ] 0
| 18>     print[ P_Cartesian ] 0
| 19> end
| 20> % elprop
| 21>     Dipole false
| 22> end
| 23> *xyz 1 1
| 24>  C        1.1060907726    -0.1653174192     0.0136916822
| 25>  C        2.5892481821     0.0482923250    -0.0246332539
| 26>  C        3.2083475418     1.2856125633     0.6507946745
| 27>  C        4.2212775434     0.3598159291     1.3329665584
| 28>  C        5.5766725045     0.2458081972     0.6734559893
| 29>  O        6.0354693005    -1.0480037750     0.9771856888
| 30>  N        3.3865217257    -0.8433664284     0.9306225583
| 31>  H        0.6254555288     0.5747456978    -0.6292457636
| 32>  H        0.7056731257    -0.0358268581     1.0226754700
| 33>  H        0.8300500098    -1.1542949592    -0.3580298323
| 34>  H        2.9945004834    -0.1216583581    -1.0226656887
| 35>  H        2.5243992065     1.7637647115     1.3523296318
| 36>  H        3.6239919458     2.0406902712    -0.0139252606
| 37>  H        4.3187463540     0.4164515135     2.4161316529
| 38>  H        6.2216139243     1.0343388075     1.0763396131
| 39>  H        5.4904010474     0.3989397942    -0.4112224873
| 40>  H        6.9413341591    -1.1677887662     0.6778198498
| 41>  H        3.9460667558    -1.6080620836     0.5449779503
| 42>  H        2.8154898887    -1.2090911627     1.6910809669
| 43> *
| 44>
| 45>                          ****END OF INPUT****
 Total Charge           Charge          ....    1
 Multiplicity           Mult            ....    1
 Number of Electrons    NEL             ....   56
FINAL SINGLE POINT ENERGY      -327.217769146898
FINAL SINGLE POINT ENERGY      -327.217771259219
FINAL SINGLE POINT ENERGY      -327.217773346979
FINAL SINGLE POINT ENERGY      -327.217774142803

CARTESIAN COORDINATES (ANGSTROEM)
---------------------------------
  C      1.013845    0.652518   -2.473861
  C      0.196647    0.620327   -1.217194
  C     -0.920357   -0.425973   -1.052533
  C     -0.340051   -0.777477    0.321665
  C     -1.009320   -0.141716    1.518820
  O      0.000345   -0.008584    2.487747
  N      0.914326    0.012584   -0.008227
  H      0.388119    1.014234   -3.292377
  H      1.372535   -0.343118   -2.747969
  H      1.865634    1.330145   -2.384882
  H     -0.125080    1.619611   -0.922846
  H     -0.839077   -1.239717   -1.773064
  H     -1.940219   -0.046101   -1.055617
  H     -0.095904   -1.819653    0.521104
  H     -1.827947   -0.794768    1.840575
  H     -1.440498    0.832252    1.248286
  H     -0.366660    0.295395    3.322863
  H      1.211381    0.627518    0.753494
  H      1.701732   -0.575258   -0.277204

FINAL SINGLE POINT ENERGY      -327.217774815340
                    ***********************HURRAY********************
 Multiplicity           Mult            ....    1
 Number of Electrons    NEL             ....   56
 Basis Dimension        Dim             ....  289
FINAL SINGLE POINT ENERGY      -327.217775081141

VIBRATIONAL FREQUENCIES
-----------------------

   0:         0.00 cm**-1
   1:         0.00 cm**-1
   2:         0.00 cm**-1
   3:         0.00 cm**-1
   4:         0.00 cm**-1
   5:         0.00 cm**-1
   6:        72.08 cm**-1
   7:       124.58 cm**-1
   8:       210.64 cm**-1
   9:       248.44 cm**-1
  10:       294.88 cm**-1
  11:       319.69 cm**-1
  12:       342.43 cm**-1
  13:       448.57 cm**-1
  14:       518.01 cm**-1
  15:       680.64 cm**-1
  16:       803.22 cm**-1
  17:       843.56 cm**-1
  18:       858.91 cm**-1
  19:       905.70 cm**-1
  20:       933.20 cm**-1
  21:       960.67 cm**-1
  22:      1009.41 cm**-1
  23:      1031.00 cm**-1
  24:      1069.63 cm**-1
  25:      1107.08 cm**-1
  26:      1122.02 cm**-1
  27:      1152.75 cm**-1
  28:      1192.27 cm**-1
  29:      1226.70 cm**-1
  30:      1238.42 cm**-1
  31:      1255.86 cm**-1
  32:      1279.96 cm**-1
  33:      1308.21 cm**-1
  34:      1322.02 cm**-1
  35:      1332.44 cm**-1
  36:      1368.38 cm**-1
  37:      1394.84 cm**-1
  38:      1420.95 cm**-1
  39:      1460.42 cm**-1
  40:      1481.02 cm**-1
  41:      1483.09 cm**-1
  42:      1491.89 cm**-1
  43:      1515.77 cm**-1
  44:      1643.48 cm**-1
  45:      3014.11 cm**-1
  46:      3055.42 cm**-1
  47:      3077.98 cm**-1
  48:      3110.32 cm**-1
  49:      3120.23 cm**-1
  50:      3141.21 cm**-1
  51:      3144.87 cm**-1
  52:      3144.99 cm**-1
  53:      3172.31 cm**-1
  54:      3433.72 cm**-1
  55:      3522.80 cm**-1
  56:      3864.79 cm**-1

IR SPECTRUM
-----------

 Mode    freq (cm**-1)   T**2         TX         TY         TZ
-------------------------------------------------------------------
   6:        72.08    3.505919  ( -0.012149  -1.816770   0.452898)
   7:       124.58    9.497219  ( -0.784314  -1.670934   2.467803)
   8:       210.64    4.630477  ( -0.985431   0.936492   1.668048)
   9:       248.44    0.385827  (  0.094565   0.576399  -0.211302)
  10:       294.88  105.465710  (  0.923861   9.813366  -2.882714)
  11:       319.69   28.265780  (  0.846017   4.047822  -3.341433)
  12:       342.43    9.327359  (  0.029392   2.155139   2.163763)
  13:       448.57    7.176812  (  0.099842  -0.457982  -2.637631)
  14:       518.01    8.985256  ( -2.256231  -1.055081  -1.667777)
  15:       680.64    0.978504  (  0.607404  -0.747848  -0.224248)
  16:       803.22    7.400909  (  0.516792   0.098015   2.669125)
  17:       843.56    5.497247  ( -0.423239   0.623525   2.220210)
  18:       858.91    0.773531  (  0.289268  -0.150960   0.816742)
  19:       905.70   11.020969  ( -0.143674  -0.126580  -3.314258)
  20:       933.20    9.933470  ( -1.821806  -2.038601  -1.567991)
  21:       960.67    1.188184  ( -0.062143  -1.086999   0.052494)
  22:      1009.41   11.485239  (  3.242741   0.634619   0.753080)
  23:      1031.00    5.070789  ( -1.955625   0.013790  -1.116303)
  24:      1069.63    6.007297  ( -1.256050  -1.109283  -1.788611)
  25:      1107.08   15.645062  (  1.367876  -1.338281   3.461644)
  26:      1122.02   69.811569  (  5.167866   0.490112   6.547100)
  27:      1152.75   11.195183  (  0.104223   1.129447  -3.147804)
  28:      1192.27    4.506950  ( -1.954196   0.796306  -0.232303)
  29:      1226.70   41.766030  ( -6.132288  -0.967147  -1.796023)
  30:      1238.42   38.066804  ( -1.426449  -3.314709   5.004473)
  31:      1255.86   40.217631  ( -0.440582  -2.631914   5.752960)
  32:      1279.96   24.588559  ( -0.134740  -2.643441   4.193164)
  33:      1308.21    2.498350  (  1.204654   0.290032   0.981345)
  34:      1322.02   37.931491  (  3.425089   4.445431  -2.537401)
  35:      1332.44    2.128218  ( -0.628101  -1.315333  -0.060046)
  36:      1368.38   11.606228  (  2.705110   0.514762  -2.005898)
  37:      1394.84    4.631569  ( -1.107017   1.077590  -1.498293)
  38:      1420.95   13.973337  ( -1.005073  -0.113735   3.598643)
  39:      1460.42    3.738770  ( -1.000907  -1.217948   1.119624)
  40:      1481.02   10.973845  ( -2.489962  -1.393248  -1.683091)
  41:      1483.09   11.547476  (  1.373613  -3.090432   0.331501)
  42:      1491.89   10.864702  (  2.058577   1.868929   1.770331)
  43:      1515.77    7.952869  (  1.775897  -1.533368  -1.564558)
  44:      1643.48   52.841875  (  6.975883  -0.143565   2.039195)
  45:      3014.11   25.705571  ( -3.264719   2.641637  -2.840586)
  46:      3055.42    1.991194  (  1.015317  -0.942081   0.269833)
  47:      3077.98    6.730250  ( -1.400204  -2.180678   0.119682)
  48:      3110.32    1.085343  ( -0.542428  -0.346309  -0.819259)
  49:      3120.23    0.472565  ( -0.230377  -0.040771   0.646397)
  50:      3141.21    4.791852  (  0.041398  -2.092221  -0.642455)
  51:      3144.87    0.593523  ( -0.768801   0.026174   0.042228)
  52:      3144.99    2.221674  ( -0.406192  -1.077561   0.946332)
  53:      3172.31    0.827853  (  0.604237  -0.503279  -0.457668)
  54:      3433.72   77.624060  ( -4.810187  -2.278645  -7.020964)
  55:      3522.80   84.065555  (  5.057821  -5.551513  -5.259724)
  56:      3864.79  125.928783  (  1.651559  -2.864046 -10.723730)

--------------------------
THERMOCHEMISTRY AT 298.15K
--------------------------

Temperature         ... 298.15 K
Pressure            ... 1.00 atm
Total Mass          ... 102.16 AMU

Throughout the following assumptions are being made:
  (1) The electronic state is orbitally nondegenerate
  (2) There are no thermally accessible electronically excited states
  (3) Hindered rotations indicated by low frequency modes) are not
      treated as such but are treated as vibrations and this may
      case some error
  (4) All equations used are the standard statistical mechanics
      equations for an ideal gas
  (5) All vibrations are strinctly harmonic

------------
INNER ENERGY
------------

The inner energy is: U= E(el) + E(ZPE) + E(vib) + E(rot) + E(trans)
    E(el)   - is the total energy from the electronic structure calculation
              = E(kin-el) + E(nuc-el) + E(el-el) + E(nuc-nuc)
    E(ZPE)  - the the zero temperature vibrational energy from the frequency calculation
    E(vib)  - the the finite temperature correction to E(ZPE) due to population
              of excietd vibrational states
    E(rot)  - is the rotational thermal energy
    E(trans)- is the translational thermal energy

Summary of contributions to the inner energy U:
Electronic energy                ...   -327.21777508 Eh
Zero point energy                ...      0.17604674 Eh     110.47 kcal/mol
Thermal vibrational correction   ...      0.00496949 Eh       3.12 kcal/mol
Thermal rotational correction    ...      0.00141627 Eh       0.89 kcal/mol
Thermal translational correction ...      0.00141627 Eh       0.89 kcal/mol
-----------------------------------------------------------------------
Total thermal energy                   -327.03392631 Eh

Summary of corrections to the electronic energy:
(perhaps to be used in another calculation)
Total thermal correction                  0.00780204 Eh       4.90 kcal/mol
Non-thermal (ZPE) correction              0.17604674 Eh     110.47 kcal/mol
-----------------------------------------------------------------------
Total correction                          0.18384878 Eh     115.37 kcal/mol

--------
ENTHALPY
--------

The enthalpy is H = U + kB*T
                kB is Boltzmann's constant
Total free energy                 ...   -327.03392631 Eh
Thermal Enthalpy correction       ...      0.00094421 Eh       0.59 kcal/mol
-----------------------------------------------------------------------
Total Enthalpy                    ...   -327.03298210 Eh

-------
ENTROPY
-------

The entropy contributions are T*S = T*(S(el)+S(vib)+S(rot)+S(trans)
     S(el)   - electronic entropy
     S(vib)  - vibrational entropy
     S(rot)  - rotational entropy
     S(trans)- translational entropy
The entropies will be listed as mutliplied by the temperature to get
units of energy

Electronic entropy                ...      0.00000000 Eh      0.00 kcal/mol
Vibrational entropy               ...      0.00869813 Eh      5.46 kcal/mol
Rotational entropy                ...      0.01205237 Eh      7.56 kcal/mol
Translational entropy             ...      0.01890147 Eh     11.86 kcal/mol
-----------------------------------------------------------------------
Final entropy term                ...      0.03965197 Eh     24.88 kcal/mol

CAUTION: The rotational entropy is not quite correctly treated here
         because it includes a symmetry number that is not yet correctly
         implemented in ORCA!
For a nonlinear molecule the correct rotational entropy is:
    S(rot) = R*(ln(qrot/sn)+1.5)
    R    = 8.31441 J/mol/K = 1.987191683e-3 kcal/mol/K
    qrot = 234100.7123361
    sn is the rotational symmetry number. We have assumed 3 here
       if it is different for your molecule then you should correct
       the printed rotational entropy by manually evaluating the equation
       as given above

For convenience we print out the resulting values for sn=1 - 12:
 sn= 1  qrot/sn=  234100.7123 T*S(rot)=     8.21 kcal/mol T*S(tot)=    25.53 kcal/mol
 sn= 2  qrot/sn=  117050.3562 T*S(rot)=     7.80 kcal/mol T*S(tot)=    25.12 kcal/mol
 sn= 3  qrot/sn=   78033.5708 T*S(rot)=     7.56 kcal/mol T*S(tot)=    24.88 kcal/mol
 sn= 4  qrot/sn=   58525.1781 T*S(rot)=     7.39 kcal/mol T*S(tot)=    24.71 kcal/mol
 sn= 5  qrot/sn=   46820.1425 T*S(rot)=     7.26 kcal/mol T*S(tot)=    24.58 kcal/mol
 sn= 6  qrot/sn=   39016.7854 T*S(rot)=     7.15 kcal/mol T*S(tot)=    24.47 kcal/mol
 sn= 7  qrot/sn=   33442.9589 T*S(rot)=     7.06 kcal/mol T*S(tot)=    24.38 kcal/mol
 sn= 8  qrot/sn=   29262.5890 T*S(rot)=     6.98 kcal/mol T*S(tot)=    24.30 kcal/mol
 sn= 9  qrot/sn=   26011.1903 T*S(rot)=     6.91 kcal/mol T*S(tot)=    24.23 kcal/mol
 sn=10  qrot/sn=   23410.0712 T*S(rot)=     6.85 kcal/mol T*S(tot)=    24.17 kcal/mol
 sn=11  qrot/sn=   21281.8829 T*S(rot)=     6.79 kcal/mol T*S(tot)=    24.11 kcal/mol
 sn=12  qrot/sn=   19508.3927 T*S(rot)=     6.74 kcal/mol T*S(tot)=    24.06 kcal/mol

-------------------
GIBBS FREE ENTHALPY
-------------------

The Gibbs free enthalpy is G = H - T*S

Total enthalpy                    ...   -327.03298210 Eh
Total entropy correction          ...     -0.03965197 Eh    -24.88 kcal/mol
-----------------------------------------------------------------------
Final Gibbs free enthalpy         ...   -327.07263407 Eh

For completeness - the Gibbs free enthalpy minus the electronic energy
G-E(el)                           ...      0.14514101 Eh     91.08 kcal/mol

                             ****ORCA TERMINATED NORMALLY****
TOTAL RUN TIME: 0 days 0 hours 41 minutes 30 seconds 7 msec
