                         Program Version 3.0.3 - RELEASE   -
|  1> ! NORI PBE0 def2-TZVP UseSym TightOPT Freq TightSCF Grid3 FinalGrid5 XYZFile
|  2> % pal
|  3>     nprocs 8
|  4> end
|  5> %method
|  6>     SymThresh 5.0e-2
|  7> end
|  8> % geom
|  9>     MaxIter 10
| 10> end
| 11> % maxcore 2000
| 12> % output
| 13>     printlevel mini
| 14>     print[ P_Basis ] 0
| 15>     print[ P_SCFInfo ] 1
| 16>     print[ P_SCFIterInfo ] 1
| 17>     print[ P_OrbEn ] 0
| 18>     print[ P_Cartesian ] 0
| 19> end
| 20> % elprop
| 21>     Dipole false
| 22> end
| 23> *xyz 1 1
| 24>  C        1.0592871312    -0.1172558849     0.0400259793
| 25>  C        2.5466639424     0.0887568305    -0.0792654362
| 26>  C        3.2410720517     1.1592242830     0.7712781504
| 27>  C        4.2425210689     0.0993848870     1.2351779529
| 28>  N        3.3767294264    -0.9974626858     0.6346497681
| 29>  C        2.9546699852     0.1143588197    -1.5547939759
| 30>  O        3.3579886674     1.0977423853    -2.0882602193
| 31>  H        0.7216329475    -0.9946251752    -0.5183593528
| 32>  H        0.5504322524     0.7583795093    -0.3697047183
| 33>  H        0.7550474192    -0.2178986408     1.0848957196
| 34>  H        2.6111118542     1.5435806830     1.5721311191
| 35>  H        3.6521953061     1.9856861753     0.1950202324
| 36>  H        5.1994910015     0.1192724844     0.7182379490
| 37>  H        4.3950593846    -0.0442018236     2.3020497934
| 38>  H        3.8503426018    -1.6829815739     0.0436824712
| 39>  H        2.8312070670    -1.5049603091     1.3311736391
| 40>  H        2.8104778925    -0.8441299641    -2.1000290723
| 41> *
| 42>
| 43>                          ****END OF INPUT****
 Total Charge           Charge          ....    1
 Multiplicity           Mult            ....    1
 Number of Electrons    NEL             ....   54
FINAL SINGLE POINT ENERGY      -325.984174877968

CARTESIAN COORDINATES (ANGSTROEM)
---------------------------------
  C     -1.022866    1.523031   -0.640920
  C     -0.208977    0.341168   -0.182537
  C     -0.753678   -1.080311   -0.367895
  C      0.563298   -1.465262   -1.044763
  N      0.963542   -0.000129   -1.124432
  C      0.357576    0.605998    1.215199
  O     -0.000511    0.000231    2.173815
  H     -0.461064    2.458308   -0.571029
  H     -1.903459    1.611058   -0.000626
  H     -1.372509    1.390161   -1.667852
  H     -1.614886   -1.124050   -1.033107
  H     -0.979823   -1.593635    0.564348
  H      1.268289   -1.991323   -0.404095
  H      0.529986   -1.929566   -2.027132
  H      1.902984    0.236200   -0.800601
  H      0.840735    0.399860   -2.054641
  H      1.097770    1.433905    1.274320

FINAL SINGLE POINT ENERGY      -325.984175154141
                    ***********************HURRAY********************
 Multiplicity           Mult            ....    1
 Number of Electrons    NEL             ....   54
 Basis Dimension        Dim             ....  277
FINAL SINGLE POINT ENERGY      -325.984175190858

VIBRATIONAL FREQUENCIES
-----------------------

   0:         0.00 cm**-1
   1:         0.00 cm**-1
   2:         0.00 cm**-1
   3:         0.00 cm**-1
   4:         0.00 cm**-1
   5:         0.00 cm**-1
   6:        59.81 cm**-1
   7:        98.54 cm**-1
   8:       227.37 cm**-1
   9:       263.98 cm**-1
  10:       303.72 cm**-1
  11:       322.17 cm**-1
  12:       360.44 cm**-1
  13:       555.15 cm**-1
  14:       651.44 cm**-1
  15:       755.80 cm**-1
  16:       806.37 cm**-1
  17:       841.41 cm**-1
  18:       892.29 cm**-1
  19:       916.98 cm**-1
  20:       936.43 cm**-1
  21:       964.44 cm**-1
  22:      1006.80 cm**-1
  23:      1016.09 cm**-1
  24:      1088.80 cm**-1
  25:      1125.95 cm**-1
  26:      1218.05 cm**-1
  27:      1226.44 cm**-1
  28:      1255.75 cm**-1
  29:      1288.59 cm**-1
  30:      1310.26 cm**-1
  31:      1330.51 cm**-1
  32:      1342.57 cm**-1
  33:      1397.22 cm**-1
  34:      1412.32 cm**-1
  35:      1475.94 cm**-1
  36:      1480.88 cm**-1
  37:      1485.72 cm**-1
  38:      1499.64 cm**-1
  39:      1639.92 cm**-1
  40:      1873.00 cm**-1
  41:      2913.46 cm**-1
  42:      3052.05 cm**-1
  43:      3119.41 cm**-1
  44:      3126.60 cm**-1
  45:      3133.44 cm**-1
  46:      3143.67 cm**-1
  47:      3181.35 cm**-1
  48:      3199.59 cm**-1
  49:      3444.15 cm**-1
  50:      3516.09 cm**-1

IR SPECTRUM
-----------

 Mode    freq (cm**-1)   T**2         TX         TY         TZ
-------------------------------------------------------------------
   6:        59.81    8.787605  ( -1.813695   1.928278   1.334113)
   7:        98.54    0.937544  ( -0.184267   0.655110   0.688782)
   8:       227.37    2.957473  ( -0.718417  -1.540386  -0.261839)
   9:       263.98    1.835939  ( -0.807042  -1.009993  -0.405632)
  10:       303.72    3.020164  (  1.190676  -0.043524   1.265133)
  11:       322.17    3.415705  (  1.453546  -0.089143   1.137965)
  12:       360.44    1.120454  ( -0.034028   0.437139  -0.963434)
  13:       555.15    1.430490  ( -0.234252  -0.473854  -1.072883)
  14:       651.44    1.150286  ( -0.468054  -0.672883  -0.691693)
  15:       755.80   18.143424  (  1.665689   1.551348   3.600309)
  16:       806.37    1.047991  ( -0.727607   0.610233   0.382353)
  17:       841.41   19.414242  (  3.243268  -0.774997   2.880075)
  18:       892.29    3.044499  (  0.276608   0.884345   1.478486)
  19:       916.98    9.071827  (  1.285328   2.637507   0.680674)
  20:       936.43   16.586328  ( -1.045692  -0.989889  -3.809590)
  21:       964.44    5.350956  ( -0.896049  -1.890966  -0.986053)
  22:      1006.80    2.031805  ( -0.414248  -1.358107   0.125496)
  23:      1016.09    0.163574  (  0.146325   0.338736  -0.165592)
  24:      1088.80    7.181865  ( -1.190606   1.654662   1.739660)
  25:      1125.95   20.508234  ( -3.326501   0.725050   2.986123)
  26:      1218.05    3.263399  ( -0.260159   1.099687   1.409398)
  27:      1226.44   30.426198  (  1.531730  -4.176185  -3.261822)
  28:      1255.75    8.780045  ( -2.480600   1.611106   0.176095)
  29:      1288.59   10.159236  ( -1.148578   1.902450   2.284883)
  30:      1310.26   49.204855  (  3.571755  -5.692184  -2.011582)
  31:      1330.51    1.769103  ( -0.668573   0.893382   0.723865)
  32:      1342.57    3.752116  ( -0.285799   1.729587   0.823992)
  33:      1397.22   11.740868  ( -0.242417   3.236747   1.097985)
  34:      1412.32    7.296573  (  2.169102  -1.293947   0.957741)
  35:      1475.94   17.116042  ( -3.316930  -0.711429   2.368098)
  36:      1480.88   11.177417  (  1.593581   2.071964   2.084437)
  37:      1485.72   13.585323  (  3.375261   1.139592   0.945655)
  38:      1499.64   10.321155  (  0.045846  -3.209718   0.129476)
  39:      1639.92   54.953410  ( -5.185175  -2.868751   4.453946)
  40:      1873.00  124.134419  (  1.627484   3.824929 -10.337100)
  41:      2913.46   41.139570  ( -4.340936  -4.720366  -0.118296)
  42:      3052.05    2.730550  ( -1.213388   0.086245   1.118392)
  43:      3119.41    2.075159  ( -0.444852   0.146284  -1.362302)
  44:      3126.60    0.474496  ( -0.600255   0.321644   0.103611)
  45:      3133.44    2.237096  (  0.537459   1.016607   0.956423)
  46:      3143.67    1.481816  ( -0.825897   0.891526   0.069927)
  47:      3181.35    1.806528  ( -0.367674   0.069163   1.290953)
  48:      3199.59    0.892256  (  0.335236  -0.437063   0.767365)
  49:      3444.15   49.814018  ( -5.710743  -3.217832   2.616676)
  50:      3516.09   75.264188  (  4.341337  -1.654936   7.326539)

--------------------------
THERMOCHEMISTRY AT 298.15K
--------------------------

Temperature         ... 298.15 K
Pressure            ... 1.00 atm
Total Mass          ... 100.14 AMU

Throughout the following assumptions are being made:
  (1) The electronic state is orbitally nondegenerate
  (2) There are no thermally accessible electronically excited states
  (3) Hindered rotations indicated by low frequency modes) are not
      treated as such but are treated as vibrations and this may
      case some error
  (4) All equations used are the standard statistical mechanics
      equations for an ideal gas
  (5) All vibrations are strinctly harmonic

------------
INNER ENERGY
------------

The inner energy is: U= E(el) + E(ZPE) + E(vib) + E(rot) + E(trans)
    E(el)   - is the total energy from the electronic structure calculation
              = E(kin-el) + E(nuc-el) + E(el-el) + E(nuc-nuc)
    E(ZPE)  - the the zero temperature vibrational energy from the frequency calculation
    E(vib)  - the the finite temperature correction to E(ZPE) due to population
              of excietd vibrational states
    E(rot)  - is the rotational thermal energy
    E(trans)- is the translational thermal energy

Summary of contributions to the inner energy U:
Electronic energy                ...   -325.98417519 Eh
Zero point energy                ...      0.15095276 Eh      94.72 kcal/mol
Thermal vibrational correction   ...      0.00469274 Eh       2.94 kcal/mol
Thermal rotational correction    ...      0.00141627 Eh       0.89 kcal/mol
Thermal translational correction ...      0.00141627 Eh       0.89 kcal/mol
-----------------------------------------------------------------------
Total thermal energy                   -325.82569715 Eh

Summary of corrections to the electronic energy:
(perhaps to be used in another calculation)
Total thermal correction                  0.00752528 Eh       4.72 kcal/mol
Non-thermal (ZPE) correction              0.15095276 Eh      94.72 kcal/mol
-----------------------------------------------------------------------
Total correction                          0.15847804 Eh      99.45 kcal/mol

--------
ENTHALPY
--------

The enthalpy is H = U + kB*T
                kB is Boltzmann's constant
Total free energy                 ...   -325.82569715 Eh
Thermal Enthalpy correction       ...      0.00094421 Eh       0.59 kcal/mol
-----------------------------------------------------------------------
Total Enthalpy                    ...   -325.82475294 Eh

-------
ENTROPY
-------

The entropy contributions are T*S = T*(S(el)+S(vib)+S(rot)+S(trans)
     S(el)   - electronic entropy
     S(vib)  - vibrational entropy
     S(rot)  - rotational entropy
     S(trans)- translational entropy
The entropies will be listed as mutliplied by the temperature to get
units of energy

Electronic entropy                ...      0.00000000 Eh      0.00 kcal/mol
Vibrational entropy               ...      0.00852023 Eh      5.35 kcal/mol
Rotational entropy                ...      0.01193685 Eh      7.49 kcal/mol
Translational entropy             ...      0.01887324 Eh     11.84 kcal/mol
-----------------------------------------------------------------------
Final entropy term                ...      0.03933032 Eh     24.68 kcal/mol

CAUTION: The rotational entropy is not quite correctly treated here
         because it includes a symmetry number that is not yet correctly
         implemented in ORCA!
For a nonlinear molecule the correct rotational entropy is:
    S(rot) = R*(ln(qrot/sn)+1.5)
    R    = 8.31441 J/mol/K = 1.987191683e-3 kcal/mol/K
    qrot = 207141.4950866
    sn is the rotational symmetry number. We have assumed 3 here
       if it is different for your molecule then you should correct
       the printed rotational entropy by manually evaluating the equation
       as given above

For convenience we print out the resulting values for sn=1 - 12:
 sn= 1  qrot/sn=  207141.4951 T*S(rot)=     8.14 kcal/mol T*S(tot)=    25.33 kcal/mol
 sn= 2  qrot/sn=  103570.7475 T*S(rot)=     7.73 kcal/mol T*S(tot)=    24.92 kcal/mol
 sn= 3  qrot/sn=   69047.1650 T*S(rot)=     7.49 kcal/mol T*S(tot)=    24.68 kcal/mol
 sn= 4  qrot/sn=   51785.3738 T*S(rot)=     7.32 kcal/mol T*S(tot)=    24.51 kcal/mol
 sn= 5  qrot/sn=   41428.2990 T*S(rot)=     7.19 kcal/mol T*S(tot)=    24.38 kcal/mol
 sn= 6  qrot/sn=   34523.5825 T*S(rot)=     7.08 kcal/mol T*S(tot)=    24.27 kcal/mol
 sn= 7  qrot/sn=   29591.6422 T*S(rot)=     6.99 kcal/mol T*S(tot)=    24.18 kcal/mol
 sn= 8  qrot/sn=   25892.6869 T*S(rot)=     6.91 kcal/mol T*S(tot)=    24.10 kcal/mol
 sn= 9  qrot/sn=   23015.7217 T*S(rot)=     6.84 kcal/mol T*S(tot)=    24.03 kcal/mol
 sn=10  qrot/sn=   20714.1495 T*S(rot)=     6.78 kcal/mol T*S(tot)=    23.97 kcal/mol
 sn=11  qrot/sn=   18831.0450 T*S(rot)=     6.72 kcal/mol T*S(tot)=    23.91 kcal/mol
 sn=12  qrot/sn=   17261.7913 T*S(rot)=     6.67 kcal/mol T*S(tot)=    23.86 kcal/mol

-------------------
GIBBS FREE ENTHALPY
-------------------

The Gibbs free enthalpy is G = H - T*S

Total enthalpy                    ...   -325.82475294 Eh
Total entropy correction          ...     -0.03933032 Eh    -24.68 kcal/mol
-----------------------------------------------------------------------
Final Gibbs free enthalpy         ...   -325.86408326 Eh

For completeness - the Gibbs free enthalpy minus the electronic energy
G-E(el)                           ...      0.12009193 Eh     75.36 kcal/mol

                             ****ORCA TERMINATED NORMALLY****
TOTAL RUN TIME: 0 days 0 hours 32 minutes 42 seconds 30 msec
