                         Program Version 3.0.3 - RELEASE   -
|  1> ! NORI PBE0 def2-TZVP UseSym TightOPT Freq TightSCF Grid3 FinalGrid5 XYZFile
|  2> % pal
|  3>     nprocs 8
|  4> end
|  5> %method
|  6>     SymThresh 5.0e-2
|  7> end
|  8> % geom
|  9>     MaxIter 10
| 10> end
| 11> % maxcore 2000
| 12> % output
| 13>     printlevel mini
| 14>     print[ P_Basis ] 0
| 15>     print[ P_SCFInfo ] 1
| 16>     print[ P_SCFIterInfo ] 1
| 17>     print[ P_OrbEn ] 0
| 18>     print[ P_Cartesian ] 0
| 19> end
| 20> % elprop
| 21>     Dipole false
| 22> end
| 23> *xyz 1 1
| 24>  C        0.8826855370    -0.0034348144     0.1932234864
| 25>  C        2.3654164542     0.1265167457     0.0311082143
| 26>  C        3.1731742757     1.0387002447     0.9675925613
| 27>  C        4.1388351020    -0.1176540680     1.2099477112
| 28>  N        3.1699124650    -1.0854244323     0.5517828044
| 29>  C        5.4574088479    -0.0545040583     0.4467822622
| 30>  O        5.9237231545     0.9793357819     0.0881877027
| 31>  H        0.4715415845    -0.7992450048    -0.4313254974
| 32>  H        0.4165927419     0.9334976464    -0.1201797327
| 33>  H        0.6020630078    -0.1768256057     1.2354869589
| 34>  H        2.6535546433     0.2552457913    -1.0134524553
| 35>  H        2.6183666365     1.3354357563     1.8569134921
| 36>  H        3.6324766975     1.9127561504     0.5102377940
| 37>  H        4.3478421772    -0.4085577412     2.2422901031
| 38>  H        3.5554916438    -1.7195978526    -0.1501402110
| 39>  H        2.6378880740    -1.6402493894     1.2223809852
| 40>  H        5.9592469572    -1.0296051501     0.2716738206
| 41> *
| 42>
| 43>                          ****END OF INPUT****
 Total Charge           Charge          ....    1
 Multiplicity           Mult            ....    1
 Number of Electrons    NEL             ....   54
FINAL SINGLE POINT ENERGY      -325.984008394847

CARTESIAN COORDINATES (ANGSTROEM)
---------------------------------
  C     -0.784248    0.754604   -2.490145
  C     -0.395547    0.660857   -1.047235
  C     -1.041732   -0.393562   -0.134758
  C      0.353870   -0.807016    0.323344
  N      0.979330    0.000178   -0.801929
  C      0.789889   -0.280926    1.686541
  O      0.000207    0.000469    2.530282
  H     -0.133805    1.433897   -3.045098
  H     -1.800353    1.150847   -2.550049
  H     -0.785072   -0.225549   -2.974464
  H     -0.350040    1.641292   -0.570439
  H     -1.566047   -1.172031   -0.687982
  H     -1.677646   -0.015305    0.663276
  H      0.629142   -1.862217    0.253192
  H      1.751451    0.620408   -0.551871
  H      1.276171   -0.573639   -1.591330
  H      1.886621   -0.203607    1.844234

FINAL SINGLE POINT ENERGY      -325.984008739738
                    ***********************HURRAY********************
 Multiplicity           Mult            ....    1
 Number of Electrons    NEL             ....   54
 Basis Dimension        Dim             ....  277
FINAL SINGLE POINT ENERGY      -325.984008365098

VIBRATIONAL FREQUENCIES
-----------------------

   0:         0.00 cm**-1
   1:         0.00 cm**-1
   2:         0.00 cm**-1
   3:         0.00 cm**-1
   4:         0.00 cm**-1
   5:         0.00 cm**-1
   6:        53.21 cm**-1
   7:        96.59 cm**-1
   8:       200.49 cm**-1
   9:       248.78 cm**-1
  10:       295.73 cm**-1
  11:       349.57 cm**-1
  12:       435.96 cm**-1
  13:       608.40 cm**-1
  14:       666.98 cm**-1
  15:       764.85 cm**-1
  16:       815.41 cm**-1
  17:       875.56 cm**-1
  18:       899.67 cm**-1
  19:       924.70 cm**-1
  20:       955.39 cm**-1
  21:       983.99 cm**-1
  22:      1019.04 cm**-1
  23:      1089.39 cm**-1
  24:      1094.32 cm**-1
  25:      1157.05 cm**-1
  26:      1162.43 cm**-1
  27:      1243.81 cm**-1
  28:      1254.67 cm**-1
  29:      1285.02 cm**-1
  30:      1297.87 cm**-1
  31:      1333.06 cm**-1
  32:      1355.75 cm**-1
  33:      1393.12 cm**-1
  34:      1402.32 cm**-1
  35:      1420.72 cm**-1
  36:      1478.84 cm**-1
  37:      1481.97 cm**-1
  38:      1488.24 cm**-1
  39:      1637.87 cm**-1
  40:      1872.03 cm**-1
  41:      2925.03 cm**-1
  42:      3054.59 cm**-1
  43:      3106.04 cm**-1
  44:      3112.74 cm**-1
  45:      3118.10 cm**-1
  46:      3139.93 cm**-1
  47:      3145.09 cm**-1
  48:      3178.03 cm**-1
  49:      3443.49 cm**-1
  50:      3517.00 cm**-1

IR SPECTRUM
-----------

 Mode    freq (cm**-1)   T**2         TX         TY         TZ
-------------------------------------------------------------------
   6:        53.21    7.002957  ( -0.418740   2.360360  -1.120855)
   7:        96.59    3.668563  ( -0.177410   0.819258  -1.722180)
   8:       200.49    7.889371  ( -2.574390  -0.038134  -1.122690)
   9:       248.78    0.780234  (  0.349401   0.785080   0.204454)
  10:       295.73    2.018215  (  0.536122  -1.041756  -0.803450)
  11:       349.57    1.022104  ( -1.004691  -0.038729  -0.105832)
  12:       435.96    4.006518  ( -0.697061  -0.907386  -1.642338)
  13:       608.40    2.526731  ( -0.762586   0.061800  -1.393332)
  14:       666.98    0.172336  (  0.333106   0.170200  -0.180024)
  15:       764.85   27.622009  (  3.090006   0.457070   4.226696)
  16:       815.41    8.137669  ( -0.362996  -1.666942  -2.286309)
  17:       875.56    2.887449  ( -0.368238   1.040222   1.292202)
  18:       899.67   13.698401  (  2.563885   0.363886   2.644331)
  19:       924.70    4.464288  (  0.110066   1.625383  -1.345475)
  20:       955.39    2.042916  ( -0.180309   1.396047  -0.247909)
  21:       983.99    7.362048  ( -0.364158  -0.539369   2.634107)
  22:      1019.04    5.198732  (  1.541772  -0.164083  -1.671749)
  23:      1089.39   27.850517  ( -3.873313   1.610585  -3.202183)
  24:      1094.32    6.530490  (  1.546061   0.150076   2.029202)
  25:      1157.05    1.356428  ( -0.613274  -0.979240  -0.146328)
  26:      1162.43    3.170096  ( -0.096660   1.732577   0.398662)
  27:      1243.81    7.552685  (  1.500025  -1.347759   1.867125)
  28:      1254.67   42.895995  ( -2.350016   2.969492  -5.343738)
  29:      1285.02   15.889744  ( -1.804822   2.393029  -2.627883)
  30:      1297.87   27.738626  (  1.274973  -4.917939   1.388146)
  31:      1333.06   10.409380  ( -0.308462  -2.796667   1.578888)
  32:      1355.75    0.816477  (  0.202834   0.873881   0.108013)
  33:      1393.12    2.613442  (  1.000598  -0.590977   1.123829)
  34:      1402.32   17.887584  (  2.938337  -1.626658   2.570553)
  35:      1420.72   20.053205  ( -2.195388   0.447399  -3.877281)
  36:      1478.84   13.860925  (  3.196926   1.702881  -0.860691)
  37:      1481.97   12.799661  ( -1.137007   3.146023   1.268627)
  38:      1488.24   13.392818  (  3.082057   1.842166  -0.707223)
  39:      1637.87   52.400646  (  6.485054  -0.206526  -3.209683)
  40:      1872.03  119.829406  (  4.703549  -2.044816  -9.670820)
  41:      2925.03   42.865382  (  6.498664   0.256127   0.753090)
  42:      3054.59    2.652532  ( -1.161244   1.121550   0.214874)
  43:      3106.04    5.252729  (  0.777680   0.966778   1.926988)
  44:      3112.74    0.105113  (  0.280331  -0.153220   0.055237)
  45:      3118.10    1.753169  ( -0.134637   0.005077  -1.317200)
  46:      3139.93    3.552838  (  0.704527   1.491255   0.912489)
  47:      3145.09    1.451616  (  0.193989  -0.761594   0.913213)
  48:      3178.03    1.915710  (  0.425141  -0.265934  -1.290056)
  49:      3443.49   48.986691  (  6.666992   0.884158  -1.938084)
  50:      3517.00   78.726106  ( -0.971223  -5.902432  -6.553177)

--------------------------
THERMOCHEMISTRY AT 298.15K
--------------------------

Temperature         ... 298.15 K
Pressure            ... 1.00 atm
Total Mass          ... 100.14 AMU

Throughout the following assumptions are being made:
  (1) The electronic state is orbitally nondegenerate
  (2) There are no thermally accessible electronically excited states
  (3) Hindered rotations indicated by low frequency modes) are not
      treated as such but are treated as vibrations and this may
      case some error
  (4) All equations used are the standard statistical mechanics
      equations for an ideal gas
  (5) All vibrations are strinctly harmonic

------------
INNER ENERGY
------------

The inner energy is: U= E(el) + E(ZPE) + E(vib) + E(rot) + E(trans)
    E(el)   - is the total energy from the electronic structure calculation
              = E(kin-el) + E(nuc-el) + E(el-el) + E(nuc-nuc)
    E(ZPE)  - the the zero temperature vibrational energy from the frequency calculation
    E(vib)  - the the finite temperature correction to E(ZPE) due to population
              of excietd vibrational states
    E(rot)  - is the rotational thermal energy
    E(trans)- is the translational thermal energy

Summary of contributions to the inner energy U:
Electronic energy                ...   -325.98400837 Eh
Zero point energy                ...      0.15123121 Eh      94.90 kcal/mol
Thermal vibrational correction   ...      0.00460758 Eh       2.89 kcal/mol
Thermal rotational correction    ...      0.00141627 Eh       0.89 kcal/mol
Thermal translational correction ...      0.00141627 Eh       0.89 kcal/mol
-----------------------------------------------------------------------
Total thermal energy                   -325.82533703 Eh

Summary of corrections to the electronic energy:
(perhaps to be used in another calculation)
Total thermal correction                  0.00744012 Eh       4.67 kcal/mol
Non-thermal (ZPE) correction              0.15123121 Eh      94.90 kcal/mol
-----------------------------------------------------------------------
Total correction                          0.15867134 Eh      99.57 kcal/mol

--------
ENTHALPY
--------

The enthalpy is H = U + kB*T
                kB is Boltzmann's constant
Total free energy                 ...   -325.82533703 Eh
Thermal Enthalpy correction       ...      0.00094421 Eh       0.59 kcal/mol
-----------------------------------------------------------------------
Total Enthalpy                    ...   -325.82439282 Eh

-------
ENTROPY
-------

The entropy contributions are T*S = T*(S(el)+S(vib)+S(rot)+S(trans)
     S(el)   - electronic entropy
     S(vib)  - vibrational entropy
     S(rot)  - rotational entropy
     S(trans)- translational entropy
The entropies will be listed as mutliplied by the temperature to get
units of energy

Electronic entropy                ...      0.00000000 Eh      0.00 kcal/mol
Vibrational entropy               ...      0.00853500 Eh      5.36 kcal/mol
Rotational entropy                ...      0.01199472 Eh      7.53 kcal/mol
Translational entropy             ...      0.01887324 Eh     11.84 kcal/mol
-----------------------------------------------------------------------
Final entropy term                ...      0.03940296 Eh     24.73 kcal/mol

CAUTION: The rotational entropy is not quite correctly treated here
         because it includes a symmetry number that is not yet correctly
         implemented in ORCA!
For a nonlinear molecule the correct rotational entropy is:
    S(rot) = R*(ln(qrot/sn)+1.5)
    R    = 8.31441 J/mol/K = 1.987191683e-3 kcal/mol/K
    qrot = 220234.9825789
    sn is the rotational symmetry number. We have assumed 3 here
       if it is different for your molecule then you should correct
       the printed rotational entropy by manually evaluating the equation
       as given above

For convenience we print out the resulting values for sn=1 - 12:
 sn= 1  qrot/sn=  220234.9826 T*S(rot)=     8.18 kcal/mol T*S(tot)=    25.38 kcal/mol
 sn= 2  qrot/sn=  110117.4913 T*S(rot)=     7.77 kcal/mol T*S(tot)=    24.97 kcal/mol
 sn= 3  qrot/sn=   73411.6609 T*S(rot)=     7.53 kcal/mol T*S(tot)=    24.73 kcal/mol
 sn= 4  qrot/sn=   55058.7456 T*S(rot)=     7.36 kcal/mol T*S(tot)=    24.56 kcal/mol
 sn= 5  qrot/sn=   44046.9965 T*S(rot)=     7.22 kcal/mol T*S(tot)=    24.42 kcal/mol
 sn= 6  qrot/sn=   36705.8304 T*S(rot)=     7.12 kcal/mol T*S(tot)=    24.32 kcal/mol
 sn= 7  qrot/sn=   31462.1404 T*S(rot)=     7.02 kcal/mol T*S(tot)=    24.22 kcal/mol
 sn= 8  qrot/sn=   27529.3728 T*S(rot)=     6.95 kcal/mol T*S(tot)=    24.14 kcal/mol
 sn= 9  qrot/sn=   24470.5536 T*S(rot)=     6.88 kcal/mol T*S(tot)=    24.07 kcal/mol
 sn=10  qrot/sn=   22023.4983 T*S(rot)=     6.81 kcal/mol T*S(tot)=    24.01 kcal/mol
 sn=11  qrot/sn=   20021.3621 T*S(rot)=     6.76 kcal/mol T*S(tot)=    23.96 kcal/mol
 sn=12  qrot/sn=   18352.9152 T*S(rot)=     6.71 kcal/mol T*S(tot)=    23.90 kcal/mol

-------------------
GIBBS FREE ENTHALPY
-------------------

The Gibbs free enthalpy is G = H - T*S

Total enthalpy                    ...   -325.82439282 Eh
Total entropy correction          ...     -0.03940296 Eh    -24.73 kcal/mol
-----------------------------------------------------------------------
Final Gibbs free enthalpy         ...   -325.86379578 Eh

For completeness - the Gibbs free enthalpy minus the electronic energy
G-E(el)                           ...      0.12021258 Eh     75.43 kcal/mol

                             ****ORCA TERMINATED NORMALLY****
TOTAL RUN TIME: 0 days 0 hours 30 minutes 22 seconds 75 msec
