                         Program Version 3.0.3 - RELEASE   -
|  1> ! NORI PBE0 def2-TZVP UseSym TightOPT Freq TightSCF Grid3 FinalGrid5 XYZFile
|  2> % pal
|  3>     nprocs 8
|  4> end
|  5> %method
|  6>     SymThresh 5.0e-2
|  7> end
|  8> % geom
|  9>     MaxIter 10
| 10> end
| 11> % maxcore 2000
| 12> % output
| 13>     printlevel mini
| 14>     print[ P_Basis ] 0
| 15>     print[ P_SCFInfo ] 1
| 16>     print[ P_SCFIterInfo ] 1
| 17>     print[ P_OrbEn ] 0
| 18>     print[ P_Cartesian ] 0
| 19> end
| 20> % elprop
| 21>     Dipole false
| 22> end
| 23> *xyz 1 1
| 24>  C        0.9750449219     0.0876327938    -0.2574542463
| 25>  C        2.4260294115    -0.1472648149     0.0828465744
| 26>  C        2.7326684455    -0.2650467647     1.5524435624
| 27>  C        3.2615270032    -0.9977530684    -0.8385840736
| 28>  N        2.6581315642    -1.6599129100    -2.0196995240
| 29>  C        3.4509824483     0.4781854358    -0.8413849371
| 30>  O        4.6898536986     0.8848064978    -0.4091423095
| 31>  H        0.8009337477     0.3080972768    -1.3176538714
| 32>  H        0.6079783036     0.9594078433     0.2874545911
| 33>  H        0.3494202987    -0.7619115194     0.0313314890
| 34>  H        3.7995511902    -0.3989250844     1.7324179753
| 35>  H        2.1958595256    -1.1067984345     1.9953126270
| 36>  H        2.4148287366     0.6414727918     2.0727962921
| 37>  H        4.0586782321    -1.5970498191    -0.4160848416
| 38>  H        1.8087105219    -1.1693998376    -2.3092447186
| 39>  H        2.3932534554    -2.6252453905    -1.8092784045
| 40>  H        3.3034997855    -1.6744134919    -2.8140358659
| 41>  H        3.0353073439     1.0286772603    -1.6887235775
| 42>  H        4.6351013656     1.7753212360    -0.0468367414
| 43> *
| 44>
| 45>                          ****END OF INPUT****
 Total Charge           Charge          ....    1
 Multiplicity           Mult            ....    1
 Number of Electrons    NEL             ....   56
FINAL SINGLE POINT ENERGY      -327.197961719338
FINAL SINGLE POINT ENERGY      -327.197962902257

CARTESIAN COORDINATES (ANGSTROEM)
---------------------------------
  C     -0.865378    0.976871   -1.460268
  C     -0.598611   -0.013461   -0.354014
  C     -1.666717   -1.054645   -0.148983
  C      0.818247   -0.459675   -0.100307
  N      1.929482   -0.001194   -0.967432
  C      0.178123    0.497596    0.842158
  O     -0.000782    0.000382    2.110090
  H     -0.145031    1.802820   -1.494656
  H     -1.840109    1.443468   -1.305812
  H     -0.890289    0.491724   -2.440018
  H     -1.431301   -1.714752    0.686197
  H     -1.795304   -1.661671   -1.047744
  H     -2.622362   -0.570630    0.064288
  H      0.991278   -1.466021    0.260165
  H      1.684201    0.876954   -1.430986
  H      2.133528   -0.683739   -1.701592
  H      2.787330    0.151919   -0.430634
  H      0.493028    1.541536    0.777204
  H     -0.739370    0.447332    2.536909

FINAL SINGLE POINT ENERGY      -327.197963303982
                    ***********************HURRAY********************
 Multiplicity           Mult            ....    1
 Number of Electrons    NEL             ....   56
 Basis Dimension        Dim             ....  289
FINAL SINGLE POINT ENERGY      -327.197963424295

VIBRATIONAL FREQUENCIES
-----------------------

   0:         0.00 cm**-1
   1:         0.00 cm**-1
   2:         0.00 cm**-1
   3:         0.00 cm**-1
   4:         0.00 cm**-1
   5:         0.00 cm**-1
   6:       154.78 cm**-1
   7:       179.38 cm**-1
   8:       190.89 cm**-1
   9:       209.24 cm**-1
  10:       239.71 cm**-1
  11:       263.81 cm**-1
  12:       296.08 cm**-1
  13:       311.44 cm**-1
  14:       362.88 cm**-1
  15:       373.57 cm**-1
  16:       503.91 cm**-1
  17:       562.31 cm**-1
  18:       710.36 cm**-1
  19:       796.18 cm**-1
  20:       901.08 cm**-1
  21:       971.27 cm**-1
  22:       972.29 cm**-1
  23:       980.36 cm**-1
  24:       996.65 cm**-1
  25:      1053.66 cm**-1
  26:      1101.12 cm**-1
  27:      1109.01 cm**-1
  28:      1142.85 cm**-1
  29:      1176.36 cm**-1
  30:      1226.44 cm**-1
  31:      1275.78 cm**-1
  32:      1298.77 cm**-1
  33:      1322.61 cm**-1
  34:      1384.27 cm**-1
  35:      1413.48 cm**-1
  36:      1423.67 cm**-1
  37:      1469.28 cm**-1
  38:      1482.73 cm**-1
  39:      1484.66 cm**-1
  40:      1491.80 cm**-1
  41:      1511.96 cm**-1
  42:      1524.06 cm**-1
  43:      1650.43 cm**-1
  44:      1659.17 cm**-1
  45:      3029.20 cm**-1
  46:      3061.64 cm**-1
  47:      3088.97 cm**-1
  48:      3101.95 cm**-1
  49:      3132.64 cm**-1
  50:      3134.23 cm**-1
  51:      3153.39 cm**-1
  52:      3210.19 cm**-1
  53:      3407.71 cm**-1
  54:      3485.16 cm**-1
  55:      3488.38 cm**-1
  56:      3838.65 cm**-1

IR SPECTRUM
-----------

 Mode    freq (cm**-1)   T**2         TX         TY         TZ
-------------------------------------------------------------------
   6:       154.78    3.094204  ( -1.627224   0.510296  -0.431214)
   7:       179.38    2.715474  ( -1.042570   1.115070  -0.620597)
   8:       190.89    3.510833  ( -1.457657  -0.540385  -1.045971)
   9:       209.24    4.377655  ( -0.550328  -1.733587  -1.034153)
  10:       239.71   23.458050  (  1.882942   1.883255   4.045483)
  11:       263.81   10.296357  (  3.082295  -0.139709   0.881077)
  12:       296.08    5.517911  (  0.603451  -2.203046   0.548038)
  13:       311.44  109.025143  (  5.587246   7.486032   4.665529)
  14:       362.88    6.008619  ( -0.252322  -0.585403  -2.366909)
  15:       373.57   18.790014  (  3.386884   2.518673   0.987581)
  16:       503.91   13.715505  ( -1.794959   0.889767   3.114794)
  17:       562.31    3.621119  ( -1.321601  -0.611970  -1.224738)
  18:       710.36    1.295515  (  0.163283   0.553304  -0.981177)
  19:       796.18   15.751870  (  3.800741  -1.128280  -0.182276)
  20:       901.08   12.366568  (  0.288576  -2.425153  -2.530202)
  21:       971.27    0.028919  (  0.139647   0.081973   0.051943)
  22:       972.29   17.505496  ( -3.050912  -2.331639   1.661592)
  23:       980.36    2.596184  ( -1.459954  -0.100268  -0.674289)
  24:       996.65   13.162761  ( -2.088472   2.909846  -0.577787)
  25:      1053.66   15.409018  (  1.874829  -1.597280   3.056588)
  26:      1101.12    3.909266  (  1.285650   0.661471  -1.348639)
  27:      1109.01   27.583654  ( -2.473456   1.755208  -4.287763)
  28:      1142.85    7.221448  (  0.892889  -1.226449  -2.218112)
  29:      1176.36    5.629623  (  1.448049   1.358242   1.299214)
  30:      1226.44   90.300623  (  0.450148   1.593258  -9.357324)
  31:      1275.78   40.452271  ( -0.020573  -2.170701   5.978286)
  32:      1298.77   23.000230  ( -0.843507   1.573129  -4.451291)
  33:      1322.61    6.591143  ( -1.456029   0.324523   2.089452)
  34:      1384.27    4.141727  (  1.796754  -0.933372  -0.205475)
  35:      1413.48    8.986977  (  0.044395   2.942239  -0.572920)
  36:      1423.67    2.529910  ( -1.483757  -0.033572  -0.572056)
  37:      1469.28    3.307225  (  1.755159   0.356517  -0.315497)
  38:      1482.73    4.243062  ( -1.250785   1.635590   0.058687)
  39:      1484.66   18.796241  ( -3.468306  -0.693939   2.507098)
  40:      1491.80   38.143802  (  4.954780  -0.904105  -3.574430)
  41:      1511.96   99.618597  (  7.591992   5.039361  -4.072480)
  42:      1524.06   27.378280  ( -1.042692   0.496125  -5.103424)
  43:      1650.43   34.005693  (  0.315439   4.893685   3.155635)
  44:      1659.17   36.481854  (  3.452719  -3.649212   3.353184)
  45:      3029.20   18.843212  (  3.042075   2.328014  -2.041897)
  46:      3061.64    5.870604  (  1.950462   1.297281   0.619162)
  47:      3088.97   17.650003  (  1.348081   2.853428  -2.773199)
  48:      3101.95   18.678706  ( -3.248681  -2.494689  -1.378878)
  49:      3132.64    0.328530  (  0.100920   0.557525  -0.086669)
  50:      3134.23    6.840598  ( -1.163298   1.432020   1.853821)
  51:      3153.39    3.358755  (  0.985343  -0.752954   1.349413)
  52:      3210.19    1.686464  ( -0.202056   1.269240  -0.186189)
  53:      3407.71   27.991940  (  4.440530   0.985548  -2.702282)
  54:      3485.16  109.323524  (  7.305980  -2.147460   7.164816)
  55:      3488.38   94.351830  ( -2.016850   8.751811   3.699992)
  56:      3838.65   95.686754  (  5.700534  -2.941357  -7.385058)

--------------------------
THERMOCHEMISTRY AT 298.15K
--------------------------

Temperature         ... 298.15 K
Pressure            ... 1.00 atm
Total Mass          ... 102.16 AMU

Throughout the following assumptions are being made:
  (1) The electronic state is orbitally nondegenerate
  (2) There are no thermally accessible electronically excited states
  (3) Hindered rotations indicated by low frequency modes) are not
      treated as such but are treated as vibrations and this may
      case some error
  (4) All equations used are the standard statistical mechanics
      equations for an ideal gas
  (5) All vibrations are strinctly harmonic

------------
INNER ENERGY
------------

The inner energy is: U= E(el) + E(ZPE) + E(vib) + E(rot) + E(trans)
    E(el)   - is the total energy from the electronic structure calculation
              = E(kin-el) + E(nuc-el) + E(el-el) + E(nuc-nuc)
    E(ZPE)  - the the zero temperature vibrational energy from the frequency calculation
    E(vib)  - the the finite temperature correction to E(ZPE) due to population
              of excietd vibrational states
    E(rot)  - is the rotational thermal energy
    E(trans)- is the translational thermal energy

Summary of contributions to the inner energy U:
Electronic energy                ...   -327.19796342 Eh
Zero point energy                ...      0.17384785 Eh     109.09 kcal/mol
Thermal vibrational correction   ...      0.00586207 Eh       3.68 kcal/mol
Thermal rotational correction    ...      0.00141627 Eh       0.89 kcal/mol
Thermal translational correction ...      0.00141627 Eh       0.89 kcal/mol
-----------------------------------------------------------------------
Total thermal energy                   -327.01542095 Eh

Summary of corrections to the electronic energy:
(perhaps to be used in another calculation)
Total thermal correction                  0.00869462 Eh       5.46 kcal/mol
Non-thermal (ZPE) correction              0.17384785 Eh     109.09 kcal/mol
-----------------------------------------------------------------------
Total correction                          0.18254247 Eh     114.55 kcal/mol

--------
ENTHALPY
--------

The enthalpy is H = U + kB*T
                kB is Boltzmann's constant
Total free energy                 ...   -327.01542095 Eh
Thermal Enthalpy correction       ...      0.00094421 Eh       0.59 kcal/mol
-----------------------------------------------------------------------
Total Enthalpy                    ...   -327.01447674 Eh

-------
ENTROPY
-------

The entropy contributions are T*S = T*(S(el)+S(vib)+S(rot)+S(trans)
     S(el)   - electronic entropy
     S(vib)  - vibrational entropy
     S(rot)  - rotational entropy
     S(trans)- translational entropy
The entropies will be listed as mutliplied by the temperature to get
units of energy

Electronic entropy                ...      0.00000000 Eh      0.00 kcal/mol
Vibrational entropy               ...      0.00969106 Eh      6.08 kcal/mol
Rotational entropy                ...      0.01209511 Eh      7.59 kcal/mol
Translational entropy             ...      0.01890147 Eh     11.86 kcal/mol
-----------------------------------------------------------------------
Final entropy term                ...      0.04068763 Eh     25.53 kcal/mol

CAUTION: The rotational entropy is not quite correctly treated here
         because it includes a symmetry number that is not yet correctly
         implemented in ORCA!
For a nonlinear molecule the correct rotational entropy is:
    S(rot) = R*(ln(qrot/sn)+1.5)
    R    = 8.31441 J/mol/K = 1.987191683e-3 kcal/mol/K
    qrot = 244939.9129416
    sn is the rotational symmetry number. We have assumed 3 here
       if it is different for your molecule then you should correct
       the printed rotational entropy by manually evaluating the equation
       as given above

For convenience we print out the resulting values for sn=1 - 12:
 sn= 1  qrot/sn=  244939.9129 T*S(rot)=     8.24 kcal/mol T*S(tot)=    26.18 kcal/mol
 sn= 2  qrot/sn=  122469.9565 T*S(rot)=     7.83 kcal/mol T*S(tot)=    25.77 kcal/mol
 sn= 3  qrot/sn=   81646.6376 T*S(rot)=     7.59 kcal/mol T*S(tot)=    25.53 kcal/mol
 sn= 4  qrot/sn=   61234.9782 T*S(rot)=     7.42 kcal/mol T*S(tot)=    25.36 kcal/mol
 sn= 5  qrot/sn=   48987.9826 T*S(rot)=     7.29 kcal/mol T*S(tot)=    25.23 kcal/mol
 sn= 6  qrot/sn=   40823.3188 T*S(rot)=     7.18 kcal/mol T*S(tot)=    25.12 kcal/mol
 sn= 7  qrot/sn=   34991.4161 T*S(rot)=     7.09 kcal/mol T*S(tot)=    25.03 kcal/mol
 sn= 8  qrot/sn=   30617.4891 T*S(rot)=     7.01 kcal/mol T*S(tot)=    24.95 kcal/mol
 sn= 9  qrot/sn=   27215.5459 T*S(rot)=     6.94 kcal/mol T*S(tot)=    24.88 kcal/mol
 sn=10  qrot/sn=   24493.9913 T*S(rot)=     6.88 kcal/mol T*S(tot)=    24.82 kcal/mol
 sn=11  qrot/sn=   22267.2648 T*S(rot)=     6.82 kcal/mol T*S(tot)=    24.76 kcal/mol
 sn=12  qrot/sn=   20411.6594 T*S(rot)=     6.77 kcal/mol T*S(tot)=    24.71 kcal/mol

-------------------
GIBBS FREE ENTHALPY
-------------------

The Gibbs free enthalpy is G = H - T*S

Total enthalpy                    ...   -327.01447674 Eh
Total entropy correction          ...     -0.04068763 Eh    -25.53 kcal/mol
-----------------------------------------------------------------------
Final Gibbs free enthalpy         ...   -327.05516437 Eh

For completeness - the Gibbs free enthalpy minus the electronic energy
G-E(el)                           ...      0.14279905 Eh     89.61 kcal/mol

                             ****ORCA TERMINATED NORMALLY****
TOTAL RUN TIME: 0 days 0 hours 37 minutes 8 seconds 601 msec
