                         Program Version 3.0.3 - RELEASE   -
|  1> ! NORI PBE0 def2-TZVP UseSym TightOPT Freq TightSCF Grid3 FinalGrid5 XYZFile
|  2> % pal
|  3>     nprocs 8
|  4> end
|  5> %method
|  6>     SymThresh 5.0e-2
|  7> end
|  8> % geom
|  9>     MaxIter 10
| 10> end
| 11> % maxcore 2000
| 12> % output
| 13>     printlevel mini
| 14>     print[ P_Basis ] 0
| 15>     print[ P_SCFInfo ] 1
| 16>     print[ P_SCFIterInfo ] 1
| 17>     print[ P_OrbEn ] 0
| 18>     print[ P_Cartesian ] 0
| 19> end
| 20> % elprop
| 21>     Dipole false
| 22> end
| 23> *xyz 1 1
| 24>  C        1.0954575238     0.0253677353    -0.0437949311
| 25>  C        2.5924411178     0.1824886837     0.0416424252
| 26>  C        3.1942716717     1.1766175948     1.0687579474
| 27>  C        4.3006996928     0.1638284891     1.3720384575
| 28>  N        5.5208881811     0.3435225777     0.5129750195
| 29>  C        3.4361653298    -0.9261863694     0.7147123708
| 30>  O        4.2103272593    -1.7787352563    -0.0811604120
| 31>  H        0.8233530657    -0.7891230469    -0.7189348228
| 32>  H        0.6264825463     0.9355810322    -0.4231198087
| 33>  H        0.6652851189    -0.1870599025     0.9384889599
| 34>  H        3.0075261390     0.3713306114    -0.9553636968
| 35>  H        2.5560979889     1.3010605010     1.9447289623
| 36>  H        3.4906626988     2.1689675262     0.7243431380
| 37>  H        4.6510949031     0.0199808240     2.3929601322
| 38>  H        5.2974302302     0.8329610955    -0.3553743309
| 39>  H        5.8560748472    -0.5926947109     0.2461278248
| 40>  H        6.2585922760     0.8606979065     0.9901518508
| 41>  H        2.8659706169    -1.4672386366     1.4755132539
| 42>  H        3.8065487925    -2.6456166548    -0.1746523400
| 43> *
| 44>
| 45>                          ****END OF INPUT****
 Total Charge           Charge          ....    1
 Multiplicity           Mult            ....    1
 Number of Electrons    NEL             ....   56
FINAL SINGLE POINT ENERGY      -327.215659653037

CARTESIAN COORDINATES (ANGSTROEM)
---------------------------------
  C     -2.222630   -0.715456   -0.884322
  C     -0.770838   -0.586088   -0.498844
  C      0.211322    0.124996   -1.466176
  C      0.881419    0.793289   -0.263680
  N      2.031384   -0.000422    0.290394
  C     -0.359557    0.446484    0.577399
  O     -0.000397    0.000864    1.854685
  H     -2.812965   -1.125557   -0.061969
  H     -2.343348   -1.383657   -1.739303
  H     -2.645251    0.255123   -1.156921
  H     -0.371630   -1.564404   -0.205642
  H     -0.286150    0.878180   -2.078992
  H      0.833274   -0.486278   -2.122708
  H      1.211184    1.829459   -0.322011
  H      1.955214   -0.988826    0.044143
  H      1.981935    0.052561    1.317597
  H      2.933521    0.341874   -0.038522
  H     -1.045678    1.297764    0.608686
  H     -0.700297    0.150376    2.495732

FINAL SINGLE POINT ENERGY      -327.215660475367
                    ***********************HURRAY********************
 Multiplicity           Mult            ....    1
 Number of Electrons    NEL             ....   56
 Basis Dimension        Dim             ....  289
FINAL SINGLE POINT ENERGY      -327.215660989811

VIBRATIONAL FREQUENCIES
-----------------------

   0:         0.00 cm**-1
   1:         0.00 cm**-1
   2:         0.00 cm**-1
   3:         0.00 cm**-1
   4:         0.00 cm**-1
   5:         0.00 cm**-1
   6:        77.47 cm**-1
   7:        99.80 cm**-1
   8:       154.83 cm**-1
   9:       217.12 cm**-1
  10:       244.18 cm**-1
  11:       283.01 cm**-1
  12:       317.58 cm**-1
  13:       362.64 cm**-1
  14:       451.92 cm**-1
  15:       588.35 cm**-1
  16:       697.85 cm**-1
  17:       789.32 cm**-1
  18:       818.15 cm**-1
  19:       878.25 cm**-1
  20:       917.41 cm**-1
  21:       923.55 cm**-1
  22:       974.74 cm**-1
  23:      1024.45 cm**-1
  24:      1062.13 cm**-1
  25:      1108.21 cm**-1
  26:      1133.38 cm**-1
  27:      1139.81 cm**-1
  28:      1180.56 cm**-1
  29:      1199.86 cm**-1
  30:      1220.86 cm**-1
  31:      1248.96 cm**-1
  32:      1270.69 cm**-1
  33:      1282.51 cm**-1
  34:      1298.35 cm**-1
  35:      1382.05 cm**-1
  36:      1393.02 cm**-1
  37:      1416.00 cm**-1
  38:      1427.66 cm**-1
  39:      1472.22 cm**-1
  40:      1484.54 cm**-1
  41:      1490.51 cm**-1
  42:      1495.76 cm**-1
  43:      1627.45 cm**-1
  44:      1662.41 cm**-1
  45:      3044.87 cm**-1
  46:      3054.13 cm**-1
  47:      3085.08 cm**-1
  48:      3090.11 cm**-1
  49:      3130.15 cm**-1
  50:      3137.22 cm**-1
  51:      3140.08 cm**-1
  52:      3145.89 cm**-1
  53:      3355.71 cm**-1
  54:      3476.79 cm**-1
  55:      3533.34 cm**-1
  56:      3874.77 cm**-1

IR SPECTRUM
-----------

 Mode    freq (cm**-1)   T**2         TX         TY         TZ
-------------------------------------------------------------------
   6:        77.47   47.062959  ( -1.055029  -6.198817  -2.743090)
   7:        99.80    0.514885  (  0.260885  -0.562986   0.360376)
   8:       154.83   83.722084  (  3.505478   8.320491   1.484294)
   9:       217.12    1.901060  (  0.345075   1.333861   0.052890)
  10:       244.18    1.269778  (  0.864471  -0.721622  -0.041591)
  11:       283.01   29.140123  ( -3.378056   0.181359   4.206658)
  12:       317.58   12.047912  ( -3.435363  -0.316563   0.382071)
  13:       362.64    5.936168  ( -1.741348  -0.999939  -1.379854)
  14:       451.92    0.207283  (  0.360212   0.062830  -0.271261)
  15:       588.35   10.020693  ( -1.208425  -0.878322  -2.790869)
  16:       697.85   10.713789  ( -2.633262   0.145937  -1.938665)
  17:       789.32    1.091620  ( -0.087239  -1.024032  -0.188063)
  18:       818.15    2.543123  (  1.094385   0.971900  -0.633132)
  19:       878.25    2.258976  ( -0.237387  -1.473770   0.175005)
  20:       917.41    8.761296  (  0.736236   1.542318  -2.416715)
  21:       923.55    8.357831  (  1.530869   1.766919   1.700667)
  22:       974.74    3.670914  (  0.002221   1.735763   0.811194)
  23:      1024.45   40.976476  ( -2.479550  -1.421472   5.727803)
  24:      1062.13    9.722833  (  1.540209  -0.957690   2.536418)
  25:      1108.21   26.204037  ( -1.940601   1.953498  -4.315316)
  26:      1133.38   65.344479  ( -0.530599   0.965129  -8.008213)
  27:      1139.81   19.575034  ( -1.238966   1.974048  -3.760735)
  28:      1180.56    6.394942  (  0.117261   0.672210   2.435021)
  29:      1199.86    6.233937  (  1.693208  -1.554576   0.974820)
  30:      1220.86   15.676372  ( -1.873762   0.753578  -3.405512)
  31:      1248.96    7.075967  ( -1.240181   0.134448  -2.349434)
  32:      1270.69   25.998964  ( -2.256280  -0.653362  -4.525625)
  33:      1282.51    2.411638  ( -0.294114  -0.949138   1.193429)
  34:      1298.35    9.911951  (  0.143342  -1.693471   2.650200)
  35:      1382.05    2.611734  (  0.270449   0.910410  -1.307572)
  36:      1393.02   11.483250  (  2.996655   1.578297  -0.110846)
  37:      1416.00    3.309098  ( -1.813695   0.137252   0.027785)
  38:      1427.66   10.372603  ( -2.500374  -1.088157  -1.713665)
  39:      1472.22   72.647829  ( -5.887965   2.507152  -5.629732)
  40:      1484.54   10.507196  ( -0.838859  -0.709837  -3.049531)
  41:      1490.51   21.207873  ( -1.005275   4.062755  -1.921280)
  42:      1495.76  119.007013  (  9.797085  -4.686191   1.031380)
  43:      1627.45   43.660454  ( -1.067699  -6.069398  -2.383879)
  44:      1662.41   35.417224  ( -4.177485  -1.440767   3.986230)
  45:      3044.87    7.782642  ( -1.863223   1.621777  -1.296488)
  46:      3054.13    8.904846  ( -2.821494   0.642497  -0.728844)
  47:      3085.08    9.074192  ( -2.263592   1.972671  -0.242722)
  48:      3090.11    4.708459  (  0.617977   0.688928  -1.962636)
  49:      3130.15   11.193460  ( -0.151152  -3.145696   1.129252)
  50:      3137.22    5.919189  (  0.746910  -0.808275  -2.169794)
  51:      3140.08    4.887279  (  1.959358   1.015908   0.126991)
  52:      3145.89    3.366337  ( -0.460281   1.694719   0.531419)
  53:      3355.71   79.715593  (  0.124414   0.312259  -8.922029)
  54:      3476.79   80.516323  ( -4.924521   4.753906   5.802223)
  55:      3533.34  108.296004  (  8.117426   6.183437  -2.041691)
  56:      3874.77  137.218645  (  6.218546  -1.053224  -9.871122)

--------------------------
THERMOCHEMISTRY AT 298.15K
--------------------------

Temperature         ... 298.15 K
Pressure            ... 1.00 atm
Total Mass          ... 102.16 AMU

Throughout the following assumptions are being made:
  (1) The electronic state is orbitally nondegenerate
  (2) There are no thermally accessible electronically excited states
  (3) Hindered rotations indicated by low frequency modes) are not
      treated as such but are treated as vibrations and this may
      case some error
  (4) All equations used are the standard statistical mechanics
      equations for an ideal gas
  (5) All vibrations are strinctly harmonic

------------
INNER ENERGY
------------

The inner energy is: U= E(el) + E(ZPE) + E(vib) + E(rot) + E(trans)
    E(el)   - is the total energy from the electronic structure calculation
              = E(kin-el) + E(nuc-el) + E(el-el) + E(nuc-nuc)
    E(ZPE)  - the the zero temperature vibrational energy from the frequency calculation
    E(vib)  - the the finite temperature correction to E(ZPE) due to population
              of excietd vibrational states
    E(rot)  - is the rotational thermal energy
    E(trans)- is the translational thermal energy

Summary of contributions to the inner energy U:
Electronic energy                ...   -327.21566099 Eh
Zero point energy                ...      0.17515846 Eh     109.91 kcal/mol
Thermal vibrational correction   ...      0.00554742 Eh       3.48 kcal/mol
Thermal rotational correction    ...      0.00141627 Eh       0.89 kcal/mol
Thermal translational correction ...      0.00141627 Eh       0.89 kcal/mol
-----------------------------------------------------------------------
Total thermal energy                   -327.03212257 Eh

Summary of corrections to the electronic energy:
(perhaps to be used in another calculation)
Total thermal correction                  0.00837996 Eh       5.26 kcal/mol
Non-thermal (ZPE) correction              0.17515846 Eh     109.91 kcal/mol
-----------------------------------------------------------------------
Total correction                          0.18353842 Eh     115.17 kcal/mol

--------
ENTHALPY
--------

The enthalpy is H = U + kB*T
                kB is Boltzmann's constant
Total free energy                 ...   -327.03212257 Eh
Thermal Enthalpy correction       ...      0.00094421 Eh       0.59 kcal/mol
-----------------------------------------------------------------------
Total Enthalpy                    ...   -327.03117836 Eh

-------
ENTROPY
-------

The entropy contributions are T*S = T*(S(el)+S(vib)+S(rot)+S(trans)
     S(el)   - electronic entropy
     S(vib)  - vibrational entropy
     S(rot)  - rotational entropy
     S(trans)- translational entropy
The entropies will be listed as mutliplied by the temperature to get
units of energy

Electronic entropy                ...      0.00000000 Eh      0.00 kcal/mol
Vibrational entropy               ...      0.00994164 Eh      6.24 kcal/mol
Rotational entropy                ...      0.01203181 Eh      7.55 kcal/mol
Translational entropy             ...      0.01890147 Eh     11.86 kcal/mol
-----------------------------------------------------------------------
Final entropy term                ...      0.04087491 Eh     25.65 kcal/mol

CAUTION: The rotational entropy is not quite correctly treated here
         because it includes a symmetry number that is not yet correctly
         implemented in ORCA!
For a nonlinear molecule the correct rotational entropy is:
    S(rot) = R*(ln(qrot/sn)+1.5)
    R    = 8.31441 J/mol/K = 1.987191683e-3 kcal/mol/K
    qrot = 229058.3043938
    sn is the rotational symmetry number. We have assumed 3 here
       if it is different for your molecule then you should correct
       the printed rotational entropy by manually evaluating the equation
       as given above

For convenience we print out the resulting values for sn=1 - 12:
 sn= 1  qrot/sn=  229058.3044 T*S(rot)=     8.20 kcal/mol T*S(tot)=    26.30 kcal/mol
 sn= 2  qrot/sn=  114529.1522 T*S(rot)=     7.79 kcal/mol T*S(tot)=    25.89 kcal/mol
 sn= 3  qrot/sn=   76352.7681 T*S(rot)=     7.55 kcal/mol T*S(tot)=    25.65 kcal/mol
 sn= 4  qrot/sn=   57264.5761 T*S(rot)=     7.38 kcal/mol T*S(tot)=    25.48 kcal/mol
 sn= 5  qrot/sn=   45811.6609 T*S(rot)=     7.25 kcal/mol T*S(tot)=    25.35 kcal/mol
 sn= 6  qrot/sn=   38176.3841 T*S(rot)=     7.14 kcal/mol T*S(tot)=    25.24 kcal/mol
 sn= 7  qrot/sn=   32722.6149 T*S(rot)=     7.05 kcal/mol T*S(tot)=    25.15 kcal/mol
 sn= 8  qrot/sn=   28632.2880 T*S(rot)=     6.97 kcal/mol T*S(tot)=    25.07 kcal/mol
 sn= 9  qrot/sn=   25450.9227 T*S(rot)=     6.90 kcal/mol T*S(tot)=    25.00 kcal/mol
 sn=10  qrot/sn=   22905.8304 T*S(rot)=     6.84 kcal/mol T*S(tot)=    24.94 kcal/mol
 sn=11  qrot/sn=   20823.4822 T*S(rot)=     6.78 kcal/mol T*S(tot)=    24.88 kcal/mol
 sn=12  qrot/sn=   19088.1920 T*S(rot)=     6.73 kcal/mol T*S(tot)=    24.83 kcal/mol

-------------------
GIBBS FREE ENTHALPY
-------------------

The Gibbs free enthalpy is G = H - T*S

Total enthalpy                    ...   -327.03117836 Eh
Total entropy correction          ...     -0.04087491 Eh    -25.65 kcal/mol
-----------------------------------------------------------------------
Final Gibbs free enthalpy         ...   -327.07205328 Eh

For completeness - the Gibbs free enthalpy minus the electronic energy
G-E(el)                           ...      0.14360771 Eh     90.12 kcal/mol

                             ****ORCA TERMINATED NORMALLY****
TOTAL RUN TIME: 0 days 0 hours 36 minutes 33 seconds 175 msec
