                         Program Version 3.0.3 - RELEASE   -
|  1> ! NORI PBE0 def2-TZVP UseSym TightOPT Freq TightSCF Grid3 FinalGrid5 XYZFile
|  2> % pal
|  3>     nprocs 8
|  4> end
|  5> %method
|  6>     SymThresh 5.0e-2
|  7> end
|  8> % geom
|  9>     MaxIter 10
| 10> end
| 11> % maxcore 2000
| 12> % output
| 13>     printlevel mini
| 14>     print[ P_Basis ] 0
| 15>     print[ P_SCFInfo ] 1
| 16>     print[ P_SCFIterInfo ] 1
| 17>     print[ P_OrbEn ] 0
| 18>     print[ P_Cartesian ] 0
| 19> end
| 20> % elprop
| 21>     Dipole false
| 22> end
| 23> *xyz 1 1
| 24>  C        1.1779634460     0.0846466847     0.0027427214
| 25>  C        2.6398492883    -0.0820893601    -0.0647837557
| 26>  C        3.4000980737    -1.1926301524    -0.0473784208
| 27>  C        4.8187363797    -0.7784376269    -0.0865058998
| 28>  N        5.4499964950    -0.9451927386     1.3248118014
| 29>  C        4.7008157507     0.6948245256    -0.4558112707
| 30>  O        3.3545256753     1.0597467400    -0.1672346239
| 31>  H        0.9147880107     0.7464687429     0.8317378278
| 32>  H        0.6807202813    -0.8741243136     0.1326116117
| 33>  H        0.8168378891     0.5582702079    -0.9136936658
| 34>  H        3.0404622215    -2.2092621698    -0.0119574576
| 35>  H        5.4850038570    -1.3407594484    -0.7413734119
| 36>  H        4.9031779044    -0.4156707899     2.0067712878
| 37>  H        6.4221473595    -0.6301117218     1.3636941554
| 38>  H        5.4197239297    -1.9265333151     1.6071293885
| 39>  H        5.3726658315     1.3678292356     0.0809038235
| 40>  H        4.8709076067     0.8121955000    -1.5287241113
| 41> *
| 42>
| 43>                          ****END OF INPUT****
 Total Charge           Charge          ....    1
 Multiplicity           Mult            ....    1
 Number of Electrons    NEL             ....   54
FINAL SINGLE POINT ENERGY      -326.012655580804

CARTESIAN COORDINATES (ANGSTROEM)
---------------------------------
  C     -1.956429   -1.317129    0.896671
  C     -0.892589   -0.441246    0.376368
  C     -0.653577    0.007304   -0.870002
  C      0.584764    0.814285   -0.837688
  N      1.754316   -0.000016   -1.459620
  C      0.792760    1.002055    0.659663
  O     -0.000129    0.000467    1.289502
  H     -1.516442   -2.175793    1.409776
  H     -2.602371   -1.666869    0.094102
  H     -2.555065   -0.774851    1.632766
  H     -1.258237   -0.185680   -1.742480
  H      0.586399    1.748949   -1.399223
  H      1.849371   -0.889806   -0.965822
  H      2.647433    0.496748   -1.421522
  H      1.548964   -0.215317   -2.436875
  H      1.824301    0.905811    1.005250
  H      0.414127    1.983331    0.956086

FINAL SINGLE POINT ENERGY      -326.012655964488
                    ***********************HURRAY********************
 Multiplicity           Mult            ....    1
 Number of Electrons    NEL             ....   54
 Basis Dimension        Dim             ....  277
FINAL SINGLE POINT ENERGY      -326.012656175923

VIBRATIONAL FREQUENCIES
-----------------------

   0:         0.00 cm**-1
   1:         0.00 cm**-1
   2:         0.00 cm**-1
   3:         0.00 cm**-1
   4:         0.00 cm**-1
   5:         0.00 cm**-1
   6:       117.77 cm**-1
   7:       156.47 cm**-1
   8:       187.98 cm**-1
   9:       211.09 cm**-1
  10:       314.80 cm**-1
  11:       375.28 cm**-1
  12:       415.89 cm**-1
  13:       597.53 cm**-1
  14:       645.14 cm**-1
  15:       704.96 cm**-1
  16:       746.63 cm**-1
  17:       763.79 cm**-1
  18:       913.04 cm**-1
  19:       940.28 cm**-1
  20:       971.77 cm**-1
  21:       984.36 cm**-1
  22:      1006.17 cm**-1
  23:      1054.65 cm**-1
  24:      1059.60 cm**-1
  25:      1086.13 cm**-1
  26:      1135.55 cm**-1
  27:      1230.84 cm**-1
  28:      1257.72 cm**-1
  29:      1280.58 cm**-1
  30:      1333.19 cm**-1
  31:      1384.66 cm**-1
  32:      1404.34 cm**-1
  33:      1432.53 cm**-1
  34:      1458.24 cm**-1
  35:      1462.29 cm**-1
  36:      1471.83 cm**-1
  37:      1491.43 cm**-1
  38:      1641.99 cm**-1
  39:      1653.92 cm**-1
  40:      1690.90 cm**-1
  41:      3066.91 cm**-1
  42:      3079.89 cm**-1
  43:      3125.06 cm**-1
  44:      3131.84 cm**-1
  45:      3132.96 cm**-1
  46:      3179.21 cm**-1
  47:      3267.74 cm**-1
  48:      3409.34 cm**-1
  49:      3509.00 cm**-1
  50:      3515.58 cm**-1

IR SPECTRUM
-----------

 Mode    freq (cm**-1)   T**2         TX         TY         TZ
-------------------------------------------------------------------
   6:       117.77    8.295342  (  1.002223   2.237348  -1.511676)
   7:       156.47    2.252737  ( -1.326757  -0.053005   0.699744)
   8:       187.98    8.850451  ( -0.846015   2.643146   1.071675)
   9:       211.09    1.431313  (  0.309812  -1.045010  -0.493237)
  10:       314.80   10.986540  ( -2.010525   0.232823  -2.624904)
  11:       375.28    0.829321  (  0.392724  -0.308848  -0.761382)
  12:       415.89    3.274483  ( -1.583986   0.519951   0.703649)
  13:       597.53    5.543569  (  1.248208   0.288553  -1.975420)
  14:       645.14    0.572057  (  0.675840   0.328281   0.086770)
  15:       704.96   28.126611  (  3.651913   1.257512  -3.634392)
  16:       746.63   66.673094  (  5.797637  -4.940623  -2.941216)
  17:       763.79    0.601421  ( -0.243366  -0.735937  -0.024307)
  18:       913.04   11.008978  ( -2.960439  -0.801795   1.265662)
  19:       940.28   23.809148  ( -1.069141   1.484017  -4.523691)
  20:       971.77   14.956150  ( -2.899734  -0.702024  -2.460662)
  21:       984.36   29.181814  ( -4.229621   0.297477   3.347182)
  22:      1006.17    2.428617  ( -0.438579   1.074052  -1.040517)
  23:      1054.65    6.515761  ( -2.228606  -0.280245   1.212658)
  24:      1059.60    7.487134  (  0.435357   2.697490  -0.145416)
  25:      1086.13   38.648524  (  2.629384   5.187673   2.196113)
  26:      1135.55   35.561534  (  4.797960   3.518222   0.404014)
  27:      1230.84   17.892226  ( -1.201685  -0.441435  -4.031540)
  28:      1257.72   22.768343  ( -0.400078   1.740355   4.424867)
  29:      1280.58   61.988997  (  2.270240   0.507144   7.521823)
  30:      1333.19   30.667812  (  4.828932   2.660895  -0.518523)
  31:      1384.66   28.717823  ( -2.889002  -1.308217   4.319729)
  32:      1404.34    3.472206  ( -1.707784   0.614391   0.422142)
  33:      1432.53   57.023112  (  6.900372   2.819449   1.207760)
  34:      1458.24   15.078271  ( -2.359407   2.821886   1.244358)
  35:      1462.29  101.913567  ( -6.419276   3.126609   7.136581)
  36:      1471.83   69.238098  (  5.019532  -6.481072  -1.427622)
  37:      1491.43   16.864978  ( -3.286323  -1.625818  -1.849805)
  38:      1641.99   34.269182  ( -2.787161   0.749508  -5.093049)
  39:      1653.92   47.224743  ( -3.323262  -5.510893   2.410545)
  40:      1690.90  149.808743  (  4.681040   3.486396 -10.758330)
  41:      3066.91    0.739091  ( -0.708411  -0.325493   0.362353)
  42:      3079.89    7.018138  ( -2.242322  -1.405979  -0.115544)
  43:      3125.06    7.221715  (  2.318228   1.001477  -0.919011)
  44:      3131.84    0.057631  ( -0.122256   0.039507  -0.202790)
  45:      3132.96    1.344409  (  0.876773  -0.632100   0.419677)
  46:      3179.21    1.135211  (  0.878871   0.507625   0.324215)
  47:      3267.74    5.137822  (  0.928675  -0.137535   2.063121)
  48:      3409.34   32.357298  (  4.549689  -2.129179  -2.669125)
  49:      3509.00   67.923531  ( -3.586203  -7.418109  -0.185312)
  50:      3515.58   88.246165  (  2.566937  -1.381805   8.930152)

--------------------------
THERMOCHEMISTRY AT 298.15K
--------------------------

Temperature         ... 298.15 K
Pressure            ... 1.00 atm
Total Mass          ... 100.14 AMU

Throughout the following assumptions are being made:
  (1) The electronic state is orbitally nondegenerate
  (2) There are no thermally accessible electronically excited states
  (3) Hindered rotations indicated by low frequency modes) are not
      treated as such but are treated as vibrations and this may
      case some error
  (4) All equations used are the standard statistical mechanics
      equations for an ideal gas
  (5) All vibrations are strinctly harmonic

------------
INNER ENERGY
------------

The inner energy is: U= E(el) + E(ZPE) + E(vib) + E(rot) + E(trans)
    E(el)   - is the total energy from the electronic structure calculation
              = E(kin-el) + E(nuc-el) + E(el-el) + E(nuc-nuc)
    E(ZPE)  - the the zero temperature vibrational energy from the frequency calculation
    E(vib)  - the the finite temperature correction to E(ZPE) due to population
              of excietd vibrational states
    E(rot)  - is the rotational thermal energy
    E(trans)- is the translational thermal energy

Summary of contributions to the inner energy U:
Electronic energy                ...   -326.01265618 Eh
Zero point energy                ...      0.15263930 Eh      95.78 kcal/mol
Thermal vibrational correction   ...      0.00450320 Eh       2.83 kcal/mol
Thermal rotational correction    ...      0.00141627 Eh       0.89 kcal/mol
Thermal translational correction ...      0.00141627 Eh       0.89 kcal/mol
-----------------------------------------------------------------------
Total thermal energy                   -325.85268113 Eh

Summary of corrections to the electronic energy:
(perhaps to be used in another calculation)
Total thermal correction                  0.00733574 Eh       4.60 kcal/mol
Non-thermal (ZPE) correction              0.15263930 Eh      95.78 kcal/mol
-----------------------------------------------------------------------
Total correction                          0.15997505 Eh     100.39 kcal/mol

--------
ENTHALPY
--------

The enthalpy is H = U + kB*T
                kB is Boltzmann's constant
Total free energy                 ...   -325.85268113 Eh
Thermal Enthalpy correction       ...      0.00094421 Eh       0.59 kcal/mol
-----------------------------------------------------------------------
Total Enthalpy                    ...   -325.85173692 Eh

-------
ENTROPY
-------

The entropy contributions are T*S = T*(S(el)+S(vib)+S(rot)+S(trans)
     S(el)   - electronic entropy
     S(vib)  - vibrational entropy
     S(rot)  - rotational entropy
     S(trans)- translational entropy
The entropies will be listed as mutliplied by the temperature to get
units of energy

Electronic entropy                ...      0.00000000 Eh      0.00 kcal/mol
Vibrational entropy               ...      0.00760217 Eh      4.77 kcal/mol
Rotational entropy                ...      0.01192489 Eh      7.48 kcal/mol
Translational entropy             ...      0.01887324 Eh     11.84 kcal/mol
-----------------------------------------------------------------------
Final entropy term                ...      0.03840030 Eh     24.10 kcal/mol

CAUTION: The rotational entropy is not quite correctly treated here
         because it includes a symmetry number that is not yet correctly
         implemented in ORCA!
For a nonlinear molecule the correct rotational entropy is:
    S(rot) = R*(ln(qrot/sn)+1.5)
    R    = 8.31441 J/mol/K = 1.987191683e-3 kcal/mol/K
    qrot = 204534.8930843
    sn is the rotational symmetry number. We have assumed 3 here
       if it is different for your molecule then you should correct
       the printed rotational entropy by manually evaluating the equation
       as given above

For convenience we print out the resulting values for sn=1 - 12:
 sn= 1  qrot/sn=  204534.8931 T*S(rot)=     8.13 kcal/mol T*S(tot)=    24.75 kcal/mol
 sn= 2  qrot/sn=  102267.4465 T*S(rot)=     7.72 kcal/mol T*S(tot)=    24.34 kcal/mol
 sn= 3  qrot/sn=   68178.2977 T*S(rot)=     7.48 kcal/mol T*S(tot)=    24.10 kcal/mol
 sn= 4  qrot/sn=   51133.7233 T*S(rot)=     7.31 kcal/mol T*S(tot)=    23.93 kcal/mol
 sn= 5  qrot/sn=   40906.9786 T*S(rot)=     7.18 kcal/mol T*S(tot)=    23.79 kcal/mol
 sn= 6  qrot/sn=   34089.1488 T*S(rot)=     7.07 kcal/mol T*S(tot)=    23.69 kcal/mol
 sn= 7  qrot/sn=   29219.2704 T*S(rot)=     6.98 kcal/mol T*S(tot)=    23.59 kcal/mol
 sn= 8  qrot/sn=   25566.8616 T*S(rot)=     6.90 kcal/mol T*S(tot)=    23.52 kcal/mol
 sn= 9  qrot/sn=   22726.0992 T*S(rot)=     6.83 kcal/mol T*S(tot)=    23.45 kcal/mol
 sn=10  qrot/sn=   20453.4893 T*S(rot)=     6.77 kcal/mol T*S(tot)=    23.38 kcal/mol
 sn=11  qrot/sn=   18594.0812 T*S(rot)=     6.71 kcal/mol T*S(tot)=    23.33 kcal/mol
 sn=12  qrot/sn=   17044.5744 T*S(rot)=     6.66 kcal/mol T*S(tot)=    23.28 kcal/mol

-------------------
GIBBS FREE ENTHALPY
-------------------

The Gibbs free enthalpy is G = H - T*S

Total enthalpy                    ...   -325.85173692 Eh
Total entropy correction          ...     -0.03840030 Eh    -24.10 kcal/mol
-----------------------------------------------------------------------
Final Gibbs free enthalpy         ...   -325.89013722 Eh

For completeness - the Gibbs free enthalpy minus the electronic energy
G-E(el)                           ...      0.12251896 Eh     76.88 kcal/mol

                             ****ORCA TERMINATED NORMALLY****
TOTAL RUN TIME: 0 days 0 hours 29 minutes 23 seconds 970 msec
