                         Program Version 3.0.3 - RELEASE   -
|  1> ! NORI PBE0 def2-TZVP UseSym TightOPT Freq TightSCF Grid3 FinalGrid5 XYZFile
|  2> % pal
|  3>     nprocs 8
|  4> end
|  5> %method
|  6>     SymThresh 5.0e-2
|  7> end
|  8> % geom
|  9>     MaxIter 10
| 10> end
| 11> % maxcore 2000
| 12> % output
| 13>     printlevel mini
| 14>     print[ P_Basis ] 0
| 15>     print[ P_SCFInfo ] 1
| 16>     print[ P_SCFIterInfo ] 1
| 17>     print[ P_OrbEn ] 0
| 18>     print[ P_Cartesian ] 0
| 19> end
| 20> % elprop
| 21>     Dipole false
| 22> end
| 23> *xyz 1 1
| 24>  C        0.7058813412    -0.2279161348    -1.0346786819
| 25>  C        2.0792452407    -0.3296599479    -0.4371845065
| 26>  C        2.1932200720    -0.0878605223     1.0560377204
| 27>  C        1.4985787829    -1.1552060762     1.8706267518
| 28>  N        1.6702102045    -0.8770600827     3.3430116916
| 29>  C        3.1345005371    -1.0995456913    -1.1023438981
| 30>  O        3.1081501917     0.3170593796    -1.1572276959
| 31>  H        0.7668849686    -0.3232367291    -2.1185821651
| 32>  H        0.2553273504     0.7424123259    -0.8073090962
| 33>  H        0.0380871601    -1.0133280705    -0.6689532825
| 34>  H        1.7643412655     0.8966467569     1.2816128589
| 35>  H        3.2578696596    -0.0493072515     1.3076607458
| 36>  H        1.9163947103    -2.1470511029     1.6923639009
| 37>  H        0.4240531806    -1.1904369420     1.6909020959
| 38>  H        2.6605718353    -0.8591848826     3.5968930688
| 39>  H        1.2102039579    -1.5822113257     3.9225884194
| 40>  H        1.2784587099     0.0351917685     3.5886346713
| 41>  H        3.9531640062    -1.5257751201    -0.5257178815
| 42>  H        2.9105068254    -1.6071503513    -2.0363947170
| 43> *
| 44>
| 45>                          ****END OF INPUT****
 Total Charge           Charge          ....    1
 Multiplicity           Mult            ....    1
 Number of Electrons    NEL             ....   56
FINAL SINGLE POINT ENERGY      -327.190406128312
FINAL SINGLE POINT ENERGY      -327.190407418904

CARTESIAN COORDINATES (ANGSTROEM)
---------------------------------
  C     -1.678632   -0.947944    0.532254
  C     -0.464504   -0.089959    0.742487
  C      0.674490   -0.264956   -0.244758
  C      0.301576    0.174252   -1.642460
  N      1.476220   -0.003244   -2.572441
  C     -0.551737    1.167006    1.491059
  O     -0.000942   -0.002440    2.074157
  H     -2.379764   -0.803248    1.353660
  H     -1.405534   -2.006299    0.505477
  H     -2.199912   -0.701328   -0.396903
  H      0.970648   -1.321669   -0.248884
  H      1.526813    0.315536    0.122911
  H      0.029912    1.229975   -1.684558
  H     -0.513091   -0.414257   -2.065464
  H      2.277618    0.547403   -2.255628
  H      1.255460    0.284711   -3.528089
  H      1.772837   -0.981579   -2.599756
  H      0.158906    1.970086    1.304583
  H     -1.512815    1.479020    1.890216

FINAL SINGLE POINT ENERGY      -327.190408358071
                    ***********************HURRAY********************
 Multiplicity           Mult            ....    1
 Number of Electrons    NEL             ....   56
 Basis Dimension        Dim             ....  289
FINAL SINGLE POINT ENERGY      -327.190408691376

VIBRATIONAL FREQUENCIES
-----------------------

   0:         0.00 cm**-1
   1:         0.00 cm**-1
   2:         0.00 cm**-1
   3:         0.00 cm**-1
   4:         0.00 cm**-1
   5:         0.00 cm**-1
   6:        68.00 cm**-1
   7:        86.43 cm**-1
   8:       165.83 cm**-1
   9:       196.49 cm**-1
  10:       226.56 cm**-1
  11:       306.19 cm**-1
  12:       363.37 cm**-1
  13:       372.74 cm**-1
  14:       435.01 cm**-1
  15:       476.82 cm**-1
  16:       751.15 cm**-1
  17:       776.12 cm**-1
  18:       873.76 cm**-1
  19:       905.80 cm**-1
  20:       908.95 cm**-1
  21:       933.03 cm**-1
  22:       951.59 cm**-1
  23:      1002.93 cm**-1
  24:      1022.08 cm**-1
  25:      1078.41 cm**-1
  26:      1127.65 cm**-1
  27:      1139.73 cm**-1
  28:      1162.29 cm**-1
  29:      1180.21 cm**-1
  30:      1273.20 cm**-1
  31:      1293.05 cm**-1
  32:      1343.52 cm**-1
  33:      1349.93 cm**-1
  34:      1403.79 cm**-1
  35:      1412.83 cm**-1
  36:      1436.74 cm**-1
  37:      1472.46 cm**-1
  38:      1480.42 cm**-1
  39:      1488.75 cm**-1
  40:      1502.99 cm**-1
  41:      1510.16 cm**-1
  42:      1537.64 cm**-1
  43:      1657.36 cm**-1
  44:      1664.05 cm**-1
  45:      3033.16 cm**-1
  46:      3051.93 cm**-1
  47:      3089.87 cm**-1
  48:      3101.32 cm**-1
  49:      3104.28 cm**-1
  50:      3119.65 cm**-1
  51:      3157.11 cm**-1
  52:      3161.95 cm**-1
  53:      3198.61 cm**-1
  54:      3419.53 cm**-1
  55:      3499.94 cm**-1
  56:      3506.30 cm**-1

IR SPECTRUM
-----------

 Mode    freq (cm**-1)   T**2         TX         TY         TZ
-------------------------------------------------------------------
   6:        68.00    0.064285  ( -0.208684  -0.142540   0.020465)
   7:        86.43    5.658588  (  0.845132   2.152048   0.559491)
   8:       165.83    3.576923  ( -0.972559   0.469041  -1.552756)
   9:       196.49    0.262335  ( -0.411405  -0.219179   0.212230)
  10:       226.56    0.021505  ( -0.029309  -0.099417   0.103739)
  11:       306.19   14.568816  ( -1.451874  -0.677889   3.464296)
  12:       363.37    0.567005  (  0.659789   0.155515   0.327870)
  13:       372.74    5.997829  ( -2.236922  -0.522335   0.849219)
  14:       435.01    3.654134  ( -1.630263  -0.156159   0.985895)
  15:       476.82   10.507796  (  0.583136   0.678058   3.115764)
  16:       751.15   10.066920  (  0.728120  -1.340990   2.781817)
  17:       776.12    8.023088  (  1.077927   2.561101   0.549478)
  18:       873.76   32.917455  (  0.454013   0.328238   5.709955)
  19:       905.80    6.674897  ( -0.064562  -2.311025  -1.153210)
  20:       908.95   12.350897  (  1.169190   0.669805  -3.245806)
  21:       933.03    5.555773  ( -0.069335  -2.217195   0.796876)
  22:       951.59    4.483960  ( -0.524892   0.530516  -1.981666)
  23:      1002.93   10.419724  (  2.746373  -1.269591   1.124856)
  24:      1022.08    1.081545  ( -0.104326  -0.747244   0.715742)
  25:      1078.41    3.143982  ( -0.654243  -1.311759  -0.997615)
  26:      1127.65    8.523324  (  1.336868  -1.477574  -2.133748)
  27:      1139.73    2.169433  ( -0.438580  -1.369625  -0.318133)
  28:      1162.29   32.523843  (  1.941820  -3.288586   4.235372)
  29:      1180.21    1.198657  (  0.691233  -0.392883  -0.752659)
  30:      1273.20   10.571934  (  3.060814   0.553421  -0.947141)
  31:      1293.05    6.466713  (  0.994379   0.474837  -2.291823)
  32:      1343.52    4.339907  ( -1.797038   0.527989   0.912025)
  33:      1349.93   10.940595  ( -2.345928  -2.080251   1.053458)
  34:      1403.79    3.425555  ( -1.409733  -0.526613   1.077445)
  35:      1412.83   23.978564  ( -3.346465  -0.645494   3.516116)
  36:      1436.74   15.110902  ( -2.149048  -1.290996  -2.970829)
  37:      1472.46    2.570092  (  0.575986   0.438815  -1.430305)
  38:      1480.42   11.376371  ( -2.209430   2.383856  -0.901121)
  39:      1488.75    2.296592  (  0.152278   0.840218  -1.251974)
  40:      1502.99   11.671183  (  0.835004  -0.909978   3.185262)
  41:      1510.16  152.142354  ( -9.654238   1.761098   7.472388)
  42:      1537.64    8.115085  (  2.025836   0.635702   1.899198)
  43:      1657.36   53.831115  ( -2.387222  -6.706190  -1.777440)
  44:      1664.05   37.662234  (  2.913758  -2.356912   4.859755)
  45:      3033.16   12.027930  ( -2.624182   1.776311   1.409367)
  46:      3051.93   12.173595  ( -0.892597  -1.830132  -2.833281)
  47:      3089.87    4.960216  (  1.027079   1.962363   0.233364)
  48:      3101.32    1.348005  (  0.753715  -0.183845   0.863783)
  49:      3104.28   14.709016  ( -0.319343  -3.749552   0.740198)
  50:      3119.65   12.363434  ( -1.189930   2.462686  -2.209678)
  51:      3157.11    2.882875  ( -0.395410   0.871362   1.402588)
  52:      3161.95    0.968658  (  0.196189   0.752298   0.603503)
  53:      3198.61    8.433746  (  2.597405   0.847032  -0.984769)
  54:      3419.53   47.990314  (  4.904481  -0.653429  -4.848650)
  55:      3499.94   91.901792  ( -2.914076  -8.931205  -1.908804)
  56:      3506.30   99.376014  (  5.234636  -3.414439   7.766351)

--------------------------
THERMOCHEMISTRY AT 298.15K
--------------------------

Temperature         ... 298.15 K
Pressure            ... 1.00 atm
Total Mass          ... 102.16 AMU

Throughout the following assumptions are being made:
  (1) The electronic state is orbitally nondegenerate
  (2) There are no thermally accessible electronically excited states
  (3) Hindered rotations indicated by low frequency modes) are not
      treated as such but are treated as vibrations and this may
      case some error
  (4) All equations used are the standard statistical mechanics
      equations for an ideal gas
  (5) All vibrations are strinctly harmonic

------------
INNER ENERGY
------------

The inner energy is: U= E(el) + E(ZPE) + E(vib) + E(rot) + E(trans)
    E(el)   - is the total energy from the electronic structure calculation
              = E(kin-el) + E(nuc-el) + E(el-el) + E(nuc-nuc)
    E(ZPE)  - the the zero temperature vibrational energy from the frequency calculation
    E(vib)  - the the finite temperature correction to E(ZPE) due to population
              of excietd vibrational states
    E(rot)  - is the rotational thermal energy
    E(trans)- is the translational thermal energy

Summary of contributions to the inner energy U:
Electronic energy                ...   -327.19040869 Eh
Zero point energy                ...      0.17492153 Eh     109.76 kcal/mol
Thermal vibrational correction   ...      0.00558909 Eh       3.51 kcal/mol
Thermal rotational correction    ...      0.00141627 Eh       0.89 kcal/mol
Thermal translational correction ...      0.00141627 Eh       0.89 kcal/mol
-----------------------------------------------------------------------
Total thermal energy                   -327.00706553 Eh

Summary of corrections to the electronic energy:
(perhaps to be used in another calculation)
Total thermal correction                  0.00842163 Eh       5.28 kcal/mol
Non-thermal (ZPE) correction              0.17492153 Eh     109.76 kcal/mol
-----------------------------------------------------------------------
Total correction                          0.18334316 Eh     115.05 kcal/mol

--------
ENTHALPY
--------

The enthalpy is H = U + kB*T
                kB is Boltzmann's constant
Total free energy                 ...   -327.00706553 Eh
Thermal Enthalpy correction       ...      0.00094421 Eh       0.59 kcal/mol
-----------------------------------------------------------------------
Total Enthalpy                    ...   -327.00612132 Eh

-------
ENTROPY
-------

The entropy contributions are T*S = T*(S(el)+S(vib)+S(rot)+S(trans)
     S(el)   - electronic entropy
     S(vib)  - vibrational entropy
     S(rot)  - rotational entropy
     S(trans)- translational entropy
The entropies will be listed as mutliplied by the temperature to get
units of energy

Electronic entropy                ...      0.00000000 Eh      0.00 kcal/mol
Vibrational entropy               ...      0.01019151 Eh      6.40 kcal/mol
Rotational entropy                ...      0.01222852 Eh      7.67 kcal/mol
Translational entropy             ...      0.01890147 Eh     11.86 kcal/mol
-----------------------------------------------------------------------
Final entropy term                ...      0.04132150 Eh     25.93 kcal/mol

CAUTION: The rotational entropy is not quite correctly treated here
         because it includes a symmetry number that is not yet correctly
         implemented in ORCA!
For a nonlinear molecule the correct rotational entropy is:
    S(rot) = R*(ln(qrot/sn)+1.5)
    R    = 8.31441 J/mol/K = 1.987191683e-3 kcal/mol/K
    qrot = 282115.4316825
    sn is the rotational symmetry number. We have assumed 3 here
       if it is different for your molecule then you should correct
       the printed rotational entropy by manually evaluating the equation
       as given above

For convenience we print out the resulting values for sn=1 - 12:
 sn= 1  qrot/sn=  282115.4317 T*S(rot)=     8.32 kcal/mol T*S(tot)=    26.58 kcal/mol
 sn= 2  qrot/sn=  141057.7158 T*S(rot)=     7.91 kcal/mol T*S(tot)=    26.17 kcal/mol
 sn= 3  qrot/sn=   94038.4772 T*S(rot)=     7.67 kcal/mol T*S(tot)=    25.93 kcal/mol
 sn= 4  qrot/sn=   70528.8579 T*S(rot)=     7.50 kcal/mol T*S(tot)=    25.76 kcal/mol
 sn= 5  qrot/sn=   56423.0863 T*S(rot)=     7.37 kcal/mol T*S(tot)=    25.63 kcal/mol
 sn= 6  qrot/sn=   47019.2386 T*S(rot)=     7.26 kcal/mol T*S(tot)=    25.52 kcal/mol
 sn= 7  qrot/sn=   40302.2045 T*S(rot)=     7.17 kcal/mol T*S(tot)=    25.43 kcal/mol
 sn= 8  qrot/sn=   35264.4290 T*S(rot)=     7.09 kcal/mol T*S(tot)=    25.35 kcal/mol
 sn= 9  qrot/sn=   31346.1591 T*S(rot)=     7.02 kcal/mol T*S(tot)=    25.28 kcal/mol
 sn=10  qrot/sn=   28211.5432 T*S(rot)=     6.96 kcal/mol T*S(tot)=    25.22 kcal/mol
 sn=11  qrot/sn=   25646.8574 T*S(rot)=     6.90 kcal/mol T*S(tot)=    25.16 kcal/mol
 sn=12  qrot/sn=   23509.6193 T*S(rot)=     6.85 kcal/mol T*S(tot)=    25.11 kcal/mol

-------------------
GIBBS FREE ENTHALPY
-------------------

The Gibbs free enthalpy is G = H - T*S

Total enthalpy                    ...   -327.00612132 Eh
Total entropy correction          ...     -0.04132150 Eh    -25.93 kcal/mol
-----------------------------------------------------------------------
Final Gibbs free enthalpy         ...   -327.04744283 Eh

For completeness - the Gibbs free enthalpy minus the electronic energy
G-E(el)                           ...      0.14296587 Eh     89.71 kcal/mol

                             ****ORCA TERMINATED NORMALLY****
TOTAL RUN TIME: 0 days 0 hours 34 minutes 37 seconds 750 msec
