                         Program Version 3.0.3 - RELEASE   -
|  1> ! NORI PBE0 def2-TZVP UseSym TightOPT Freq TightSCF Grid3 FinalGrid5 XYZFile
|  2> % pal
|  3>     nprocs 8
|  4> end
|  5> %method
|  6>     SymThresh 5.0e-2
|  7> end
|  8> % geom
|  9>     MaxIter 10
| 10> end
| 11> % maxcore 2000
| 12> % output
| 13>     printlevel mini
| 14>     print[ P_Basis ] 0
| 15>     print[ P_SCFInfo ] 1
| 16>     print[ P_SCFIterInfo ] 1
| 17>     print[ P_OrbEn ] 0
| 18>     print[ P_Cartesian ] 0
| 19> end
| 20> % elprop
| 21>     Dipole false
| 22> end
| 23> *xyz 1 1
| 24>  C        1.3020798763    -0.6316580189    -0.4962703573
| 25>  C        2.3902656501     0.0267935999     0.3050730389
| 26>  C        1.9777950697     1.2677553353     1.0967676748
| 27>  C        3.0483510329     1.3379786072     2.1728173834
| 28>  N        4.1756145674     2.2472515398     1.7253382979
| 29>  C        3.5579268612    -0.1149191059     2.2688895527
| 30>  O        2.8375223820    -0.8513484867     1.3255443021
| 31>  H        0.9534192981     0.0340815553    -1.2880117403
| 32>  H        0.4582854441    -0.8871546310     0.1471195284
| 33>  H        1.6742647368    -1.5458605617    -0.9585319755
| 34>  H        3.2394334809     0.2702481010    -0.3619800262
| 35>  H        1.0123369076     1.0857118542     1.5736179273
| 36>  H        1.8852238883     2.1784433677     0.4990333627
| 37>  H        2.7079886554     1.7480148538     3.1223178869
| 38>  H        4.5248662188     1.9572749358     0.8082312048
| 39>  H        4.9629271711     2.2193691266     2.3771342061
| 40>  H        3.8620012339     3.2172590729     1.6504107336
| 41>  H        4.6424605605    -0.1595322348     2.0662023868
| 42>  H        3.3903769649    -0.5437589105     3.2581466130
| 43> *
| 44>
| 45>                          ****END OF INPUT****
 Total Charge           Charge          ....    1
 Multiplicity           Mult            ....    1
 Number of Electrons    NEL             ....   56
FINAL SINGLE POINT ENERGY      -327.221950515257

CARTESIAN COORDINATES (ANGSTROEM)
---------------------------------
  C     -2.142569   -0.968390    0.905973
  C     -0.772753   -0.667635    0.364377
  C     -0.720120    0.307280   -0.811654
  C      0.707444    0.823398   -0.743059
  N      1.601575    0.000069   -1.648856
  C      1.103489    0.592105    0.730120
  O      0.000268   -0.000289    1.349187
  H     -2.745078   -1.485126    0.156736
  H     -2.649594   -0.044628    1.190853
  H     -2.068887   -1.608431    1.785325
  H     -0.271553   -1.615979    0.090873
  H     -1.403156    1.137677   -0.621017
  H     -0.990709   -0.129103   -1.776778
  H      0.832027    1.853122   -1.075343
  H      1.507425   -0.995760   -1.432874
  H      2.586392    0.248663   -1.532225
  H      1.356675    0.133479   -2.632268
  H      1.993466   -0.057698    0.794203
  H      1.340168    1.525617    1.242743

FINAL SINGLE POINT ENERGY      -327.221951498199
                    ***********************HURRAY********************
 Multiplicity           Mult            ....    1
 Number of Electrons    NEL             ....   56
 Basis Dimension        Dim             ....  289
FINAL SINGLE POINT ENERGY      -327.221951980617

VIBRATIONAL FREQUENCIES
-----------------------

   0:         0.00 cm**-1
   1:         0.00 cm**-1
   2:         0.00 cm**-1
   3:         0.00 cm**-1
   4:         0.00 cm**-1
   5:         0.00 cm**-1
   6:        42.90 cm**-1
   7:       146.13 cm**-1
   8:       227.24 cm**-1
   9:       231.66 cm**-1
  10:       281.71 cm**-1
  11:       383.67 cm**-1
  12:       390.34 cm**-1
  13:       476.62 cm**-1
  14:       601.21 cm**-1
  15:       690.38 cm**-1
  16:       805.47 cm**-1
  17:       865.80 cm**-1
  18:       889.44 cm**-1
  19:       911.86 cm**-1
  20:       929.46 cm**-1
  21:       959.96 cm**-1
  22:       982.78 cm**-1
  23:      1048.25 cm**-1
  24:      1088.81 cm**-1
  25:      1138.37 cm**-1
  26:      1165.28 cm**-1
  27:      1171.63 cm**-1
  28:      1178.17 cm**-1
  29:      1221.55 cm**-1
  30:      1266.64 cm**-1
  31:      1293.91 cm**-1
  32:      1318.00 cm**-1
  33:      1348.94 cm**-1
  34:      1385.97 cm**-1
  35:      1399.05 cm**-1
  36:      1419.25 cm**-1
  37:      1423.11 cm**-1
  38:      1467.63 cm**-1
  39:      1477.17 cm**-1
  40:      1490.18 cm**-1
  41:      1495.74 cm**-1
  42:      1508.60 cm**-1
  43:      1654.05 cm**-1
  44:      1656.69 cm**-1
  45:      2920.46 cm**-1
  46:      2965.32 cm**-1
  47:      3067.46 cm**-1
  48:      3079.57 cm**-1
  49:      3122.37 cm**-1
  50:      3132.30 cm**-1
  51:      3142.40 cm**-1
  52:      3148.64 cm**-1
  53:      3158.13 cm**-1
  54:      3412.05 cm**-1
  55:      3495.78 cm**-1
  56:      3506.60 cm**-1

IR SPECTRUM
-----------

 Mode    freq (cm**-1)   T**2         TX         TY         TZ
-------------------------------------------------------------------
   6:        42.90    5.258345  ( -1.829450  -0.450878   1.306969)
   7:       146.13    6.793871  (  0.583234   2.522554  -0.300716)
   8:       227.24    0.294357  ( -0.216550   0.485124   0.110084)
   9:       231.66    0.032093  ( -0.115611   0.106194   0.086314)
  10:       281.71    7.754522  ( -2.154948  -0.138185  -1.758303)
  11:       383.67   15.020564  (  2.258051   0.460405  -3.116055)
  12:       390.34    4.605721  ( -0.724894  -0.379809   1.983934)
  13:       476.62    2.685705  ( -1.315310   0.331023  -0.919831)
  14:       601.21    7.611946  (  1.346104   1.177558  -2.100787)
  15:       690.38    0.533804  ( -0.654997   0.020860   0.323028)
  16:       805.47    4.109589  (  0.545144   0.742267  -1.805948)
  17:       865.80    5.452845  ( -1.003375  -0.391234  -2.071960)
  18:       889.44    4.496930  ( -1.291723  -0.733060  -1.513606)
  19:       911.86    9.605873  ( -0.082762   0.812651  -2.989753)
  20:       929.46    7.858031  ( -1.887518   1.827432  -0.977650)
  21:       959.96   15.159676  ( -2.750902  -1.002432  -2.566582)
  22:       982.78    3.179969  ( -0.995209  -1.330266   0.648013)
  23:      1048.25    8.330985  (  2.761658  -0.494348  -0.678121)
  24:      1088.81   34.397317  (  3.593951  -0.126499  -4.633016)
  25:      1138.37   10.660496  (  1.819634   2.699635  -0.247792)
  26:      1165.28   75.119290  ( -6.618954  -5.589533  -0.256628)
  27:      1171.63    4.843498  (  0.147769   0.333237   2.170395)
  28:      1178.17   53.243200  (  6.211817   2.604090   2.806287)
  29:      1221.55    2.999996  ( -0.237010   1.250400  -1.174871)
  30:      1266.64    2.673470  (  0.623376   1.058637   1.078963)
  31:      1293.91    1.780793  ( -0.555860  -1.209082   0.099663)
  32:      1318.00    1.778454  ( -0.949548  -0.894336  -0.277445)
  33:      1348.94    5.701143  (  1.802836  -0.932802   1.257300)
  34:      1385.97   10.555913  ( -0.863340  -1.128802   2.921705)
  35:      1399.05    3.177866  ( -0.340409  -1.012023   1.427514)
  36:      1419.25   10.392392  (  1.957270   1.486361  -2.086198)
  37:      1423.11   23.778076  (  4.208903   1.745279  -1.737012)
  38:      1467.63   13.129071  (  3.404552  -1.129233   0.512768)
  39:      1477.17   12.470610  ( -2.291905   2.462070  -1.075172)
  40:      1490.18   13.815896  ( -0.771193   2.562474   2.579706)
  41:      1495.74  122.753122  ( -5.978206   5.448607   7.571450)
  42:      1508.60   39.907905  (  4.704561  -3.334468  -2.579987)
  43:      1654.05   30.895540  ( -3.915542  -0.194389  -3.940341)
  44:      1656.69   46.063047  ( -2.332450  -5.620527   3.005396)
  45:      2920.46   58.076109  ( -2.918336   6.245206   3.249126)
  46:      2965.32   60.891600  ( -7.444072   1.964829   1.271548)
  47:      3067.46    2.783711  ( -1.655531   0.048474   0.201441)
  48:      3079.57    4.916873  (  0.104954   0.190914   2.206674)
  49:      3122.37    2.810124  (  0.823206   1.396575   0.426653)
  50:      3132.30    2.257950  (  0.276272  -0.297943  -1.446670)
  51:      3142.40    2.050781  (  0.963215   0.934799  -0.499149)
  52:      3148.64    6.947780  ( -0.008078  -2.209580  -1.437175)
  53:      3158.13    3.269456  (  0.518277  -1.238442   1.211242)
  54:      3412.05   31.884160  (  3.543593  -2.870499  -3.329766)
  55:      3495.78   96.486905  ( -5.020564  -7.142800   4.501249)
  56:      3506.60   85.054090  ( -6.385842   0.104680  -6.653131)

--------------------------
THERMOCHEMISTRY AT 298.15K
--------------------------

Temperature         ... 298.15 K
Pressure            ... 1.00 atm
Total Mass          ... 102.16 AMU

Throughout the following assumptions are being made:
  (1) The electronic state is orbitally nondegenerate
  (2) There are no thermally accessible electronically excited states
  (3) Hindered rotations indicated by low frequency modes) are not
      treated as such but are treated as vibrations and this may
      case some error
  (4) All equations used are the standard statistical mechanics
      equations for an ideal gas
  (5) All vibrations are strinctly harmonic

------------
INNER ENERGY
------------

The inner energy is: U= E(el) + E(ZPE) + E(vib) + E(rot) + E(trans)
    E(el)   - is the total energy from the electronic structure calculation
              = E(kin-el) + E(nuc-el) + E(el-el) + E(nuc-nuc)
    E(ZPE)  - the the zero temperature vibrational energy from the frequency calculation
    E(vib)  - the the finite temperature correction to E(ZPE) due to population
              of excietd vibrational states
    E(rot)  - is the rotational thermal energy
    E(trans)- is the translational thermal energy

Summary of contributions to the inner energy U:
Electronic energy                ...   -327.22195198 Eh
Zero point energy                ...      0.17675098 Eh     110.91 kcal/mol
Thermal vibrational correction   ...      0.00476834 Eh       2.99 kcal/mol
Thermal rotational correction    ...      0.00141627 Eh       0.89 kcal/mol
Thermal translational correction ...      0.00141627 Eh       0.89 kcal/mol
-----------------------------------------------------------------------
Total thermal energy                   -327.03760012 Eh

Summary of corrections to the electronic energy:
(perhaps to be used in another calculation)
Total thermal correction                  0.00760088 Eh       4.77 kcal/mol
Non-thermal (ZPE) correction              0.17675098 Eh     110.91 kcal/mol
-----------------------------------------------------------------------
Total correction                          0.18435186 Eh     115.68 kcal/mol

--------
ENTHALPY
--------

The enthalpy is H = U + kB*T
                kB is Boltzmann's constant
Total free energy                 ...   -327.03760012 Eh
Thermal Enthalpy correction       ...      0.00094421 Eh       0.59 kcal/mol
-----------------------------------------------------------------------
Total Enthalpy                    ...   -327.03665591 Eh

-------
ENTROPY
-------

The entropy contributions are T*S = T*(S(el)+S(vib)+S(rot)+S(trans)
     S(el)   - electronic entropy
     S(vib)  - vibrational entropy
     S(rot)  - rotational entropy
     S(trans)- translational entropy
The entropies will be listed as mutliplied by the temperature to get
units of energy

Electronic entropy                ...      0.00000000 Eh      0.00 kcal/mol
Vibrational entropy               ...      0.00866693 Eh      5.44 kcal/mol
Rotational entropy                ...      0.01198428 Eh      7.52 kcal/mol
Translational entropy             ...      0.01890147 Eh     11.86 kcal/mol
-----------------------------------------------------------------------
Final entropy term                ...      0.03955267 Eh     24.82 kcal/mol

CAUTION: The rotational entropy is not quite correctly treated here
         because it includes a symmetry number that is not yet correctly
         implemented in ORCA!
For a nonlinear molecule the correct rotational entropy is:
    S(rot) = R*(ln(qrot/sn)+1.5)
    R    = 8.31441 J/mol/K = 1.987191683e-3 kcal/mol/K
    qrot = 217812.0427332
    sn is the rotational symmetry number. We have assumed 3 here
       if it is different for your molecule then you should correct
       the printed rotational entropy by manually evaluating the equation
       as given above

For convenience we print out the resulting values for sn=1 - 12:
 sn= 1  qrot/sn=  217812.0427 T*S(rot)=     8.17 kcal/mol T*S(tot)=    25.47 kcal/mol
 sn= 2  qrot/sn=  108906.0214 T*S(rot)=     7.76 kcal/mol T*S(tot)=    25.06 kcal/mol
 sn= 3  qrot/sn=   72604.0142 T*S(rot)=     7.52 kcal/mol T*S(tot)=    24.82 kcal/mol
 sn= 4  qrot/sn=   54453.0107 T*S(rot)=     7.35 kcal/mol T*S(tot)=    24.65 kcal/mol
 sn= 5  qrot/sn=   43562.4085 T*S(rot)=     7.22 kcal/mol T*S(tot)=    24.52 kcal/mol
 sn= 6  qrot/sn=   36302.0071 T*S(rot)=     7.11 kcal/mol T*S(tot)=    24.41 kcal/mol
 sn= 7  qrot/sn=   31116.0061 T*S(rot)=     7.02 kcal/mol T*S(tot)=    24.32 kcal/mol
 sn= 8  qrot/sn=   27226.5053 T*S(rot)=     6.94 kcal/mol T*S(tot)=    24.24 kcal/mol
 sn= 9  qrot/sn=   24201.3381 T*S(rot)=     6.87 kcal/mol T*S(tot)=    24.17 kcal/mol
 sn=10  qrot/sn=   21781.2043 T*S(rot)=     6.81 kcal/mol T*S(tot)=    24.11 kcal/mol
 sn=11  qrot/sn=   19801.0948 T*S(rot)=     6.75 kcal/mol T*S(tot)=    24.05 kcal/mol
 sn=12  qrot/sn=   18151.0036 T*S(rot)=     6.70 kcal/mol T*S(tot)=    24.00 kcal/mol

-------------------
GIBBS FREE ENTHALPY
-------------------

The Gibbs free enthalpy is G = H - T*S

Total enthalpy                    ...   -327.03665591 Eh
Total entropy correction          ...     -0.03955267 Eh    -24.82 kcal/mol
-----------------------------------------------------------------------
Final Gibbs free enthalpy         ...   -327.07620858 Eh

For completeness - the Gibbs free enthalpy minus the electronic energy
G-E(el)                           ...      0.14574340 Eh     91.46 kcal/mol

                             ****ORCA TERMINATED NORMALLY****
TOTAL RUN TIME: 0 days 0 hours 35 minutes 33 seconds 535 msec
