                         Program Version 3.0.3 - RELEASE   -
|  1> ! NORI PBE0 def2-TZVP UseSym TightOPT Freq TightSCF Grid3 FinalGrid5 XYZFile
|  2> % pal
|  3>     nprocs 8
|  4> end
|  5> %method
|  6>     SymThresh 5.0e-2
|  7> end
|  8> % geom
|  9>     MaxIter 10
| 10> end
| 11> % maxcore 2000
| 12> % output
| 13>     printlevel mini
| 14>     print[ P_Basis ] 0
| 15>     print[ P_SCFInfo ] 1
| 16>     print[ P_SCFIterInfo ] 1
| 17>     print[ P_OrbEn ] 0
| 18>     print[ P_Cartesian ] 0
| 19> end
| 20> % elprop
| 21>     Dipole false
| 22> end
| 23> *xyz 1 1
| 24>  C        0.6794183854    -0.1106642011     0.1388997968
| 25>  C        2.1758784213    -0.1338582938    -0.0483845995
| 26>  C        3.0445178821     1.0030295583     0.5441739800
| 27>  C        4.1089595306    -0.0337141357     0.9378086025
| 28>  O        5.0384859018    -0.3222947079    -0.0828406534
| 29>  C        3.0122088303    -1.1062298253     0.8015480591
| 30>  N        3.5085828517    -2.3433168263     0.1226753609
| 31>  H        0.2401875163     0.7211105554    -0.4148589061
| 32>  H        0.4140571294     0.0135945976     1.1918163190
| 33>  H        0.2058048931    -1.0266627746    -0.2251673034
| 34>  H        2.4344195253    -0.2614024233    -1.1050173437
| 35>  H        2.5832115009     1.4528436045     1.4253490830
| 36>  H        3.3662118818     1.7929421037    -0.1336184013
| 37>  H        4.5984851734     0.0666161907     1.9092228186
| 38>  H        5.6989290975     0.3727620898    -0.1577677233
| 39>  H        2.5366211664    -1.3834613431     1.7414658818
| 40>  H        4.2989416887    -2.0350647140    -0.4682760552
| 41>  H        2.7913998414    -2.7779559393    -0.4587680833
| 42>  H        3.8573487827    -3.0421035157     0.7801991674
| 43> *
| 44>
| 45>                          ****END OF INPUT****
 Total Charge           Charge          ....    1
 Multiplicity           Mult            ....    1
 Number of Electrons    NEL             ....   56
FINAL SINGLE POINT ENERGY      -327.217801968606

CARTESIAN COORDINATES (ANGSTROEM)
---------------------------------
  C     -0.507677    0.722209   -2.319783
  C     -0.373960    0.585407   -0.823390
  C     -1.494601   -0.107635   -0.009783
  C     -0.424765   -0.780197    0.865479
  O      0.000151    0.000976    1.960190
  C      0.582344   -0.480764   -0.260552
  N      1.897129   -0.000408    0.266728
  H     -1.320766    1.407160   -2.567166
  H     -0.729967   -0.240350   -2.787087
  H      0.401277    1.120911   -2.778377
  H     -0.149872    1.553120   -0.362123
  H     -2.038336   -0.842342   -0.606959
  H     -2.208839    0.533113    0.505855
  H     -0.567377   -1.825035    1.150086
  H     -0.643218   -0.023181    2.674473
  H      0.755516   -1.313512   -0.940915
  H      1.686660    0.427100    1.184019
  H      2.328593    0.691545   -0.346476
  H      2.563860   -0.758899    0.416041

FINAL SINGLE POINT ENERGY      -327.217802898134
                    ***********************HURRAY********************
 Multiplicity           Mult            ....    1
 Number of Electrons    NEL             ....   56
 Basis Dimension        Dim             ....  289
FINAL SINGLE POINT ENERGY      -327.217803468834

VIBRATIONAL FREQUENCIES
-----------------------

   0:         0.00 cm**-1
   1:         0.00 cm**-1
   2:         0.00 cm**-1
   3:         0.00 cm**-1
   4:         0.00 cm**-1
   5:         0.00 cm**-1
   6:       106.13 cm**-1
   7:       194.13 cm**-1
   8:       212.47 cm**-1
   9:       240.59 cm**-1
  10:       262.46 cm**-1
  11:       300.51 cm**-1
  12:       325.85 cm**-1
  13:       372.00 cm**-1
  14:       445.69 cm**-1
  15:       568.24 cm**-1
  16:       710.17 cm**-1
  17:       782.66 cm**-1
  18:       859.52 cm**-1
  19:       891.96 cm**-1
  20:       901.68 cm**-1
  21:       949.05 cm**-1
  22:       996.67 cm**-1
  23:      1000.19 cm**-1
  24:      1049.18 cm**-1
  25:      1057.85 cm**-1
  26:      1139.03 cm**-1
  27:      1149.51 cm**-1
  28:      1169.43 cm**-1
  29:      1206.51 cm**-1
  30:      1231.02 cm**-1
  31:      1250.84 cm**-1
  32:      1286.58 cm**-1
  33:      1296.47 cm**-1
  34:      1318.18 cm**-1
  35:      1361.01 cm**-1
  36:      1386.84 cm**-1
  37:      1415.97 cm**-1
  38:      1420.50 cm**-1
  39:      1470.51 cm**-1
  40:      1479.86 cm**-1
  41:      1484.34 cm**-1
  42:      1490.01 cm**-1
  43:      1635.87 cm**-1
  44:      1663.05 cm**-1
  45:      3051.79 cm**-1
  46:      3063.23 cm**-1
  47:      3089.37 cm**-1
  48:      3098.17 cm**-1
  49:      3124.38 cm**-1
  50:      3138.82 cm**-1
  51:      3143.17 cm**-1
  52:      3158.49 cm**-1
  53:      3294.33 cm**-1
  54:      3472.66 cm**-1
  55:      3526.51 cm**-1
  56:      3863.14 cm**-1

IR SPECTRUM
-----------

 Mode    freq (cm**-1)   T**2         TX         TY         TZ
-------------------------------------------------------------------
   6:       106.13    3.785147  ( -0.810958   1.746396   0.278555)
   7:       194.13   46.473737  (  1.737324  -5.339281   3.866203)
   8:       212.47    7.588203  ( -0.849916   1.999652  -1.693291)
   9:       240.59    3.540286  (  0.623120  -0.010697  -1.775357)
  10:       262.46   97.811252  ( -5.222210   7.674538  -3.411926)
  11:       300.51   16.190391  (  1.827256   0.724506  -3.510928)
  12:       325.85   20.364636  (  2.656633   0.434008  -3.621957)
  13:       372.00    3.605656  ( -1.065138   0.993460  -1.218267)
  14:       445.69    3.078840  ( -1.443773   0.772178   0.630953)
  15:       568.24   12.712654  ( -2.472396  -2.055228  -1.541411)
  16:       710.17    0.599621  (  0.680930   0.071394   0.361744)
  17:       782.66    0.692569  (  0.769734   0.024058  -0.315437)
  18:       859.52    8.011257  (  2.711886   0.164332   0.793678)
  19:       891.96    9.140313  ( -0.378511   0.318880   2.982509)
  20:       901.68    4.702746  (  1.146587   0.381646  -1.800675)
  21:       949.05   11.990572  (  0.650251  -1.050745  -3.234761)
  22:       996.67   30.238445  (  4.259992  -2.929482  -1.873245)
  23:      1000.19   23.398214  (  0.156691  -1.224132   4.677089)
  24:      1049.18   22.280129  (  0.781376   0.726054   4.598089)
  25:      1057.85   53.131170  ( -1.394099  -2.906971  -6.537368)
  26:      1139.03    6.902745  ( -1.365885  -2.214825   0.362844)
  27:      1149.51    9.169970  (  1.819373   0.858861   2.263230)
  28:      1169.43    2.930886  (  0.952675   0.295574   1.391378)
  29:      1206.51   34.732135  ( -2.890256  -4.054920  -3.152171)
  30:      1231.02    4.515778  (  0.224559   1.835378   1.047253)
  31:      1250.84   16.863432  ( -1.761157  -0.302655  -3.697317)
  32:      1286.58    0.709534  (  0.225272   0.707747   0.397343)
  33:      1296.47    3.879994  ( -0.069324  -1.091526   1.638218)
  34:      1318.18   14.683486  ( -1.822693  -1.614163  -2.959012)
  35:      1361.01    8.098294  ( -0.530226   2.338413   1.532637)
  36:      1386.84    8.860640  (  0.628981  -0.360708   2.887025)
  37:      1415.97    5.109166  ( -1.761417   0.573560  -1.295225)
  38:      1420.50    5.240785  ( -0.805111   0.645693   2.043444)
  39:      1470.51   57.219325  (  7.283392   1.513807   1.371101)
  40:      1479.86  114.042609  (  9.749948   3.532456   2.550075)
  41:      1484.34   14.048850  (  0.897158   3.411901   1.266053)
  42:      1490.01   46.301321  (  5.223805   4.281779   0.824344)
  43:      1635.87   23.962901  (  2.863057  -3.827334  -1.057036)
  44:      1663.05   38.079844  (  1.306494   2.666358  -5.409571)
  45:      3051.79    7.107125  ( -1.063965  -0.033256   2.444176)
  46:      3063.23    6.124150  (  1.098651   1.329656   1.774579)
  47:      3089.37    5.747148  (  1.048377  -1.939814   0.940837)
  48:      3098.17   17.527230  ( -1.541466  -3.760755   1.003909)
  49:      3124.38   13.015684  ( -2.716078  -2.368875   0.164434)
  50:      3138.82    3.371377  (  0.936820  -1.532833  -0.379694)
  51:      3143.17    2.989783  ( -0.273786   1.540628   0.735724)
  52:      3158.49    3.290673  ( -0.504748   1.122226   1.332859)
  53:      3294.33  122.507752  (  3.364951  -2.860104 -10.149121)
  54:      3472.66   98.672537  ( -8.663300   1.893084   4.476159)
  55:      3526.51   88.311776  ( -0.694255   8.146779  -4.632470)
  56:      3863.14  132.259930  (  5.248868  -0.685408 -10.209776)

--------------------------
THERMOCHEMISTRY AT 298.15K
--------------------------

Temperature         ... 298.15 K
Pressure            ... 1.00 atm
Total Mass          ... 102.16 AMU

Throughout the following assumptions are being made:
  (1) The electronic state is orbitally nondegenerate
  (2) There are no thermally accessible electronically excited states
  (3) Hindered rotations indicated by low frequency modes) are not
      treated as such but are treated as vibrations and this may
      case some error
  (4) All equations used are the standard statistical mechanics
      equations for an ideal gas
  (5) All vibrations are strinctly harmonic

------------
INNER ENERGY
------------

The inner energy is: U= E(el) + E(ZPE) + E(vib) + E(rot) + E(trans)
    E(el)   - is the total energy from the electronic structure calculation
              = E(kin-el) + E(nuc-el) + E(el-el) + E(nuc-nuc)
    E(ZPE)  - the the zero temperature vibrational energy from the frequency calculation
    E(vib)  - the the finite temperature correction to E(ZPE) due to population
              of excietd vibrational states
    E(rot)  - is the rotational thermal energy
    E(trans)- is the translational thermal energy

Summary of contributions to the inner energy U:
Electronic energy                ...   -327.21780347 Eh
Zero point energy                ...      0.17566168 Eh     110.23 kcal/mol
Thermal vibrational correction   ...      0.00513474 Eh       3.22 kcal/mol
Thermal rotational correction    ...      0.00141627 Eh       0.89 kcal/mol
Thermal translational correction ...      0.00141627 Eh       0.89 kcal/mol
-----------------------------------------------------------------------
Total thermal energy                   -327.03417450 Eh

Summary of corrections to the electronic energy:
(perhaps to be used in another calculation)
Total thermal correction                  0.00796729 Eh       5.00 kcal/mol
Non-thermal (ZPE) correction              0.17566168 Eh     110.23 kcal/mol
-----------------------------------------------------------------------
Total correction                          0.18362896 Eh     115.23 kcal/mol

--------
ENTHALPY
--------

The enthalpy is H = U + kB*T
                kB is Boltzmann's constant
Total free energy                 ...   -327.03417450 Eh
Thermal Enthalpy correction       ...      0.00094421 Eh       0.59 kcal/mol
-----------------------------------------------------------------------
Total Enthalpy                    ...   -327.03323030 Eh

-------
ENTROPY
-------

The entropy contributions are T*S = T*(S(el)+S(vib)+S(rot)+S(trans)
     S(el)   - electronic entropy
     S(vib)  - vibrational entropy
     S(rot)  - rotational entropy
     S(trans)- translational entropy
The entropies will be listed as mutliplied by the temperature to get
units of energy

Electronic entropy                ...      0.00000000 Eh      0.00 kcal/mol
Vibrational entropy               ...      0.00853945 Eh      5.36 kcal/mol
Rotational entropy                ...      0.01202874 Eh      7.55 kcal/mol
Translational entropy             ...      0.01890147 Eh     11.86 kcal/mol
-----------------------------------------------------------------------
Final entropy term                ...      0.03946965 Eh     24.77 kcal/mol

CAUTION: The rotational entropy is not quite correctly treated here
         because it includes a symmetry number that is not yet correctly
         implemented in ORCA!
For a nonlinear molecule the correct rotational entropy is:
    S(rot) = R*(ln(qrot/sn)+1.5)
    R    = 8.31441 J/mol/K = 1.987191683e-3 kcal/mol/K
    qrot = 228313.8195995
    sn is the rotational symmetry number. We have assumed 3 here
       if it is different for your molecule then you should correct
       the printed rotational entropy by manually evaluating the equation
       as given above

For convenience we print out the resulting values for sn=1 - 12:
 sn= 1  qrot/sn=  228313.8196 T*S(rot)=     8.20 kcal/mol T*S(tot)=    25.42 kcal/mol
 sn= 2  qrot/sn=  114156.9098 T*S(rot)=     7.79 kcal/mol T*S(tot)=    25.01 kcal/mol
 sn= 3  qrot/sn=   76104.6065 T*S(rot)=     7.55 kcal/mol T*S(tot)=    24.77 kcal/mol
 sn= 4  qrot/sn=   57078.4549 T*S(rot)=     7.38 kcal/mol T*S(tot)=    24.60 kcal/mol
 sn= 5  qrot/sn=   45662.7639 T*S(rot)=     7.25 kcal/mol T*S(tot)=    24.46 kcal/mol
 sn= 6  qrot/sn=   38052.3033 T*S(rot)=     7.14 kcal/mol T*S(tot)=    24.36 kcal/mol
 sn= 7  qrot/sn=   32616.2599 T*S(rot)=     7.05 kcal/mol T*S(tot)=    24.27 kcal/mol
 sn= 8  qrot/sn=   28539.2274 T*S(rot)=     6.97 kcal/mol T*S(tot)=    24.19 kcal/mol
 sn= 9  qrot/sn=   25368.2022 T*S(rot)=     6.90 kcal/mol T*S(tot)=    24.12 kcal/mol
 sn=10  qrot/sn=   22831.3820 T*S(rot)=     6.83 kcal/mol T*S(tot)=    24.05 kcal/mol
 sn=11  qrot/sn=   20755.8018 T*S(rot)=     6.78 kcal/mol T*S(tot)=    24.00 kcal/mol
 sn=12  qrot/sn=   19026.1516 T*S(rot)=     6.73 kcal/mol T*S(tot)=    23.95 kcal/mol

-------------------
GIBBS FREE ENTHALPY
-------------------

The Gibbs free enthalpy is G = H - T*S

Total enthalpy                    ...   -327.03323030 Eh
Total entropy correction          ...     -0.03946965 Eh    -24.77 kcal/mol
-----------------------------------------------------------------------
Final Gibbs free enthalpy         ...   -327.07269994 Eh

For completeness - the Gibbs free enthalpy minus the electronic energy
G-E(el)                           ...      0.14510352 Eh     91.05 kcal/mol

                             ****ORCA TERMINATED NORMALLY****
TOTAL RUN TIME: 0 days 0 hours 35 minutes 37 seconds 123 msec
