                         Program Version 3.0.3 - RELEASE   -
|  1> ! NORI PBE0 def2-TZVP UseSym TightOPT Freq TightSCF Grid3 FinalGrid5 XYZFile
|  2> % pal
|  3>     nprocs 8
|  4> end
|  5> %method
|  6>     SymThresh 5.0e-2
|  7> end
|  8> % geom
|  9>     MaxIter 10
| 10> end
| 11> % maxcore 2000
| 12> % output
| 13>     printlevel mini
| 14>     print[ P_Basis ] 0
| 15>     print[ P_SCFInfo ] 1
| 16>     print[ P_SCFIterInfo ] 1
| 17>     print[ P_OrbEn ] 0
| 18>     print[ P_Cartesian ] 0
| 19> end
| 20> % elprop
| 21>     Dipole false
| 22> end
| 23> *xyz 1 1
| 24>  C        0.8577937583    -0.3998795225    -0.8090353531
| 25>  C        2.3391391762    -0.4409787563    -0.5745811277
| 26>  C        2.7758140800    -0.2794122246     0.8638750196
| 27>  C        4.2632996850    -0.3189106516     1.1476732077
| 28>  O        4.8939894958     0.6998383571     0.3769015672
| 29>  C        3.1916008724    -1.1208506313    -1.5691467935
| 30>  N        3.1484348854     0.3556439292    -1.5594647414
| 31>  H        0.6097590244    -0.4331710070    -1.8723810287
| 32>  H        0.4177572660     0.4978273261    -0.3705904523
| 33>  H        0.3951601084    -1.2677636195    -0.3354071622
| 34>  H        2.2956477086    -1.0782944770     1.4363294552
| 35>  H        2.3597710530     0.6620336739     1.2355188666
| 36>  H        4.4174762908    -0.1443124419     2.2158427277
| 37>  H        4.6879010979    -1.3008654050     0.9070377903
| 38>  H        5.8064854893     0.8197704358     0.6543408496
| 39>  H        4.1549821949    -1.5242235827    -1.2872594958
| 40>  H        2.7249703655    -1.5766991978    -2.4330883101
| 41>  H        2.6679831688     0.8338737663    -2.3122246251
| 42>  H        3.9730142792     0.8121140287    -1.1421403941
| 43> *
| 44>
| 45>                          ****END OF INPUT****
 Total Charge           Charge          ....    1
 Multiplicity           Mult            ....    1
 Number of Electrons    NEL             ....   56
FINAL SINGLE POINT ENERGY      -327.215890752890
FINAL SINGLE POINT ENERGY      -327.215891467716
FINAL SINGLE POINT ENERGY      -327.215893246858

CARTESIAN COORDINATES (ANGSTROEM)
---------------------------------
  C      0.086809    0.824165   -2.174775
  C      0.037065    0.103667   -0.859560
  C     -1.120088    0.472064    0.042100
  C     -1.211461   -0.232308    1.380350
  O      0.000775    0.000297    2.092369
  C      0.725405   -1.196518   -0.742675
  N      1.361208    0.000455   -0.154903
  H      0.987610    0.579695   -2.741906
  H      0.041492    1.905086   -2.029970
  H     -0.773088    0.527910   -2.778167
  H     -2.038732    0.269976   -0.516089
  H     -1.086035    1.553862    0.203199
  H     -2.064559    0.174719    1.929275
  H     -1.381102   -1.308083    1.253229
  H     -0.080491   -0.290225    3.005104
  H      0.412539   -1.923127   -0.004735
  H      1.237447   -1.596415   -1.608450
  H      2.184193    0.385421   -0.602704
  H      1.288341    0.072162    0.870881

FINAL SINGLE POINT ENERGY      -327.215893547837
                    ***********************HURRAY********************
 Multiplicity           Mult            ....    1
 Number of Electrons    NEL             ....   56
 Basis Dimension        Dim             ....  289
FINAL SINGLE POINT ENERGY      -327.215893769417

VIBRATIONAL FREQUENCIES
-----------------------

   0:         0.00 cm**-1
   1:         0.00 cm**-1
   2:         0.00 cm**-1
   3:         0.00 cm**-1
   4:         0.00 cm**-1
   5:         0.00 cm**-1
   6:        78.41 cm**-1
   7:       218.32 cm**-1
   8:       232.04 cm**-1
   9:       261.93 cm**-1
  10:       311.63 cm**-1
  11:       326.41 cm**-1
  12:       361.65 cm**-1
  13:       386.78 cm**-1
  14:       417.03 cm**-1
  15:       547.01 cm**-1
  16:       680.78 cm**-1
  17:       788.92 cm**-1
  18:       862.20 cm**-1
  19:       903.50 cm**-1
  20:       918.67 cm**-1
  21:       931.91 cm**-1
  22:       970.97 cm**-1
  23:      1005.62 cm**-1
  24:      1039.51 cm**-1
  25:      1068.56 cm**-1
  26:      1097.93 cm**-1
  27:      1114.40 cm**-1
  28:      1121.03 cm**-1
  29:      1176.42 cm**-1
  30:      1218.35 cm**-1
  31:      1256.02 cm**-1
  32:      1267.64 cm**-1
  33:      1303.58 cm**-1
  34:      1331.22 cm**-1
  35:      1373.47 cm**-1
  36:      1415.69 cm**-1
  37:      1428.98 cm**-1
  38:      1453.21 cm**-1
  39:      1460.24 cm**-1
  40:      1475.22 cm**-1
  41:      1487.24 cm**-1
  42:      1501.80 cm**-1
  43:      1526.36 cm**-1
  44:      1592.17 cm**-1
  45:      3038.05 cm**-1
  46:      3062.02 cm**-1
  47:      3069.06 cm**-1
  48:      3100.07 cm**-1
  49:      3117.49 cm**-1
  50:      3143.19 cm**-1
  51:      3149.79 cm**-1
  52:      3175.11 cm**-1
  53:      3257.13 cm**-1
  54:      3273.20 cm**-1
  55:      3587.35 cm**-1
  56:      3865.35 cm**-1

IR SPECTRUM
-----------

 Mode    freq (cm**-1)   T**2         TX         TY         TZ
-------------------------------------------------------------------
   6:        78.41    3.080816  ( -0.262214  -1.697358   0.361986)
   7:       218.32    2.213607  ( -0.128068   1.233149   0.822526)
   8:       232.04   21.594344  (  1.790096  -2.496983  -3.486399)
   9:       261.93    6.434393  (  1.213032   1.517242  -1.631234)
  10:       311.63   41.960466  ( -0.389773   6.229870   1.731261)
  11:       326.41   58.320586  (  2.682888  -7.074591  -1.035789)
  12:       361.65   35.844139  (  2.632977  -2.366090  -4.828373)
  13:       386.78    3.776477  (  0.310409   1.021375   1.623858)
  14:       417.03    3.681660  (  0.474369  -1.760132  -0.598806)
  15:       547.01    9.826240  (  1.306720   0.007839   2.849327)
  16:       680.78    0.150864  ( -0.125824  -0.250663   0.268702)
  17:       788.92   23.927878  ( -3.655363  -0.213467  -3.243552)
  18:       862.20    4.986767  ( -1.636066   0.525069  -1.426310)
  19:       903.50    2.743960  (  0.010608   1.623588  -0.328344)
  20:       918.67   13.833111  (  2.631357  -1.208910  -2.334011)
  21:       931.91    1.831369  (  1.264325   0.408285   0.257205)
  22:       970.97   13.432521  ( -0.764682   0.991354  -3.444561)
  23:      1005.62   10.267403  (  1.458772  -1.593162   2.366690)
  24:      1039.51   12.831800  (  0.869624  -3.415028  -0.642759)
  25:      1068.56   18.988671  ( -3.694202   1.936802  -1.261086)
  26:      1097.93   21.765895  ( -1.448397   3.679319   2.476016)
  27:      1114.40   65.534082  (  7.389194   0.158640   3.302836)
  28:      1121.03   27.838467  (  1.455674  -4.883658  -1.367246)
  29:      1176.42    4.788997  (  1.782955   0.667819   1.078929)
  30:      1218.35   52.127651  (  6.490822   0.874781   3.038362)
  31:      1256.02    0.136053  ( -0.094093   0.086085  -0.346105)
  32:      1267.64    4.027432  (  0.993330  -0.514120   1.666256)
  33:      1303.58   19.635418  (  2.792644   1.401414   3.142069)
  34:      1331.22   13.560101  ( -3.558962  -0.094408   0.940731)
  35:      1373.47    9.324659  ( -2.863369   0.913276  -0.540095)
  36:      1415.69    1.301011  ( -1.017393  -0.071284   0.510727)
  37:      1428.98   15.370868  (  0.277722   1.053765  -3.766074)
  38:      1453.21   10.073094  (  0.154821  -1.162347   2.949250)
  39:      1460.24    6.288300  ( -1.178487   2.113638   0.657269)
  40:      1475.22   17.918818  (  1.484031   3.821840   1.053571)
  41:      1487.24   10.636390  (  2.257891  -2.352298  -0.070781)
  42:      1501.80    5.320347  (  2.116447   0.329165  -0.855949)
  43:      1526.36   10.724957  ( -0.505420  -2.551357   1.989996)
  44:      1592.17  107.821962  (-10.075429  -1.811952   1.739118)
  45:      3038.05   23.901919  (  3.000909   3.854824   0.191837)
  46:      3062.02    0.746938  ( -0.810380   0.043858   0.297152)
  47:      3069.06    3.207699  (  0.796791   1.268138  -0.982165)
  48:      3100.07    9.097607  ( -2.148053   1.842636   1.043154)
  49:      3117.49    2.134865  ( -0.149731   1.433277   0.241169)
  50:      3143.19    3.681434  (  1.569713  -0.853887  -0.698793)
  51:      3149.79    0.886056  (  0.061775  -0.929142   0.137605)
  52:      3175.11    0.344085  ( -0.192042   0.553818  -0.022147)
  53:      3257.13  398.641680  ( -2.927354   1.808989  19.667228)
  54:      3273.20    2.024969  (  0.672147  -0.029445  -1.253922)
  55:      3587.35  132.737608  (  9.163678   3.257455  -6.176860)
  56:      3865.35  119.708373  (  0.910005  -2.265991  10.665156)

--------------------------
THERMOCHEMISTRY AT 298.15K
--------------------------

Temperature         ... 298.15 K
Pressure            ... 1.00 atm
Total Mass          ... 102.16 AMU

Throughout the following assumptions are being made:
  (1) The electronic state is orbitally nondegenerate
  (2) There are no thermally accessible electronically excited states
  (3) Hindered rotations indicated by low frequency modes) are not
      treated as such but are treated as vibrations and this may
      case some error
  (4) All equations used are the standard statistical mechanics
      equations for an ideal gas
  (5) All vibrations are strinctly harmonic

------------
INNER ENERGY
------------

The inner energy is: U= E(el) + E(ZPE) + E(vib) + E(rot) + E(trans)
    E(el)   - is the total energy from the electronic structure calculation
              = E(kin-el) + E(nuc-el) + E(el-el) + E(nuc-nuc)
    E(ZPE)  - the the zero temperature vibrational energy from the frequency calculation
    E(vib)  - the the finite temperature correction to E(ZPE) due to population
              of excietd vibrational states
    E(rot)  - is the rotational thermal energy
    E(trans)- is the translational thermal energy

Summary of contributions to the inner energy U:
Electronic energy                ...   -327.21589377 Eh
Zero point energy                ...      0.17485087 Eh     109.72 kcal/mol
Thermal vibrational correction   ...      0.00500416 Eh       3.14 kcal/mol
Thermal rotational correction    ...      0.00141627 Eh       0.89 kcal/mol
Thermal translational correction ...      0.00141627 Eh       0.89 kcal/mol
-----------------------------------------------------------------------
Total thermal energy                   -327.03320620 Eh

Summary of corrections to the electronic energy:
(perhaps to be used in another calculation)
Total thermal correction                  0.00783670 Eh       4.92 kcal/mol
Non-thermal (ZPE) correction              0.17485087 Eh     109.72 kcal/mol
-----------------------------------------------------------------------
Total correction                          0.18268757 Eh     114.64 kcal/mol

--------
ENTHALPY
--------

The enthalpy is H = U + kB*T
                kB is Boltzmann's constant
Total free energy                 ...   -327.03320620 Eh
Thermal Enthalpy correction       ...      0.00094421 Eh       0.59 kcal/mol
-----------------------------------------------------------------------
Total Enthalpy                    ...   -327.03226199 Eh

-------
ENTROPY
-------

The entropy contributions are T*S = T*(S(el)+S(vib)+S(rot)+S(trans)
     S(el)   - electronic entropy
     S(vib)  - vibrational entropy
     S(rot)  - rotational entropy
     S(trans)- translational entropy
The entropies will be listed as mutliplied by the temperature to get
units of energy

Electronic entropy                ...      0.00000000 Eh      0.00 kcal/mol
Vibrational entropy               ...      0.00835651 Eh      5.24 kcal/mol
Rotational entropy                ...      0.01201921 Eh      7.54 kcal/mol
Translational entropy             ...      0.01890147 Eh     11.86 kcal/mol
-----------------------------------------------------------------------
Final entropy term                ...      0.03927718 Eh     24.65 kcal/mol

CAUTION: The rotational entropy is not quite correctly treated here
         because it includes a symmetry number that is not yet correctly
         implemented in ORCA!
For a nonlinear molecule the correct rotational entropy is:
    S(rot) = R*(ln(qrot/sn)+1.5)
    R    = 8.31441 J/mol/K = 1.987191683e-3 kcal/mol/K
    qrot = 226020.5980212
    sn is the rotational symmetry number. We have assumed 3 here
       if it is different for your molecule then you should correct
       the printed rotational entropy by manually evaluating the equation
       as given above

For convenience we print out the resulting values for sn=1 - 12:
 sn= 1  qrot/sn=  226020.5980 T*S(rot)=     8.19 kcal/mol T*S(tot)=    25.30 kcal/mol
 sn= 2  qrot/sn=  113010.2990 T*S(rot)=     7.78 kcal/mol T*S(tot)=    24.89 kcal/mol
 sn= 3  qrot/sn=   75340.1993 T*S(rot)=     7.54 kcal/mol T*S(tot)=    24.65 kcal/mol
 sn= 4  qrot/sn=   56505.1495 T*S(rot)=     7.37 kcal/mol T*S(tot)=    24.48 kcal/mol
 sn= 5  qrot/sn=   45204.1196 T*S(rot)=     7.24 kcal/mol T*S(tot)=    24.34 kcal/mol
 sn= 6  qrot/sn=   37670.0997 T*S(rot)=     7.13 kcal/mol T*S(tot)=    24.24 kcal/mol
 sn= 7  qrot/sn=   32288.6569 T*S(rot)=     7.04 kcal/mol T*S(tot)=    24.14 kcal/mol
 sn= 8  qrot/sn=   28252.5748 T*S(rot)=     6.96 kcal/mol T*S(tot)=    24.07 kcal/mol
 sn= 9  qrot/sn=   25113.3998 T*S(rot)=     6.89 kcal/mol T*S(tot)=    24.00 kcal/mol
 sn=10  qrot/sn=   22602.0598 T*S(rot)=     6.83 kcal/mol T*S(tot)=    23.93 kcal/mol
 sn=11  qrot/sn=   20547.3271 T*S(rot)=     6.77 kcal/mol T*S(tot)=    23.88 kcal/mol
 sn=12  qrot/sn=   18835.0498 T*S(rot)=     6.72 kcal/mol T*S(tot)=    23.83 kcal/mol

-------------------
GIBBS FREE ENTHALPY
-------------------

The Gibbs free enthalpy is G = H - T*S

Total enthalpy                    ...   -327.03226199 Eh
Total entropy correction          ...     -0.03927718 Eh    -24.65 kcal/mol
-----------------------------------------------------------------------
Final Gibbs free enthalpy         ...   -327.07153918 Eh

For completeness - the Gibbs free enthalpy minus the electronic energy
G-E(el)                           ...      0.14435459 Eh     90.58 kcal/mol

                             ****ORCA TERMINATED NORMALLY****
TOTAL RUN TIME: 0 days 0 hours 38 minutes 23 seconds 907 msec
