                         Program Version 3.0.3 - RELEASE   -
|  1> ! NORI PBE0 def2-TZVP UseSym TightOPT Freq TightSCF Grid3 FinalGrid5 XYZFile
|  2> % pal
|  3>     nprocs 8
|  4> end
|  5> %method
|  6>     SymThresh 5.0e-2
|  7> end
|  8> % geom
|  9>     MaxIter 10
| 10> end
| 11> % maxcore 2000
| 12> % output
| 13>     printlevel mini
| 14>     print[ P_Basis ] 0
| 15>     print[ P_SCFInfo ] 1
| 16>     print[ P_SCFIterInfo ] 1
| 17>     print[ P_OrbEn ] 0
| 18>     print[ P_Cartesian ] 0
| 19> end
| 20> % elprop
| 21>     Dipole false
| 22> end
| 23> *xyz 1 1
| 24>  C        0.9591419283     0.0655784601    -0.0514138066
| 25>  C        2.4593103830     0.1059810250     0.0704417423
| 26>  C        3.0633127126     1.2619417898     0.8443350919
| 27>  C        4.3607114269     0.7329486537     1.4261593855
| 28>  O        5.2588442731     1.3511718972     1.8954102369
| 29>  C        4.3527313345    -0.7964619928     1.3108346835
| 30>  N        2.9733753254    -1.1135057318     0.8439285480
| 31>  H        0.6230100760     0.9308933653    -0.6248959426
| 32>  H        0.4760216018     0.1136316650     0.9286053930
| 33>  H        0.6134651090    -0.8272303860    -0.5778726893
| 34>  H        2.9335752080     0.0236030215    -0.9113607166
| 35>  H        2.4158854595     1.5764728062     1.6720571372
| 36>  H        3.2490252661     2.1404186103     0.2265122861
| 37>  H        5.0729138371    -1.1164530116     0.5556890960
| 38>  H        4.5772202722    -1.2897476397     2.2553036491
| 39>  H        2.9346856487    -1.9556707081     0.2692727663
| 40>  H        2.3557701379    -1.2768418241     1.6417431395
| 41> *
| 42>
| 43>                          ****END OF INPUT****
 Total Charge           Charge          ....    1
 Multiplicity           Mult            ....    1
 Number of Electrons    NEL             ....   54
FINAL SINGLE POINT ENERGY      -326.022640029220

CARTESIAN COORDINATES (ANGSTROEM)
---------------------------------
  C     -1.035380   -0.342191   -2.320824
  C     -0.485962    0.295927   -1.072515
  C     -1.044434   -0.179288    0.255016
  C      0.072001    0.015785    1.263644
  O     -0.000196   -0.000015    2.448303
  C      1.378545    0.254853    0.496390
  N      1.011042   -0.000025   -0.925362
  H     -2.094174   -0.095481   -2.412518
  H     -0.954643   -1.432258   -2.282235
  H     -0.537410    0.022661   -3.222104
  H     -0.541655    1.386324   -1.134156
  H     -1.302294   -1.245045    0.226098
  H     -1.938926    0.362522    0.562003
  H      1.690829    1.294651    0.608555
  H      2.183702   -0.401008    0.823893
  H      1.561029    0.555257   -1.581065
  H      1.174427   -0.980144   -1.165319

FINAL SINGLE POINT ENERGY      -326.022640730035
                    ***********************HURRAY********************
 Multiplicity           Mult            ....    1
 Number of Electrons    NEL             ....   54
 Basis Dimension        Dim             ....  277
FINAL SINGLE POINT ENERGY      -326.022641096032

VIBRATIONAL FREQUENCIES
-----------------------

   0:         0.00 cm**-1
   1:         0.00 cm**-1
   2:         0.00 cm**-1
   3:         0.00 cm**-1
   4:         0.00 cm**-1
   5:         0.00 cm**-1
   6:        88.42 cm**-1
   7:       155.66 cm**-1
   8:       246.81 cm**-1
   9:       285.74 cm**-1
  10:       415.74 cm**-1
  11:       456.37 cm**-1
  12:       480.33 cm**-1
  13:       548.67 cm**-1
  14:       594.55 cm**-1
  15:       743.83 cm**-1
  16:       790.40 cm**-1
  17:       834.36 cm**-1
  18:       903.68 cm**-1
  19:       937.44 cm**-1
  20:       967.88 cm**-1
  21:       996.25 cm**-1
  22:      1024.74 cm**-1
  23:      1092.46 cm**-1
  24:      1149.97 cm**-1
  25:      1166.97 cm**-1
  26:      1180.48 cm**-1
  27:      1249.19 cm**-1
  28:      1270.64 cm**-1
  29:      1278.68 cm**-1
  30:      1348.32 cm**-1
  31:      1352.61 cm**-1
  32:      1392.11 cm**-1
  33:      1402.98 cm**-1
  34:      1424.79 cm**-1
  35:      1443.38 cm**-1
  36:      1461.35 cm**-1
  37:      1480.88 cm**-1
  38:      1489.61 cm**-1
  39:      1654.85 cm**-1
  40:      1908.30 cm**-1
  41:      3054.31 cm**-1
  42:      3056.63 cm**-1
  43:      3090.45 cm**-1
  44:      3106.67 cm**-1
  45:      3134.90 cm**-1
  46:      3150.26 cm**-1
  47:      3151.35 cm**-1
  48:      3176.63 cm**-1
  49:      3445.00 cm**-1
  50:      3508.86 cm**-1

IR SPECTRUM
-----------

 Mode    freq (cm**-1)   T**2         TX         TY         TZ
-------------------------------------------------------------------
   6:        88.42    5.707723  ( -0.389364   2.350609   0.175379)
   7:       155.66    1.646427  (  0.289940   1.122326  -0.550224)
   8:       246.81    0.385627  (  0.370027  -0.461801   0.188274)
   9:       285.74    5.942845  ( -2.387122  -0.460550  -0.179968)
  10:       415.74    1.815363  ( -0.537383  -1.235285   0.025554)
  11:       456.37    0.040490  ( -0.108866  -0.093197   0.141252)
  12:       480.33    6.625001  ( -2.441020  -0.733955  -0.357400)
  13:       548.67    2.032277  ( -0.537423   0.663707   1.141467)
  14:       594.55    7.084376  ( -0.089159  -0.774512   2.544908)
  15:       743.83    3.806272  (  0.089719   1.023237  -1.658676)
  16:       790.40    6.090593  (  2.187838   0.450123  -1.049450)
  17:       834.36    1.600294  ( -0.383110  -0.865130  -0.839685)
  18:       903.68   11.822673  (  2.391216   2.432762   0.431771)
  19:       937.44    1.647400  ( -1.195587   0.123406  -0.450271)
  20:       967.88    2.390534  (  1.335582  -0.126674  -0.768575)
  21:       996.25    4.599944  (  0.811334  -0.869913   1.784638)
  22:      1024.74    3.489633  ( -0.484232   1.667269   0.689467)
  23:      1092.46    3.067955  ( -1.485537   0.157806  -0.914458)
  24:      1149.97   29.740411  ( -5.383977  -0.383877  -0.778357)
  25:      1166.97   72.113841  (  8.242718   1.129897   1.701401)
  26:      1180.48   12.621245  ( -3.538411  -0.032499  -0.315968)
  27:      1249.19    1.951920  (  0.432949   1.313689   0.196714)
  28:      1270.64   23.870587  (  3.653955   0.452233   3.211648)
  29:      1278.68    0.414160  (  0.051734   0.533955  -0.355494)
  30:      1348.32    6.176860  ( -0.302226   0.486783  -2.418380)
  31:      1352.61   13.267009  (  3.035994  -1.444098   1.401545)
  32:      1392.11    9.103042  (  0.499977   1.337160  -2.658020)
  33:      1402.98   44.910264  (  5.655348   0.421558   3.570657)
  34:      1424.79   16.118931  (  2.275424   1.873149   2.726296)
  35:      1443.38   16.141697  ( -3.089527  -2.139094   1.421547)
  36:      1461.35   17.275161  (  4.032048   0.921913   0.409666)
  37:      1480.88    4.921802  (  1.509039  -1.623977  -0.085446)
  38:      1489.61   14.329782  (  0.684506   3.315861  -1.693015)
  39:      1654.85   57.159429  ( -4.474641   3.135351   5.225571)
  40:      1908.30  225.519646  (  0.911794   0.192483 -14.988370)
  41:      3054.31    3.368705  ( -1.625512   0.821046   0.228690)
  42:      3056.63    3.993499  (  1.727364   0.553598   0.838594)
  43:      3090.45    1.214827  ( -0.079495   0.983376   0.491406)
  44:      3106.67    6.188804  ( -2.353528  -0.791510   0.152383)
  45:      3134.90    4.833628  (  0.169465   1.768973  -1.294466)
  46:      3150.26    3.637757  (  1.354675  -0.819357  -1.063610)
  47:      3151.35    3.104387  ( -1.644601   0.410771  -0.480563)
  48:      3176.63    4.413822  ( -0.906477   1.886769  -0.179505)
  49:      3445.00   54.319683  (  4.313146  -3.507517  -4.838779)
  50:      3508.86   80.225320  ( -3.631174  -7.419213   3.463405)

--------------------------
THERMOCHEMISTRY AT 298.15K
--------------------------

Temperature         ... 298.15 K
Pressure            ... 1.00 atm
Total Mass          ... 100.14 AMU

Throughout the following assumptions are being made:
  (1) The electronic state is orbitally nondegenerate
  (2) There are no thermally accessible electronically excited states
  (3) Hindered rotations indicated by low frequency modes) are not
      treated as such but are treated as vibrations and this may
      case some error
  (4) All equations used are the standard statistical mechanics
      equations for an ideal gas
  (5) All vibrations are strinctly harmonic

------------
INNER ENERGY
------------

The inner energy is: U= E(el) + E(ZPE) + E(vib) + E(rot) + E(trans)
    E(el)   - is the total energy from the electronic structure calculation
              = E(kin-el) + E(nuc-el) + E(el-el) + E(nuc-nuc)
    E(ZPE)  - the the zero temperature vibrational energy from the frequency calculation
    E(vib)  - the the finite temperature correction to E(ZPE) due to population
              of excietd vibrational states
    E(rot)  - is the rotational thermal energy
    E(trans)- is the translational thermal energy

Summary of contributions to the inner energy U:
Electronic energy                ...   -326.02264110 Eh
Zero point energy                ...      0.15285024 Eh      95.91 kcal/mol
Thermal vibrational correction   ...      0.00411240 Eh       2.58 kcal/mol
Thermal rotational correction    ...      0.00141627 Eh       0.89 kcal/mol
Thermal translational correction ...      0.00141627 Eh       0.89 kcal/mol
-----------------------------------------------------------------------
Total thermal energy                   -325.86284591 Eh

Summary of corrections to the electronic energy:
(perhaps to be used in another calculation)
Total thermal correction                  0.00694494 Eh       4.36 kcal/mol
Non-thermal (ZPE) correction              0.15285024 Eh      95.91 kcal/mol
-----------------------------------------------------------------------
Total correction                          0.15979518 Eh     100.27 kcal/mol

--------
ENTHALPY
--------

The enthalpy is H = U + kB*T
                kB is Boltzmann's constant
Total free energy                 ...   -325.86284591 Eh
Thermal Enthalpy correction       ...      0.00094421 Eh       0.59 kcal/mol
-----------------------------------------------------------------------
Total Enthalpy                    ...   -325.86190170 Eh

-------
ENTROPY
-------

The entropy contributions are T*S = T*(S(el)+S(vib)+S(rot)+S(trans)
     S(el)   - electronic entropy
     S(vib)  - vibrational entropy
     S(rot)  - rotational entropy
     S(trans)- translational entropy
The entropies will be listed as mutliplied by the temperature to get
units of energy

Electronic entropy                ...      0.00000000 Eh      0.00 kcal/mol
Vibrational entropy               ...      0.00694020 Eh      4.36 kcal/mol
Rotational entropy                ...      0.01196660 Eh      7.51 kcal/mol
Translational entropy             ...      0.01887324 Eh     11.84 kcal/mol
-----------------------------------------------------------------------
Final entropy term                ...      0.03778003 Eh     23.71 kcal/mol

CAUTION: The rotational entropy is not quite correctly treated here
         because it includes a symmetry number that is not yet correctly
         implemented in ORCA!
For a nonlinear molecule the correct rotational entropy is:
    S(rot) = R*(ln(qrot/sn)+1.5)
    R    = 8.31441 J/mol/K = 1.987191683e-3 kcal/mol/K
    qrot = 213771.1719628
    sn is the rotational symmetry number. We have assumed 3 here
       if it is different for your molecule then you should correct
       the printed rotational entropy by manually evaluating the equation
       as given above

For convenience we print out the resulting values for sn=1 - 12:
 sn= 1  qrot/sn=  213771.1720 T*S(rot)=     8.16 kcal/mol T*S(tot)=    24.36 kcal/mol
 sn= 2  qrot/sn=  106885.5860 T*S(rot)=     7.75 kcal/mol T*S(tot)=    23.95 kcal/mol
 sn= 3  qrot/sn=   71257.0573 T*S(rot)=     7.51 kcal/mol T*S(tot)=    23.71 kcal/mol
 sn= 4  qrot/sn=   53442.7930 T*S(rot)=     7.34 kcal/mol T*S(tot)=    23.54 kcal/mol
 sn= 5  qrot/sn=   42754.2344 T*S(rot)=     7.21 kcal/mol T*S(tot)=    23.40 kcal/mol
 sn= 6  qrot/sn=   35628.5287 T*S(rot)=     7.10 kcal/mol T*S(tot)=    23.30 kcal/mol
 sn= 7  qrot/sn=   30538.7389 T*S(rot)=     7.01 kcal/mol T*S(tot)=    23.21 kcal/mol
 sn= 8  qrot/sn=   26721.3965 T*S(rot)=     6.93 kcal/mol T*S(tot)=    23.13 kcal/mol
 sn= 9  qrot/sn=   23752.3524 T*S(rot)=     6.86 kcal/mol T*S(tot)=    23.06 kcal/mol
 sn=10  qrot/sn=   21377.1172 T*S(rot)=     6.80 kcal/mol T*S(tot)=    22.99 kcal/mol
 sn=11  qrot/sn=   19433.7429 T*S(rot)=     6.74 kcal/mol T*S(tot)=    22.94 kcal/mol
 sn=12  qrot/sn=   17814.2643 T*S(rot)=     6.69 kcal/mol T*S(tot)=    22.89 kcal/mol

-------------------
GIBBS FREE ENTHALPY
-------------------

The Gibbs free enthalpy is G = H - T*S

Total enthalpy                    ...   -325.86190170 Eh
Total entropy correction          ...     -0.03778003 Eh    -23.71 kcal/mol
-----------------------------------------------------------------------
Final Gibbs free enthalpy         ...   -325.89968173 Eh

For completeness - the Gibbs free enthalpy minus the electronic energy
G-E(el)                           ...      0.12295936 Eh     77.16 kcal/mol

                             ****ORCA TERMINATED NORMALLY****
TOTAL RUN TIME: 0 days 0 hours 31 minutes 17 seconds 328 msec
