                         Program Version 3.0.3 - RELEASE   -
|  1> ! NORI PBE0 def2-TZVP UseSym TightOPT Freq TightSCF Grid3 FinalGrid5 XYZFile
|  2> % pal
|  3>     nprocs 8
|  4> end
|  5> %method
|  6>     SymThresh 5.0e-2
|  7> end
|  8> % geom
|  9>     MaxIter 10
| 10> end
| 11> % maxcore 2000
| 12> % output
| 13>     printlevel mini
| 14>     print[ P_Basis ] 0
| 15>     print[ P_SCFInfo ] 1
| 16>     print[ P_SCFIterInfo ] 1
| 17>     print[ P_OrbEn ] 0
| 18>     print[ P_Cartesian ] 0
| 19> end
| 20> % elprop
| 21>     Dipole false
| 22> end
| 23> *xyz 1 1
| 24>  C        0.9043435286    -0.0407486229     0.3599717479
| 25>  C        2.3359525399     0.0704733936    -0.1049938552
| 26>  C        3.1380887890     1.2162979139     0.5264748862
| 27>  C        4.4762671208     0.5960195141     0.9214558265
| 28>  O        5.2879750460     0.3409119456    -0.2023413535
| 29>  C        4.0561232611    -0.7746066247     1.4045717822
| 30>  N        3.1297885343    -1.1798348492     0.3002289947
| 31>  H        0.3813291032    -0.8762692811    -0.1107769882
| 32>  H        0.3708538767     0.8712698856     0.0862320290
| 33>  H        0.8402812006    -0.1413504728     1.4472121704
| 34>  H        2.3837652721     0.1038798071    -1.1933372985
| 35>  H        2.6231439073     1.5956501797     1.4126589778
| 36>  H        3.2634769106     2.0476734176    -0.1673124178
| 37>  H        5.0000804810     1.1592655335     1.6980849586
| 38>  H        5.6894670323     1.1541096286    -0.5225741042
| 39>  H        4.8752066554    -1.4869875902     1.4850599753
| 40>  H        3.4919841557    -0.7310643524     2.3352423288
| 41>  H        3.7026814905    -1.4805332875    -0.4894483218
| 42>  H        2.5143410950    -1.9502461385     0.5575506618
| 43> *
| 44>
| 45>                          ****END OF INPUT****
 Total Charge           Charge          ....    1
 Multiplicity           Mult            ....    1
 Number of Electrons    NEL             ....   56
FINAL SINGLE POINT ENERGY      -327.244312606705
FINAL SINGLE POINT ENERGY      -327.244314220705
FINAL SINGLE POINT ENERGY      -327.244315929310

CARTESIAN COORDINATES (ANGSTROEM)
---------------------------------
  C     -0.146478    0.882866   -2.284464
  C     -0.027067    0.857417   -0.779795
  C     -1.202679    0.201749   -0.042749
  C     -0.561461   -0.725382    0.987558
  O      0.001112   -0.005957    2.061357
  C      0.630051   -1.263612    0.227270
  N      1.175601    0.003132   -0.354574
  H      0.717132    1.355513   -2.757676
  H     -1.027529    1.464106   -2.560809
  H     -0.277054   -0.122201   -2.695047
  H      0.175671    1.856109   -0.394272
  H     -1.813949   -0.376576   -0.740293
  H     -1.847244    0.946184    0.424254
  H     -1.227518   -1.524955    1.321755
  H     -0.685143    0.298656    2.662347
  H      1.381044   -1.739133    0.855563
  H      0.336855   -1.923748   -0.587971
  H      1.684703    0.489498    0.384646
  H      1.816637   -0.157653   -1.130246

FINAL SINGLE POINT ENERGY      -327.244316449412
                    ***********************HURRAY********************
 Multiplicity           Mult            ....    1
 Number of Electrons    NEL             ....   56
 Basis Dimension        Dim             ....  289
FINAL SINGLE POINT ENERGY      -327.244317177467

VIBRATIONAL FREQUENCIES
-----------------------

   0:         0.00 cm**-1
   1:         0.00 cm**-1
   2:         0.00 cm**-1
   3:         0.00 cm**-1
   4:         0.00 cm**-1
   5:         0.00 cm**-1
   6:        63.08 cm**-1
   7:       177.76 cm**-1
   8:       260.30 cm**-1
   9:       296.92 cm**-1
  10:       316.30 cm**-1
  11:       378.00 cm**-1
  12:       419.89 cm**-1
  13:       450.62 cm**-1
  14:       645.32 cm**-1
  15:       734.50 cm**-1
  16:       772.32 cm**-1
  17:       867.41 cm**-1
  18:       879.68 cm**-1
  19:       911.89 cm**-1
  20:       915.97 cm**-1
  21:       966.49 cm**-1
  22:       991.55 cm**-1
  23:      1004.36 cm**-1
  24:      1057.21 cm**-1
  25:      1089.21 cm**-1
  26:      1106.63 cm**-1
  27:      1151.34 cm**-1
  28:      1200.11 cm**-1
  29:      1234.78 cm**-1
  30:      1243.13 cm**-1
  31:      1276.07 cm**-1
  32:      1310.32 cm**-1
  33:      1331.20 cm**-1
  34:      1364.81 cm**-1
  35:      1378.80 cm**-1
  36:      1385.75 cm**-1
  37:      1404.24 cm**-1
  38:      1421.04 cm**-1
  39:      1434.98 cm**-1
  40:      1476.52 cm**-1
  41:      1484.56 cm**-1
  42:      1489.40 cm**-1
  43:      1494.69 cm**-1
  44:      1624.18 cm**-1
  45:      3053.78 cm**-1
  46:      3083.33 cm**-1
  47:      3098.78 cm**-1
  48:      3119.26 cm**-1
  49:      3120.88 cm**-1
  50:      3137.42 cm**-1
  51:      3147.90 cm**-1
  52:      3149.94 cm**-1
  53:      3188.39 cm**-1
  54:      3460.24 cm**-1
  55:      3527.41 cm**-1
  56:      3859.79 cm**-1

IR SPECTRUM
-----------

 Mode    freq (cm**-1)   T**2         TX         TY         TZ
-------------------------------------------------------------------
   6:        63.08    2.954500  (  0.160531  -1.621750  -0.546496)
   7:       177.76   13.472803  (  1.260397  -0.157208  -3.443761)
   8:       260.30    0.496171  (  0.000754   0.424623   0.562019)
   9:       296.92   87.368813  ( -0.119215  -7.480825   5.602843)
  10:       316.30   48.183238  ( -1.074937   5.347122  -4.293720)
  11:       378.00    6.542645  (  0.496035  -0.365311  -2.482568)
  12:       419.89    8.074168  (  0.156893  -0.437309   2.803268)
  13:       450.62    1.929653  (  0.346032  -0.822688  -1.064471)
  14:       645.32    4.936821  ( -0.997359  -1.919959   0.505820)
  15:       734.50    1.536748  (  0.860274  -0.660483   0.600364)
  16:       772.32    9.441733  ( -1.610053   0.574654  -2.553280)
  17:       867.41    4.123016  ( -0.384063  -0.389062  -1.955542)
  18:       879.68    4.128173  ( -0.970348   1.096228  -1.408859)
  19:       911.89    4.230217  ( -0.969430   0.261805   1.794960)
  20:       915.97    5.108209  (  0.624313  -0.172406  -2.165345)
  21:       966.49   17.713563  ( -1.985147  -2.457948  -2.780512)
  22:       991.55   15.154267  ( -0.110614  -0.036874  -3.891102)
  23:      1004.36   14.944609  ( -1.078444  -1.760688  -3.268263)
  24:      1057.21   12.925038  ( -1.206821   3.307668   0.726606)
  25:      1089.21    1.086730  ( -0.106242  -0.101823   1.032025)
  26:      1106.63   36.574319  (  0.919236   3.124550   5.095735)
  27:      1151.34    8.031702  ( -2.512546   1.074596  -0.751039)
  28:      1200.11   17.176983  ( -2.513899  -2.789669  -1.753579)
  29:      1234.78   14.403864  (  1.417798  -3.480941   0.526081)
  30:      1243.13   21.817513  ( -1.261255  -2.828886  -3.496305)
  31:      1276.07   57.309960  (  4.615790  -1.105344   5.897683)
  32:      1310.32   13.310625  (  0.178551   0.116704   3.642132)
  33:      1331.20    8.146515  ( -0.774239  -0.667224  -2.664936)
  34:      1364.81    3.832013  ( -0.991703  -0.123425  -1.683242)
  35:      1378.80   35.865961  (  2.064474  -3.396075   4.480020)
  36:      1385.75   14.335996  ( -0.206750   3.752384  -0.461375)
  37:      1404.24    4.268378  (  0.203094  -1.513334   1.391744)
  38:      1421.04    9.629795  ( -0.625433  -0.211874  -3.032118)
  39:      1434.98   12.193414  ( -1.732214  -3.031454  -0.055982)
  40:      1476.52   21.468638  (  4.018271  -2.275335  -0.380769)
  41:      1484.56    2.931701  ( -1.697269   0.218860   0.055502)
  42:      1489.40    2.349735  (  0.719590   1.289703  -0.410599)
  43:      1494.69   16.285372  (  0.615961   3.733860   1.401518)
  44:      1624.18   74.793106  (  8.371038   2.059367  -0.691258)
  45:      3053.78    2.846773  (  0.949725  -1.105330  -0.850318)
  46:      3083.33    0.794557  ( -0.738936   0.179211  -0.465203)
  47:      3098.78    7.927058  ( -1.665001  -2.246817  -0.326561)
  48:      3119.26    0.599304  ( -0.006154   0.002038   0.774120)
  49:      3120.88    1.489505  (  0.733327   0.942910   0.250314)
  50:      3137.42    4.982671  (  1.261863   1.750182  -0.572045)
  51:      3147.90    1.032632  (  0.562196   0.121109  -0.837795)
  52:      3149.94    3.192174  (  0.299303   1.333499   1.150813)
  53:      3188.39    0.002842  ( -0.047512   0.014339  -0.019471)
  54:      3460.24   60.011006  ( -7.114842  -2.476702  -1.804434)
  55:      3527.41   78.654344  ( -1.622224   3.159308   8.126593)
  56:      3859.79  103.488929  (  4.629088  -3.230350  -8.463174)

--------------------------
THERMOCHEMISTRY AT 298.15K
--------------------------

Temperature         ... 298.15 K
Pressure            ... 1.00 atm
Total Mass          ... 102.16 AMU

Throughout the following assumptions are being made:
  (1) The electronic state is orbitally nondegenerate
  (2) There are no thermally accessible electronically excited states
  (3) Hindered rotations indicated by low frequency modes) are not
      treated as such but are treated as vibrations and this may
      case some error
  (4) All equations used are the standard statistical mechanics
      equations for an ideal gas
  (5) All vibrations are strinctly harmonic

------------
INNER ENERGY
------------

The inner energy is: U= E(el) + E(ZPE) + E(vib) + E(rot) + E(trans)
    E(el)   - is the total energy from the electronic structure calculation
              = E(kin-el) + E(nuc-el) + E(el-el) + E(nuc-nuc)
    E(ZPE)  - the the zero temperature vibrational energy from the frequency calculation
    E(vib)  - the the finite temperature correction to E(ZPE) due to population
              of excietd vibrational states
    E(rot)  - is the rotational thermal energy
    E(trans)- is the translational thermal energy

Summary of contributions to the inner energy U:
Electronic energy                ...   -327.24431718 Eh
Zero point energy                ...      0.17760244 Eh     111.45 kcal/mol
Thermal vibrational correction   ...      0.00449436 Eh       2.82 kcal/mol
Thermal rotational correction    ...      0.00141627 Eh       0.89 kcal/mol
Thermal translational correction ...      0.00141627 Eh       0.89 kcal/mol
-----------------------------------------------------------------------
Total thermal energy                   -327.05938784 Eh

Summary of corrections to the electronic energy:
(perhaps to be used in another calculation)
Total thermal correction                  0.00732691 Eh       4.60 kcal/mol
Non-thermal (ZPE) correction              0.17760244 Eh     111.45 kcal/mol
-----------------------------------------------------------------------
Total correction                          0.18492934 Eh     116.04 kcal/mol

--------
ENTHALPY
--------

The enthalpy is H = U + kB*T
                kB is Boltzmann's constant
Total free energy                 ...   -327.05938784 Eh
Thermal Enthalpy correction       ...      0.00094421 Eh       0.59 kcal/mol
-----------------------------------------------------------------------
Total Enthalpy                    ...   -327.05844363 Eh

-------
ENTROPY
-------

The entropy contributions are T*S = T*(S(el)+S(vib)+S(rot)+S(trans)
     S(el)   - electronic entropy
     S(vib)  - vibrational entropy
     S(rot)  - rotational entropy
     S(trans)- translational entropy
The entropies will be listed as mutliplied by the temperature to get
units of energy

Electronic entropy                ...      0.00000000 Eh      0.00 kcal/mol
Vibrational entropy               ...      0.00770802 Eh      4.84 kcal/mol
Rotational entropy                ...      0.01192196 Eh      7.48 kcal/mol
Translational entropy             ...      0.01890147 Eh     11.86 kcal/mol
-----------------------------------------------------------------------
Final entropy term                ...      0.03853145 Eh     24.18 kcal/mol

CAUTION: The rotational entropy is not quite correctly treated here
         because it includes a symmetry number that is not yet correctly
         implemented in ORCA!
For a nonlinear molecule the correct rotational entropy is:
    S(rot) = R*(ln(qrot/sn)+1.5)
    R    = 8.31441 J/mol/K = 1.987191683e-3 kcal/mol/K
    qrot = 203901.0993615
    sn is the rotational symmetry number. We have assumed 3 here
       if it is different for your molecule then you should correct
       the printed rotational entropy by manually evaluating the equation
       as given above

For convenience we print out the resulting values for sn=1 - 12:
 sn= 1  qrot/sn=  203901.0994 T*S(rot)=     8.13 kcal/mol T*S(tot)=    24.83 kcal/mol
 sn= 2  qrot/sn=  101950.5497 T*S(rot)=     7.72 kcal/mol T*S(tot)=    24.42 kcal/mol
 sn= 3  qrot/sn=   67967.0331 T*S(rot)=     7.48 kcal/mol T*S(tot)=    24.18 kcal/mol
 sn= 4  qrot/sn=   50975.2748 T*S(rot)=     7.31 kcal/mol T*S(tot)=    24.01 kcal/mol
 sn= 5  qrot/sn=   40780.2199 T*S(rot)=     7.18 kcal/mol T*S(tot)=    23.88 kcal/mol
 sn= 6  qrot/sn=   33983.5166 T*S(rot)=     7.07 kcal/mol T*S(tot)=    23.77 kcal/mol
 sn= 7  qrot/sn=   29128.7285 T*S(rot)=     6.98 kcal/mol T*S(tot)=    23.68 kcal/mol
 sn= 8  qrot/sn=   25487.6374 T*S(rot)=     6.90 kcal/mol T*S(tot)=    23.60 kcal/mol
 sn= 9  qrot/sn=   22655.6777 T*S(rot)=     6.83 kcal/mol T*S(tot)=    23.53 kcal/mol
 sn=10  qrot/sn=   20390.1099 T*S(rot)=     6.77 kcal/mol T*S(tot)=    23.47 kcal/mol
 sn=11  qrot/sn=   18536.4636 T*S(rot)=     6.71 kcal/mol T*S(tot)=    23.41 kcal/mol
 sn=12  qrot/sn=   16991.7583 T*S(rot)=     6.66 kcal/mol T*S(tot)=    23.36 kcal/mol

-------------------
GIBBS FREE ENTHALPY
-------------------

The Gibbs free enthalpy is G = H - T*S

Total enthalpy                    ...   -327.05844363 Eh
Total entropy correction          ...     -0.03853145 Eh    -24.18 kcal/mol
-----------------------------------------------------------------------
Final Gibbs free enthalpy         ...   -327.09697508 Eh

For completeness - the Gibbs free enthalpy minus the electronic energy
G-E(el)                           ...      0.14734210 Eh     92.46 kcal/mol

                             ****ORCA TERMINATED NORMALLY****
TOTAL RUN TIME: 0 days 0 hours 41 minutes 17 seconds 758 msec
