                         Program Version 3.0.3 - RELEASE   -
|  1> ! NORI PBE0 def2-TZVP UseSym TightOPT Freq TightSCF Grid3 FinalGrid5 XYZFile
|  2> % pal
|  3>     nprocs 8
|  4> end
|  5> %method
|  6>     SymThresh 5.0e-2
|  7> end
|  8> % geom
|  9>     MaxIter 10
| 10> end
| 11> % maxcore 2000
| 12> % output
| 13>     printlevel mini
| 14>     print[ P_Basis ] 0
| 15>     print[ P_SCFInfo ] 1
| 16>     print[ P_SCFIterInfo ] 1
| 17>     print[ P_OrbEn ] 0
| 18>     print[ P_Cartesian ] 0
| 19> end
| 20> % elprop
| 21>     Dipole false
| 22> end
| 23> *xyz 1 1
| 24>  C        1.0542350800    -0.1749896553     0.1763804624
| 25>  C        2.5414789498    -0.2103868757     0.0302837114
| 26>  C        3.2506657317    -0.8279246805    -1.1226403386
| 27>  C        2.5066940386    -1.4786752876    -2.2593756513
| 28>  O        2.7374445288    -2.6051368851    -2.5625455605
| 29>  N        3.1792142703     0.6486249090    -0.9996010691
| 30>  C        4.3794764452     1.4569600794    -0.7371936276
| 31>  H        0.7320658970    -1.0878880849     0.6818927505
| 32>  H        0.5323258151    -0.1257088228    -0.7802672563
| 33>  H        0.7494412498     0.6725441020     0.7923832026
| 34>  H        3.1112131806    -0.1926345426     0.9541977241
| 35>  H        4.2424499550    -1.2311628488    -0.9490860957
| 36>  H        1.7398198531    -0.8643470056    -2.7772244191
| 37>  H        2.5164092332     1.0863748460    -1.6365897696
| 38>  H        5.0190706922     0.9193511089    -0.0394791526
| 39>  H        4.0750740580     2.4082395707    -0.3031434719
| 40>  H        4.9095410217     1.6192100728    -1.6748614388
| 41> *
| 42>
| 43>                          ****END OF INPUT****
 Total Charge           Charge          ....    1
 Multiplicity           Mult            ....    1
 Number of Electrons    NEL             ....   54
FINAL SINGLE POINT ENERGY      -325.969606212474
FINAL SINGLE POINT ENERGY      -325.969606454840
FINAL SINGLE POINT ENERGY      -325.969607827373

CARTESIAN COORDINATES (ANGSTROEM)
---------------------------------
  C     -1.691029   -1.037580   -0.882662
  C     -0.814388    0.170831   -0.809119
  C      0.087489    0.478724    0.333546
  C      0.191571   -0.426401    1.533195
  O     -0.005986   -0.000350    2.625652
  N      0.653840   -0.000684   -0.950757
  C      1.482726    0.869733   -1.798128
  H     -2.645924   -0.804526   -0.407372
  H     -1.268647   -1.903076   -0.369915
  H     -1.890750   -1.302884   -1.921753
  H     -1.155572    1.040565   -1.362068
  H      0.301876    1.521394    0.541646
  H      0.445919   -1.490284    1.342558
  H      0.957517   -0.972141   -0.932297
  H      1.076784    1.879231   -1.767203
  H      1.458879    0.492644   -2.819758
  H      2.502958    0.869954   -1.416455

FINAL SINGLE POINT ENERGY      -325.969608206683
                    ***********************HURRAY********************
 Multiplicity           Mult            ....    1
 Number of Electrons    NEL             ....   54
 Basis Dimension        Dim             ....  277
FINAL SINGLE POINT ENERGY      -325.969608529256

VIBRATIONAL FREQUENCIES
-----------------------

   0:         0.00 cm**-1
   1:         0.00 cm**-1
   2:         0.00 cm**-1
   3:         0.00 cm**-1
   4:         0.00 cm**-1
   5:         0.00 cm**-1
   6:        62.07 cm**-1
   7:       176.25 cm**-1
   8:       188.66 cm**-1
   9:       217.65 cm**-1
  10:       223.62 cm**-1
  11:       231.87 cm**-1
  12:       312.31 cm**-1
  13:       435.77 cm**-1
  14:       471.36 cm**-1
  15:       511.35 cm**-1
  16:       784.59 cm**-1
  17:       792.72 cm**-1
  18:       918.50 cm**-1
  19:       967.90 cm**-1
  20:       983.53 cm**-1
  21:      1027.51 cm**-1
  22:      1064.88 cm**-1
  23:      1084.95 cm**-1
  24:      1123.24 cm**-1
  25:      1157.41 cm**-1
  26:      1172.81 cm**-1
  27:      1201.92 cm**-1
  28:      1228.96 cm**-1
  29:      1282.66 cm**-1
  30:      1338.96 cm**-1
  31:      1392.58 cm**-1
  32:      1420.81 cm**-1
  33:      1425.80 cm**-1
  34:      1454.16 cm**-1
  35:      1473.97 cm**-1
  36:      1475.68 cm**-1
  37:      1481.89 cm**-1
  38:      1494.20 cm**-1
  39:      1508.30 cm**-1
  40:      1870.04 cm**-1
  41:      2922.54 cm**-1
  42:      3069.87 cm**-1
  43:      3084.91 cm**-1
  44:      3149.15 cm**-1
  45:      3154.24 cm**-1
  46:      3183.66 cm**-1
  47:      3185.16 cm**-1
  48:      3188.10 cm**-1
  49:      3203.25 cm**-1
  50:      3502.14 cm**-1

IR SPECTRUM
-----------

 Mode    freq (cm**-1)   T**2         TX         TY         TZ
-------------------------------------------------------------------
   6:        62.07    9.060226  ( -2.866662  -0.884183  -0.246359)
   7:       176.25    2.074038  ( -0.175558   1.408590   0.243088)
   8:       188.66    1.003303  ( -0.182189  -0.973806   0.147685)
   9:       217.65    5.815298  (  0.836438  -2.256427   0.155577)
  10:       223.62    0.201624  (  0.342285   0.223551  -0.185714)
  11:       231.87    1.325596  ( -0.734996  -0.206554  -0.861807)
  12:       312.31    1.424567  ( -0.757020  -0.869206  -0.309790)
  13:       435.77    0.110853  (  0.314546  -0.030084  -0.104920)
  14:       471.36    0.747428  (  0.320276   0.366487  -0.714520)
  15:       511.35   12.175723  ( -0.357746   1.876358  -2.920106)
  16:       784.59   10.752710  ( -2.466296   1.717703   1.311331)
  17:       792.72    1.193394  ( -0.339392  -1.031479  -0.119410)
  18:       918.50   37.469362  (  4.184787  -1.939637   4.024268)
  19:       967.90    9.695592  ( -0.001852   0.507039   3.072214)
  20:       983.53   13.961290  (  0.170635  -1.911069   3.206242)
  21:      1027.51   18.305813  (  3.684821   1.490433  -1.583199)
  22:      1064.88   37.077510  (  1.825216   0.000413  -5.809139)
  23:      1084.95   33.857038  ( -4.048657  -2.450774   3.385133)
  24:      1123.24   19.722784  ( -0.414335  -0.931861   4.322354)
  25:      1157.41    6.796305  ( -1.557184  -2.046527  -0.428028)
  26:      1172.81    6.046472  ( -1.309826   1.155344  -1.730898)
  27:      1201.92    3.436130  (  1.038397  -0.678523   1.377486)
  28:      1228.96    4.180631  (  1.126840   1.290842   1.115612)
  29:      1282.66    6.856073  (  2.082269  -0.969277   1.257270)
  30:      1338.96    0.747496  ( -0.120864   0.115557  -0.848254)
  31:      1392.58    6.187685  ( -0.174143   0.297907  -2.463455)
  32:      1420.81    9.322668  ( -0.025253  -1.728822   2.516586)
  33:      1425.80    9.481055  ( -1.910192  -2.231644  -0.923030)
  34:      1454.16    5.259005  (  2.052309  -0.370082  -0.953976)
  35:      1473.97    9.282772  ( -1.737870   0.071113   2.501504)
  36:      1475.68   11.893990  (  2.618913   1.865008   1.247809)
  37:      1481.89   13.502311  (  2.396261   0.423528   2.753338)
  38:      1494.20   35.069502  ( -3.255172   4.940268   0.259060)
  39:      1508.30   25.180924  ( -4.598678   0.250091   1.992622)
  40:      1870.04  160.671727  (  0.957964  -2.532427 -12.383087)
  41:      2922.54   40.031403  ( -1.477798   5.874659   1.826444)
  42:      3069.87    2.261073  ( -1.402730   0.532141  -0.101224)
  43:      3084.91    0.102662  (  0.139765   0.212997  -0.194319)
  44:      3149.15    1.135916  (  0.338533   0.683585  -0.744327)
  45:      3154.24    1.773232  (  1.096317  -0.459335   0.600277)
  46:      3183.66    0.205612  (  0.124327  -0.000728   0.436067)
  47:      3185.16    1.604416  (  1.062508   0.347917   0.595354)
  48:      3188.10    0.222304  ( -0.162297   0.202974  -0.393402)
  49:      3203.25    7.097730  (  0.159144   2.618645   0.463789)
  50:      3502.14   59.106203  (  3.580267  -6.792780  -0.382132)

--------------------------
THERMOCHEMISTRY AT 298.15K
--------------------------

Temperature         ... 298.15 K
Pressure            ... 1.00 atm
Total Mass          ... 100.14 AMU

Throughout the following assumptions are being made:
  (1) The electronic state is orbitally nondegenerate
  (2) There are no thermally accessible electronically excited states
  (3) Hindered rotations indicated by low frequency modes) are not
      treated as such but are treated as vibrations and this may
      case some error
  (4) All equations used are the standard statistical mechanics
      equations for an ideal gas
  (5) All vibrations are strinctly harmonic

------------
INNER ENERGY
------------

The inner energy is: U= E(el) + E(ZPE) + E(vib) + E(rot) + E(trans)
    E(el)   - is the total energy from the electronic structure calculation
              = E(kin-el) + E(nuc-el) + E(el-el) + E(nuc-nuc)
    E(ZPE)  - the the zero temperature vibrational energy from the frequency calculation
    E(vib)  - the the finite temperature correction to E(ZPE) due to population
              of excietd vibrational states
    E(rot)  - is the rotational thermal energy
    E(trans)- is the translational thermal energy

Summary of contributions to the inner energy U:
Electronic energy                ...   -325.96960853 Eh
Zero point energy                ...      0.14945211 Eh      93.78 kcal/mol
Thermal vibrational correction   ...      0.00525311 Eh       3.30 kcal/mol
Thermal rotational correction    ...      0.00141627 Eh       0.89 kcal/mol
Thermal translational correction ...      0.00141627 Eh       0.89 kcal/mol
-----------------------------------------------------------------------
Total thermal energy                   -325.81207077 Eh

Summary of corrections to the electronic energy:
(perhaps to be used in another calculation)
Total thermal correction                  0.00808566 Eh       5.07 kcal/mol
Non-thermal (ZPE) correction              0.14945211 Eh      93.78 kcal/mol
-----------------------------------------------------------------------
Total correction                          0.15753776 Eh      98.86 kcal/mol

--------
ENTHALPY
--------

The enthalpy is H = U + kB*T
                kB is Boltzmann's constant
Total free energy                 ...   -325.81207077 Eh
Thermal Enthalpy correction       ...      0.00094421 Eh       0.59 kcal/mol
-----------------------------------------------------------------------
Total Enthalpy                    ...   -325.81112656 Eh

-------
ENTROPY
-------

The entropy contributions are T*S = T*(S(el)+S(vib)+S(rot)+S(trans)
     S(el)   - electronic entropy
     S(vib)  - vibrational entropy
     S(rot)  - rotational entropy
     S(trans)- translational entropy
The entropies will be listed as mutliplied by the temperature to get
units of energy

Electronic entropy                ...      0.00000000 Eh      0.00 kcal/mol
Vibrational entropy               ...      0.00937454 Eh      5.88 kcal/mol
Rotational entropy                ...      0.01219217 Eh      7.65 kcal/mol
Translational entropy             ...      0.01887324 Eh     11.84 kcal/mol
-----------------------------------------------------------------------
Final entropy term                ...      0.04043995 Eh     25.38 kcal/mol

CAUTION: The rotational entropy is not quite correctly treated here
         because it includes a symmetry number that is not yet correctly
         implemented in ORCA!
For a nonlinear molecule the correct rotational entropy is:
    S(rot) = R*(ln(qrot/sn)+1.5)
    R    = 8.31441 J/mol/K = 1.987191683e-3 kcal/mol/K
    qrot = 271460.2193479
    sn is the rotational symmetry number. We have assumed 3 here
       if it is different for your molecule then you should correct
       the printed rotational entropy by manually evaluating the equation
       as given above

For convenience we print out the resulting values for sn=1 - 12:
 sn= 1  qrot/sn=  271460.2193 T*S(rot)=     8.30 kcal/mol T*S(tot)=    26.03 kcal/mol
 sn= 2  qrot/sn=  135730.1097 T*S(rot)=     7.89 kcal/mol T*S(tot)=    25.62 kcal/mol
 sn= 3  qrot/sn=   90486.7398 T*S(rot)=     7.65 kcal/mol T*S(tot)=    25.38 kcal/mol
 sn= 4  qrot/sn=   67865.0548 T*S(rot)=     7.48 kcal/mol T*S(tot)=    25.21 kcal/mol
 sn= 5  qrot/sn=   54292.0439 T*S(rot)=     7.35 kcal/mol T*S(tot)=    25.07 kcal/mol
 sn= 6  qrot/sn=   45243.3699 T*S(rot)=     7.24 kcal/mol T*S(tot)=    24.97 kcal/mol
 sn= 7  qrot/sn=   38780.0313 T*S(rot)=     7.15 kcal/mol T*S(tot)=    24.87 kcal/mol
 sn= 8  qrot/sn=   33932.5274 T*S(rot)=     7.07 kcal/mol T*S(tot)=    24.80 kcal/mol
 sn= 9  qrot/sn=   30162.2466 T*S(rot)=     7.00 kcal/mol T*S(tot)=    24.73 kcal/mol
 sn=10  qrot/sn=   27146.0219 T*S(rot)=     6.94 kcal/mol T*S(tot)=    24.66 kcal/mol
 sn=11  qrot/sn=   24678.2018 T*S(rot)=     6.88 kcal/mol T*S(tot)=    24.61 kcal/mol
 sn=12  qrot/sn=   22621.6849 T*S(rot)=     6.83 kcal/mol T*S(tot)=    24.56 kcal/mol

-------------------
GIBBS FREE ENTHALPY
-------------------

The Gibbs free enthalpy is G = H - T*S

Total enthalpy                    ...   -325.81112656 Eh
Total entropy correction          ...     -0.04043995 Eh    -25.38 kcal/mol
-----------------------------------------------------------------------
Final Gibbs free enthalpy         ...   -325.85156650 Eh

For completeness - the Gibbs free enthalpy minus the electronic energy
G-E(el)                           ...      0.11804203 Eh     74.07 kcal/mol

                             ****ORCA TERMINATED NORMALLY****
TOTAL RUN TIME: 0 days 0 hours 31 minutes 15 seconds 136 msec
