                         Program Version 3.0.3 - RELEASE   -
|  1> ! NORI PBE0 def2-TZVP UseSym TightOPT Freq TightSCF Grid3 FinalGrid5 XYZFile
|  2> % pal
|  3>     nprocs 8
|  4> end
|  5> %method
|  6>     SymThresh 5.0e-2
|  7> end
|  8> % geom
|  9>     MaxIter 10
| 10> end
| 11> % maxcore 2000
| 12> % output
| 13>     printlevel mini
| 14>     print[ P_Basis ] 0
| 15>     print[ P_SCFInfo ] 1
| 16>     print[ P_SCFIterInfo ] 1
| 17>     print[ P_OrbEn ] 0
| 18>     print[ P_Cartesian ] 0
| 19> end
| 20> % elprop
| 21>     Dipole false
| 22> end
| 23> *xyz 1 1
| 24>  C        0.8250016186     0.0706622371    -0.1451309136
| 25>  C        2.3007787771    -0.1308594482    -0.0193846923
| 26>  C        3.1333704584    -0.9698779440    -0.9132515856
| 27>  C        2.6405808341    -1.6951787286    -2.1298006525
| 28>  O        3.5543335232    -1.3783223997    -3.1477100337
| 29>  N        3.1943312180     0.5086652873    -1.0250575075
| 30>  C        4.3994374044     1.2627741068    -0.6663082477
| 31>  H        0.5359502867     1.0345466925     0.2766206031
| 32>  H        0.3108853736    -0.7078074524     0.4216060805
| 33>  H        0.4753056777     0.0220970290    -1.1765628760
| 34>  H        2.7014762575    -0.0009226441     0.9810695753
| 35>  H        4.0521987625    -1.3649203568    -0.4928266436
| 36>  H        2.6180474817    -2.7660458256    -1.8952301400
| 37>  H        1.6193492264    -1.3909053205    -2.3894647080
| 38>  H        3.3908280090    -1.9257950535    -3.9213545330
| 39>  H        2.7172276294     0.8613784516    -1.8503853650
| 40>  H        4.8539489490     0.8060088561     0.2109276973
| 41>  H        4.1245236017     2.2928216137    -0.4430440785
| 42>  H        5.0965349109     1.2265908992    -1.5029319793
| 43> *
| 44>
| 45>                          ****END OF INPUT****
 Total Charge           Charge          ....    1
 Multiplicity           Mult            ....    1
 Number of Electrons    NEL             ....   56
FINAL SINGLE POINT ENERGY      -327.200409472649
FINAL SINGLE POINT ENERGY      -327.200411651133
FINAL SINGLE POINT ENERGY      -327.200412809880

CARTESIAN COORDINATES (ANGSTROEM)
---------------------------------
  C     -1.057378   -1.253710   -1.677454
  C     -0.432482    0.038538   -1.260362
  C     -0.433102    0.588680    0.115365
  C     -0.999014   -0.099306    1.322053
  O     -0.002212   -0.005910    2.306499
  N      0.810344   -0.000167   -0.440525
  C      1.990842    0.819898   -0.733244
  H     -0.549057   -1.656412   -2.554872
  H     -2.098188   -1.070457   -1.951686
  H     -1.045419   -2.007411   -0.889796
  H     -0.345338    0.783614   -2.044970
  H     -0.343290    1.665915    0.209217
  H     -1.922743    0.421421    1.600235
  H     -1.258917   -1.141862    1.101977
  H     -0.351011   -0.285129    3.158215
  H      1.027680   -0.910280   -0.043751
  H      1.663621    1.776802   -1.136288
  H      2.611319    0.305137   -1.465799
  H      2.543813    0.979475    0.191345

FINAL SINGLE POINT ENERGY      -327.200413139954
                    ***********************HURRAY********************
 Multiplicity           Mult            ....    1
 Number of Electrons    NEL             ....   56
 Basis Dimension        Dim             ....  289
FINAL SINGLE POINT ENERGY      -327.200413421813

VIBRATIONAL FREQUENCIES
-----------------------

   0:         0.00 cm**-1
   1:         0.00 cm**-1
   2:         0.00 cm**-1
   3:         0.00 cm**-1
   4:         0.00 cm**-1
   5:         0.00 cm**-1
   6:        45.62 cm**-1
   7:       138.59 cm**-1
   8:       181.71 cm**-1
   9:       197.20 cm**-1
  10:       235.96 cm**-1
  11:       269.93 cm**-1
  12:       302.86 cm**-1
  13:       308.95 cm**-1
  14:       416.80 cm**-1
  15:       479.08 cm**-1
  16:       556.94 cm**-1
  17:       779.47 cm**-1
  18:       836.33 cm**-1
  19:       840.21 cm**-1
  20:       953.40 cm**-1
  21:      1005.68 cm**-1
  22:      1017.33 cm**-1
  23:      1066.03 cm**-1
  24:      1097.71 cm**-1
  25:      1117.60 cm**-1
  26:      1134.61 cm**-1
  27:      1161.26 cm**-1
  28:      1180.73 cm**-1
  29:      1216.34 cm**-1
  30:      1230.64 cm**-1
  31:      1236.44 cm**-1
  32:      1287.22 cm**-1
  33:      1303.89 cm**-1
  34:      1384.39 cm**-1
  35:      1402.67 cm**-1
  36:      1427.89 cm**-1
  37:      1452.53 cm**-1
  38:      1463.62 cm**-1
  39:      1479.04 cm**-1
  40:      1482.60 cm**-1
  41:      1483.45 cm**-1
  42:      1496.52 cm**-1
  43:      1515.69 cm**-1
  44:      1524.83 cm**-1
  45:      3032.09 cm**-1
  46:      3070.59 cm**-1
  47:      3074.92 cm**-1
  48:      3084.25 cm**-1
  49:      3149.00 cm**-1
  50:      3155.73 cm**-1
  51:      3182.40 cm**-1
  52:      3183.14 cm**-1
  53:      3185.45 cm**-1
  54:      3192.81 cm**-1
  55:      3529.54 cm**-1
  56:      3860.24 cm**-1

IR SPECTRUM
-----------

 Mode    freq (cm**-1)   T**2         TX         TY         TZ
-------------------------------------------------------------------
   6:        45.62    6.105655  ( -0.407955   1.866505   1.566968)
   7:       138.59    4.105963  ( -0.511199  -0.501534   1.895548)
   8:       181.71    0.118294  (  0.051422   0.339475  -0.020172)
   9:       197.20    0.962514  (  0.273722  -0.192160  -0.922315)
  10:       235.96    0.057739  (  0.206830   0.020343   0.120611)
  11:       269.93   35.491317  (  1.662437  -5.660471  -0.828667)
  12:       302.86   68.892983  ( -2.539056   7.794162   1.302775)
  13:       308.95   33.721221  ( -1.226941   4.622514   3.293661)
  14:       416.80    4.331421  ( -0.579947   1.421197  -1.405447)
  15:       479.08    3.575553  ( -1.215130   0.137428  -1.442264)
  16:       556.94    1.166774  ( -0.147720  -0.336448  -1.015754)
  17:       779.47    4.785579  (  0.078519   1.250970   1.792899)
  18:       836.33   29.191513  ( -4.532906   1.100381  -2.726434)
  19:       840.21    1.803633  ( -0.778349   0.517816   0.964195)
  20:       953.40   27.360327  ( -1.325237  -0.760687  -5.002542)
  21:      1005.68   22.190364  (  0.079001  -1.911412  -4.304721)
  22:      1017.33    8.158966  ( -0.452224  -0.534708  -2.769214)
  23:      1066.03   14.285899  ( -3.093809   1.298695   1.740010)
  24:      1097.71   12.576250  (  3.368051   1.105087  -0.106135)
  25:      1117.60   64.438174  ( -5.852298  -0.180599  -5.491463)
  26:      1134.61   26.362870  (  4.106011   0.864413  -2.959111)
  27:      1161.26   12.768666  (  1.656246   1.609374   2.726798)
  28:      1180.73    1.871007  (  0.800376  -0.783338  -0.785358)
  29:      1216.34    1.579044  (  1.145168  -0.186974  -0.482364)
  30:      1230.64    2.380785  ( -0.152690  -1.533069   0.084671)
  31:      1236.44   51.042937  (  5.370309   0.983208   4.608256)
  32:      1287.22    7.804346  ( -2.340275  -0.148607  -1.518345)
  33:      1303.89    4.970864  (  1.018277  -1.471283   1.330151)
  34:      1384.39    3.598450  (  1.694332   0.675487  -0.520968)
  35:      1402.67    4.671965  (  0.801860   0.615957  -1.910388)
  36:      1427.89    8.853176  (  0.493895   2.338667   1.771971)
  37:      1452.53    8.956968  ( -2.976055  -0.239250   0.206942)
  38:      1463.62   11.693732  (  2.750453   2.004657  -0.331801)
  39:      1479.04   11.854414  ( -1.707466   1.099124   2.780449)
  40:      1482.60    3.828679  ( -1.033918   0.679241   1.516023)
  41:      1483.45   12.027961  (  1.760116   0.633175   2.920453)
  42:      1496.52   31.457704  (  3.432793  -4.155450   1.551087)
  43:      1515.69   14.661617  (  1.983588   2.779511  -1.732431)
  44:      1524.83   22.189720  ( -4.523651   0.109300  -1.309334)
  45:      3032.09   25.165333  (  3.442266   2.471545   2.684698)
  46:      3070.59    1.435988  ( -0.395272   0.800182   0.799661)
  47:      3074.92    9.260893  (  0.936511  -2.857268  -0.468891)
  48:      3084.25    0.863068  ( -0.656660  -0.377736   0.537756)
  49:      3149.00    0.464755  ( -0.211684  -0.566753  -0.314224)
  50:      3155.73    2.948040  (  0.019347   0.737159  -1.550568)
  51:      3182.40    0.216185  (  0.392386   0.010130   0.249229)
  52:      3183.14    0.559358  ( -0.448488  -0.535128  -0.268059)
  53:      3185.45    0.397011  (  0.331452  -0.209183  -0.493349)
  54:      3192.81    0.282642  ( -0.330421   0.391430   0.142292)
  55:      3529.54   67.486856  (  3.576451  -6.728851   3.068944)
  56:      3860.24  111.529548  (  1.260365   2.091750 -10.274513)

--------------------------
THERMOCHEMISTRY AT 298.15K
--------------------------

Temperature         ... 298.15 K
Pressure            ... 1.00 atm
Total Mass          ... 102.16 AMU

Throughout the following assumptions are being made:
  (1) The electronic state is orbitally nondegenerate
  (2) There are no thermally accessible electronically excited states
  (3) Hindered rotations indicated by low frequency modes) are not
      treated as such but are treated as vibrations and this may
      case some error
  (4) All equations used are the standard statistical mechanics
      equations for an ideal gas
  (5) All vibrations are strinctly harmonic

------------
INNER ENERGY
------------

The inner energy is: U= E(el) + E(ZPE) + E(vib) + E(rot) + E(trans)
    E(el)   - is the total energy from the electronic structure calculation
              = E(kin-el) + E(nuc-el) + E(el-el) + E(nuc-nuc)
    E(ZPE)  - the the zero temperature vibrational energy from the frequency calculation
    E(vib)  - the the finite temperature correction to E(ZPE) due to population
              of excietd vibrational states
    E(rot)  - is the rotational thermal energy
    E(trans)- is the translational thermal energy

Summary of contributions to the inner energy U:
Electronic energy                ...   -327.20041342 Eh
Zero point energy                ...      0.17407910 Eh     109.24 kcal/mol
Thermal vibrational correction   ...      0.00577575 Eh       3.62 kcal/mol
Thermal rotational correction    ...      0.00141627 Eh       0.89 kcal/mol
Thermal translational correction ...      0.00141627 Eh       0.89 kcal/mol
-----------------------------------------------------------------------
Total thermal energy                   -327.01772603 Eh

Summary of corrections to the electronic energy:
(perhaps to be used in another calculation)
Total thermal correction                  0.00860830 Eh       5.40 kcal/mol
Non-thermal (ZPE) correction              0.17407910 Eh     109.24 kcal/mol
-----------------------------------------------------------------------
Total correction                          0.18268740 Eh     114.64 kcal/mol

--------
ENTHALPY
--------

The enthalpy is H = U + kB*T
                kB is Boltzmann's constant
Total free energy                 ...   -327.01772603 Eh
Thermal Enthalpy correction       ...      0.00094421 Eh       0.59 kcal/mol
-----------------------------------------------------------------------
Total Enthalpy                    ...   -327.01678182 Eh

-------
ENTROPY
-------

The entropy contributions are T*S = T*(S(el)+S(vib)+S(rot)+S(trans)
     S(el)   - electronic entropy
     S(vib)  - vibrational entropy
     S(rot)  - rotational entropy
     S(trans)- translational entropy
The entropies will be listed as mutliplied by the temperature to get
units of energy

Electronic entropy                ...      0.00000000 Eh      0.00 kcal/mol
Vibrational entropy               ...      0.01053310 Eh      6.61 kcal/mol
Rotational entropy                ...      0.01219140 Eh      7.65 kcal/mol
Translational entropy             ...      0.01890147 Eh     11.86 kcal/mol
-----------------------------------------------------------------------
Final entropy term                ...      0.04162596 Eh     26.12 kcal/mol

CAUTION: The rotational entropy is not quite correctly treated here
         because it includes a symmetry number that is not yet correctly
         implemented in ORCA!
For a nonlinear molecule the correct rotational entropy is:
    S(rot) = R*(ln(qrot/sn)+1.5)
    R    = 8.31441 J/mol/K = 1.987191683e-3 kcal/mol/K
    qrot = 271237.6997867
    sn is the rotational symmetry number. We have assumed 3 here
       if it is different for your molecule then you should correct
       the printed rotational entropy by manually evaluating the equation
       as given above

For convenience we print out the resulting values for sn=1 - 12:
 sn= 1  qrot/sn=  271237.6998 T*S(rot)=     8.30 kcal/mol T*S(tot)=    26.77 kcal/mol
 sn= 2  qrot/sn=  135618.8499 T*S(rot)=     7.89 kcal/mol T*S(tot)=    26.36 kcal/mol
 sn= 3  qrot/sn=   90412.5666 T*S(rot)=     7.65 kcal/mol T*S(tot)=    26.12 kcal/mol
 sn= 4  qrot/sn=   67809.4249 T*S(rot)=     7.48 kcal/mol T*S(tot)=    25.95 kcal/mol
 sn= 5  qrot/sn=   54247.5400 T*S(rot)=     7.35 kcal/mol T*S(tot)=    25.82 kcal/mol
 sn= 6  qrot/sn=   45206.2833 T*S(rot)=     7.24 kcal/mol T*S(tot)=    25.71 kcal/mol
 sn= 7  qrot/sn=   38748.2428 T*S(rot)=     7.15 kcal/mol T*S(tot)=    25.62 kcal/mol
 sn= 8  qrot/sn=   33904.7125 T*S(rot)=     7.07 kcal/mol T*S(tot)=    25.54 kcal/mol
 sn= 9  qrot/sn=   30137.5222 T*S(rot)=     7.00 kcal/mol T*S(tot)=    25.47 kcal/mol
 sn=10  qrot/sn=   27123.7700 T*S(rot)=     6.94 kcal/mol T*S(tot)=    25.41 kcal/mol
 sn=11  qrot/sn=   24657.9727 T*S(rot)=     6.88 kcal/mol T*S(tot)=    25.35 kcal/mol
 sn=12  qrot/sn=   22603.1416 T*S(rot)=     6.83 kcal/mol T*S(tot)=    25.30 kcal/mol

-------------------
GIBBS FREE ENTHALPY
-------------------

The Gibbs free enthalpy is G = H - T*S

Total enthalpy                    ...   -327.01678182 Eh
Total entropy correction          ...     -0.04162596 Eh    -26.12 kcal/mol
-----------------------------------------------------------------------
Final Gibbs free enthalpy         ...   -327.05840778 Eh

For completeness - the Gibbs free enthalpy minus the electronic energy
G-E(el)                           ...      0.14200564 Eh     89.11 kcal/mol

                             ****ORCA TERMINATED NORMALLY****
TOTAL RUN TIME: 0 days 0 hours 36 minutes 5 seconds 407 msec
