                         Program Version 3.0.3 - RELEASE   -
|  1> ! NORI PBE0 def2-TZVP UseSym TightOPT Freq TightSCF Grid3 FinalGrid5 XYZFile
|  2> % pal
|  3>     nprocs 8
|  4> end
|  5> %method
|  6>     SymThresh 5.0e-2
|  7> end
|  8> % geom
|  9>     MaxIter 10
| 10> end
| 11> % maxcore 2000
| 12> % output
| 13>     printlevel mini
| 14>     print[ P_Basis ] 0
| 15>     print[ P_SCFInfo ] 1
| 16>     print[ P_SCFIterInfo ] 1
| 17>     print[ P_OrbEn ] 0
| 18>     print[ P_Cartesian ] 0
| 19> end
| 20> % elprop
| 21>     Dipole false
| 22> end
| 23> *xyz 1 1
| 24>  C        0.8327457333     0.6287895406    -0.7360927997
| 25>  C        2.0338352871    -0.0089490007    -0.1225461208
| 26>  C        2.7051286079    -1.1766722801    -0.7196799251
| 27>  N        3.3366887043     0.1569965404    -0.8301136731
| 28>  C        4.5804615993     0.4918312520    -0.1112037731
| 29>  C        4.7113687598     1.9839973236     0.0719861960
| 30>  O        3.5838509468     2.4170436207     0.7889507925
| 31>  H       -0.0643697123     0.1788002660    -0.3077343682
| 32>  H        0.7951604320     0.4767555076    -1.8179538719
| 33>  H        0.8143599561     1.6973098253    -0.5173563786
| 34>  H        2.1621942461     0.1329314728     0.9440328497
| 35>  H        3.2526091547    -1.8676735850    -0.0910547053
| 36>  H        2.3392798823    -1.5772502597    -1.6569993650
| 37>  H        3.2570990173     0.5917523177    -1.7446281743
| 38>  H        5.4197118228     0.0888402205    -0.6811755801
| 39>  H        4.5342021957    -0.0115161449     0.8554733543
| 40>  H        4.7887899119     2.4828599225    -0.9045307526
| 41>  H        5.6487201838     2.1670801242     0.6099990994
| 42>  H        3.6979132713     3.3329133365     1.0572971959
| 43> *
| 44>
| 45>                          ****END OF INPUT****
 Total Charge           Charge          ....    1
 Multiplicity           Mult            ....    1
 Number of Electrons    NEL             ....   56
FINAL SINGLE POINT ENERGY      -327.202236002106
FINAL SINGLE POINT ENERGY      -327.202237231174

CARTESIAN COORDINATES (ANGSTROEM)
---------------------------------
  C     -1.589863    1.524351   -0.826190
  C     -1.031680    0.141312   -0.791420
  C     -0.282840   -0.442022   -1.918077
  N      0.451189    0.000440   -0.711349
  C      1.096912   -0.960474    0.202696
  C      1.274856   -0.360558    1.575993
  O      0.000461    0.004558    2.040281
  H     -2.616969    1.482415   -1.193666
  H     -1.025185    2.177500   -1.495733
  H     -1.605032    1.954940    0.175691
  H     -1.514318   -0.555833   -0.116485
  H     -0.273258   -1.514615   -2.064848
  H     -0.096946    0.158366   -2.800235
  H      0.955291    0.876041   -0.816306
  H      2.057055   -1.247447   -0.230393
  H      0.451077   -1.839026    0.247965
  H      1.953587    0.503404    1.529112
  H      1.752449   -1.119697    2.206280
  H      0.048877    0.255282    2.966976

FINAL SINGLE POINT ENERGY      -327.202237747568
                    ***********************HURRAY********************
 Multiplicity           Mult            ....    1
 Number of Electrons    NEL             ....   56
 Basis Dimension        Dim             ....  289
FINAL SINGLE POINT ENERGY      -327.202237943590

VIBRATIONAL FREQUENCIES
-----------------------

   0:         0.00 cm**-1
   1:         0.00 cm**-1
   2:         0.00 cm**-1
   3:         0.00 cm**-1
   4:         0.00 cm**-1
   5:         0.00 cm**-1
   6:        69.71 cm**-1
   7:       108.07 cm**-1
   8:       183.89 cm**-1
   9:       217.39 cm**-1
  10:       291.22 cm**-1
  11:       294.11 cm**-1
  12:       325.28 cm**-1
  13:       397.81 cm**-1
  14:       419.50 cm**-1
  15:       526.62 cm**-1
  16:       767.14 cm**-1
  17:       812.22 cm**-1
  18:       864.60 cm**-1
  19:       900.91 cm**-1
  20:       923.07 cm**-1
  21:       952.75 cm**-1
  22:      1002.61 cm**-1
  23:      1060.12 cm**-1
  24:      1083.20 cm**-1
  25:      1115.48 cm**-1
  26:      1138.38 cm**-1
  27:      1151.83 cm**-1
  28:      1170.01 cm**-1
  29:      1191.75 cm**-1
  30:      1224.77 cm**-1
  31:      1233.22 cm**-1
  32:      1267.26 cm**-1
  33:      1294.53 cm**-1
  34:      1334.08 cm**-1
  35:      1382.29 cm**-1
  36:      1401.13 cm**-1
  37:      1426.47 cm**-1
  38:      1458.66 cm**-1
  39:      1468.81 cm**-1
  40:      1474.50 cm**-1
  41:      1478.86 cm**-1
  42:      1489.92 cm**-1
  43:      1510.34 cm**-1
  44:      1519.35 cm**-1
  45:      3008.12 cm**-1
  46:      3062.97 cm**-1
  47:      3067.17 cm**-1
  48:      3093.71 cm**-1
  49:      3141.59 cm**-1
  50:      3151.97 cm**-1
  51:      3156.57 cm**-1
  52:      3166.78 cm**-1
  53:      3208.19 cm**-1
  54:      3267.23 cm**-1
  55:      3533.12 cm**-1
  56:      3866.51 cm**-1

IR SPECTRUM
-----------

 Mode    freq (cm**-1)   T**2         TX         TY         TZ
-------------------------------------------------------------------
   6:        69.71    1.392547  (  0.298560   1.030268  -0.491891)
   7:       108.07    3.484976  ( -0.161825   0.984727  -1.577689)
   8:       183.89    3.265394  (  0.589109   1.280800  -1.130441)
   9:       217.39    0.369960  ( -0.456418   0.144192   0.375302)
  10:       291.22   52.672675  (  0.387956   7.240325  -0.316001)
  11:       294.11   53.546504  (  2.260311   6.166423  -3.226875)
  12:       325.28   34.053990  (  0.766645   5.002455  -2.905459)
  13:       397.81    0.331744  (  0.544676   0.015879  -0.186602)
  14:       419.50    0.866882  (  0.361067   0.636008   0.576200)
  15:       526.62    9.286088  ( -2.540722   0.707784   1.526389)
  16:       767.14    3.173818  ( -1.547325   0.874300  -0.123304)
  17:       812.22    4.896248  (  1.817817   1.237066  -0.247905)
  18:       864.60   11.432857  (  2.127468   0.552022   2.569437)
  19:       900.91    8.461366  (  2.217955  -0.332982   1.852340)
  20:       923.07    5.572285  (  1.874453  -0.590802  -1.307542)
  21:       952.75   13.494501  (  2.473803  -0.776217  -2.602362)
  22:      1002.61   38.050242  ( -4.628214   2.472807   3.242700)
  23:      1060.12   15.493266  (  2.639023   0.607164   2.856602)
  24:      1083.20   37.449893  ( -5.621691   1.492564  -1.902298)
  25:      1115.48   25.522962  ( -1.668583  -0.139665  -4.766475)
  26:      1138.38   36.755832  ( -5.415122   1.382473   2.349692)
  27:      1151.83    9.915511  (  2.476732  -1.933699   0.205232)
  28:      1170.01    8.875645  ( -2.587444   0.431293   1.412361)
  29:      1191.75    1.965730  (  1.213239  -0.655147   0.254091)
  30:      1224.77    4.076000  (  1.059531   0.040770   1.718061)
  31:      1233.22   40.221646  ( -5.921023   1.017409   2.031751)
  32:      1267.26    3.265982  (  0.701546  -0.534299   1.577447)
  33:      1294.53    6.434554  ( -1.571354   1.945488   0.424825)
  34:      1334.08   26.662615  ( -4.871771  -0.722193   1.551420)
  35:      1382.29    0.249559  (  0.417852  -0.215340   0.169081)
  36:      1401.13    3.796898  ( -0.652145   1.509618  -1.045303)
  37:      1426.47    6.615434  ( -0.018003  -2.392796  -0.943206)
  38:      1458.66   28.209378  ( -3.355916   0.776570  -4.042789)
  39:      1468.81   11.629218  ( -2.242292   1.195330  -2.274320)
  40:      1474.50    4.575776  (  0.925786  -1.429010  -1.294846)
  41:      1478.86   21.233807  ( -2.236379  -2.378001  -3.252311)
  42:      1489.92   21.564245  ( -4.028369  -0.801756   2.166489)
  43:      1510.34    6.491800  ( -1.661717   1.529633  -1.179287)
  44:      1519.35   20.523533  ( -2.675840   3.644348   0.286597)
  45:      3008.12   29.052018  ( -4.932201  -2.017853   0.808503)
  46:      3062.97    2.060004  ( -1.026519  -0.792036   0.615582)
  47:      3067.17    9.432994  ( -1.066363   2.688200  -1.034139)
  48:      3093.71    2.174648  (  0.407992  -1.416185  -0.051101)
  49:      3141.59    2.280235  ( -0.800542  -0.741893   1.043534)
  50:      3151.97    1.288470  (  1.001488   0.191150   0.498953)
  51:      3156.57    0.833082  ( -0.669469   0.256039   0.565099)
  52:      3166.78    1.169092  (  0.003478   0.447095   0.984473)
  53:      3208.19    2.021952  (  1.073530  -0.002580  -0.932458)
  54:      3267.23    3.075704  ( -0.268672  -1.591683   0.685612)
  55:      3533.12   58.948913  (  4.800841   5.986594  -0.248070)
  56:      3866.51  103.280085  (  1.711637  -2.688546  -9.649980)

--------------------------
THERMOCHEMISTRY AT 298.15K
--------------------------

Temperature         ... 298.15 K
Pressure            ... 1.00 atm
Total Mass          ... 102.16 AMU

Throughout the following assumptions are being made:
  (1) The electronic state is orbitally nondegenerate
  (2) There are no thermally accessible electronically excited states
  (3) Hindered rotations indicated by low frequency modes) are not
      treated as such but are treated as vibrations and this may
      case some error
  (4) All equations used are the standard statistical mechanics
      equations for an ideal gas
  (5) All vibrations are strinctly harmonic

------------
INNER ENERGY
------------

The inner energy is: U= E(el) + E(ZPE) + E(vib) + E(rot) + E(trans)
    E(el)   - is the total energy from the electronic structure calculation
              = E(kin-el) + E(nuc-el) + E(el-el) + E(nuc-nuc)
    E(ZPE)  - the the zero temperature vibrational energy from the frequency calculation
    E(vib)  - the the finite temperature correction to E(ZPE) due to population
              of excietd vibrational states
    E(rot)  - is the rotational thermal energy
    E(trans)- is the translational thermal energy

Summary of contributions to the inner energy U:
Electronic energy                ...   -327.20223794 Eh
Zero point energy                ...      0.17463472 Eh     109.58 kcal/mol
Thermal vibrational correction   ...      0.00537874 Eh       3.38 kcal/mol
Thermal rotational correction    ...      0.00141627 Eh       0.89 kcal/mol
Thermal translational correction ...      0.00141627 Eh       0.89 kcal/mol
-----------------------------------------------------------------------
Total thermal energy                   -327.01939194 Eh

Summary of corrections to the electronic energy:
(perhaps to be used in another calculation)
Total thermal correction                  0.00821129 Eh       5.15 kcal/mol
Non-thermal (ZPE) correction              0.17463472 Eh     109.58 kcal/mol
-----------------------------------------------------------------------
Total correction                          0.18284601 Eh     114.74 kcal/mol

--------
ENTHALPY
--------

The enthalpy is H = U + kB*T
                kB is Boltzmann's constant
Total free energy                 ...   -327.01939194 Eh
Thermal Enthalpy correction       ...      0.00094421 Eh       0.59 kcal/mol
-----------------------------------------------------------------------
Total Enthalpy                    ...   -327.01844773 Eh

-------
ENTROPY
-------

The entropy contributions are T*S = T*(S(el)+S(vib)+S(rot)+S(trans)
     S(el)   - electronic entropy
     S(vib)  - vibrational entropy
     S(rot)  - rotational entropy
     S(trans)- translational entropy
The entropies will be listed as mutliplied by the temperature to get
units of energy

Electronic entropy                ...      0.00000000 Eh      0.00 kcal/mol
Vibrational entropy               ...      0.00957383 Eh      6.01 kcal/mol
Rotational entropy                ...      0.01213958 Eh      7.62 kcal/mol
Translational entropy             ...      0.01890147 Eh     11.86 kcal/mol
-----------------------------------------------------------------------
Final entropy term                ...      0.04061488 Eh     25.49 kcal/mol

CAUTION: The rotational entropy is not quite correctly treated here
         because it includes a symmetry number that is not yet correctly
         implemented in ORCA!
For a nonlinear molecule the correct rotational entropy is:
    S(rot) = R*(ln(qrot/sn)+1.5)
    R    = 8.31441 J/mol/K = 1.987191683e-3 kcal/mol/K
    qrot = 256754.3933914
    sn is the rotational symmetry number. We have assumed 3 here
       if it is different for your molecule then you should correct
       the printed rotational entropy by manually evaluating the equation
       as given above

For convenience we print out the resulting values for sn=1 - 12:
 sn= 1  qrot/sn=  256754.3934 T*S(rot)=     8.27 kcal/mol T*S(tot)=    26.14 kcal/mol
 sn= 2  qrot/sn=  128377.1967 T*S(rot)=     7.86 kcal/mol T*S(tot)=    25.73 kcal/mol
 sn= 3  qrot/sn=   85584.7978 T*S(rot)=     7.62 kcal/mol T*S(tot)=    25.49 kcal/mol
 sn= 4  qrot/sn=   64188.5983 T*S(rot)=     7.45 kcal/mol T*S(tot)=    25.32 kcal/mol
 sn= 5  qrot/sn=   51350.8787 T*S(rot)=     7.32 kcal/mol T*S(tot)=    25.18 kcal/mol
 sn= 6  qrot/sn=   42792.3989 T*S(rot)=     7.21 kcal/mol T*S(tot)=    25.08 kcal/mol
 sn= 7  qrot/sn=   36679.1991 T*S(rot)=     7.12 kcal/mol T*S(tot)=    24.98 kcal/mol
 sn= 8  qrot/sn=   32094.2992 T*S(rot)=     7.04 kcal/mol T*S(tot)=    24.91 kcal/mol
 sn= 9  qrot/sn=   28528.2659 T*S(rot)=     6.97 kcal/mol T*S(tot)=    24.84 kcal/mol
 sn=10  qrot/sn=   25675.4393 T*S(rot)=     6.90 kcal/mol T*S(tot)=    24.77 kcal/mol
 sn=11  qrot/sn=   23341.3085 T*S(rot)=     6.85 kcal/mol T*S(tot)=    24.72 kcal/mol
 sn=12  qrot/sn=   21396.1994 T*S(rot)=     6.80 kcal/mol T*S(tot)=    24.66 kcal/mol

-------------------
GIBBS FREE ENTHALPY
-------------------

The Gibbs free enthalpy is G = H - T*S

Total enthalpy                    ...   -327.01844773 Eh
Total entropy correction          ...     -0.04061488 Eh    -25.49 kcal/mol
-----------------------------------------------------------------------
Final Gibbs free enthalpy         ...   -327.05906261 Eh

For completeness - the Gibbs free enthalpy minus the electronic energy
G-E(el)                           ...      0.14317534 Eh     89.84 kcal/mol

                             ****ORCA TERMINATED NORMALLY****
TOTAL RUN TIME: 0 days 0 hours 34 minutes 42 seconds 912 msec
