                         Program Version 3.0.3 - RELEASE   -
|  1> ! NORI PBE0 def2-TZVP UseSym TightOPT Freq TightSCF Grid3 FinalGrid5 XYZFile
|  2> % pal
|  3>     nprocs 8
|  4> end
|  5> %method
|  6>     SymThresh 5.0e-2
|  7> end
|  8> % geom
|  9>     MaxIter 10
| 10> end
| 11> % maxcore 2000
| 12> % output
| 13>     printlevel mini
| 14>     print[ P_Basis ] 0
| 15>     print[ P_SCFInfo ] 1
| 16>     print[ P_SCFIterInfo ] 1
| 17>     print[ P_OrbEn ] 0
| 18>     print[ P_Cartesian ] 0
| 19> end
| 20> % elprop
| 21>     Dipole false
| 22> end
| 23> *xyz 1 1
| 24>  C        0.8320078249     0.3845896959    -0.6529954920
| 25>  C        2.1245788301    -0.0786317507    -0.0666490254
| 26>  C        2.8668686287    -1.2322344599    -0.6023740133
| 27>  N        3.3712004099     0.1360757152    -0.8684963004
| 28>  C        4.6184249980     0.6245039885    -0.2623932994
| 29>  C        4.6668782482     2.1460719005    -0.1913561583
| 30>  O        5.3751120070     2.7000471720     0.5863519311
| 31>  H        0.6994286857     1.4594515562    -0.5202819455
| 32>  H        0.0142955967    -0.1190243022    -0.1343804206
| 33>  H        0.7517591773     0.1374772244    -1.7143697959
| 34>  H        2.2980602410     0.1580485615     0.9783199273
| 35>  H        3.5085254616    -1.8137313131     0.0477525859
| 36>  H        2.4859157130    -1.7453451984    -1.4770984607
| 37>  H        3.2043472773     0.4673213451    -1.8147414679
| 38>  H        5.4591073259     0.2659981693    -0.8645658560
| 39>  H        4.7149775631     0.2095446996     0.7414802046
| 40>  H        4.0263820116     2.6989269961    -0.9124024135
| 41> *
| 42>
| 43>                          ****END OF INPUT****
 Total Charge           Charge          ....    1
 Multiplicity           Mult            ....    1
 Number of Electrons    NEL             ....   54
FINAL SINGLE POINT ENERGY      -325.968089567308
FINAL SINGLE POINT ENERGY      -325.968080365911
FINAL SINGLE POINT ENERGY      -325.968092234214

CARTESIAN COORDINATES (ANGSTROEM)
---------------------------------
  C     -1.265562    1.074806   -2.034172
  C     -0.752454   -0.127717   -1.313762
  C      0.431002   -0.876794   -1.768892
  N      0.546475    0.000297   -0.579029
  C      0.743916   -0.557347    0.766687
  C      0.280729    0.398165    1.859901
  O     -0.000122   -0.001647    2.943681
  H     -1.756268    1.768025   -1.349325
  H     -2.005953    0.751009   -2.768555
  H     -0.472348    1.598067   -2.573219
  H     -1.471876   -0.685092   -0.721819
  H      0.525351   -1.931438   -1.543127
  H      0.977147   -0.526035   -2.636429
  H      1.035867    0.874583   -0.749212
  H      1.809842   -0.767187    0.900905
  H      0.196927   -1.496977    0.847352
  H      0.245846    1.477557    1.595584

FINAL SINGLE POINT ENERGY      -325.968092919696
                    ***********************HURRAY********************
 Multiplicity           Mult            ....    1
 Number of Electrons    NEL             ....   54
 Basis Dimension        Dim             ....  277
FINAL SINGLE POINT ENERGY      -325.968094643892

VIBRATIONAL FREQUENCIES
-----------------------

   0:         0.00 cm**-1
   1:         0.00 cm**-1
   2:         0.00 cm**-1
   3:         0.00 cm**-1
   4:         0.00 cm**-1
   5:         0.00 cm**-1
   6:        25.35 cm**-1
   7:        78.37 cm**-1
   8:       127.94 cm**-1
   9:       215.05 cm**-1
  10:       283.86 cm**-1
  11:       321.36 cm**-1
  12:       376.39 cm**-1
  13:       433.43 cm**-1
  14:       528.73 cm**-1
  15:       704.58 cm**-1
  16:       784.18 cm**-1
  17:       845.74 cm**-1
  18:       897.30 cm**-1
  19:       925.12 cm**-1
  20:       976.06 cm**-1
  21:      1026.47 cm**-1
  22:      1066.80 cm**-1
  23:      1087.90 cm**-1
  24:      1107.42 cm**-1
  25:      1155.65 cm**-1
  26:      1172.73 cm**-1
  27:      1183.42 cm**-1
  28:      1226.01 cm**-1
  29:      1257.02 cm**-1
  30:      1306.66 cm**-1
  31:      1334.50 cm**-1
  32:      1395.75 cm**-1
  33:      1416.63 cm**-1
  34:      1428.01 cm**-1
  35:      1453.29 cm**-1
  36:      1467.69 cm**-1
  37:      1475.28 cm**-1
  38:      1487.70 cm**-1
  39:      1514.11 cm**-1
  40:      1877.47 cm**-1
  41:      2909.15 cm**-1
  42:      3062.64 cm**-1
  43:      3078.27 cm**-1
  44:      3142.06 cm**-1
  45:      3152.10 cm**-1
  46:      3153.96 cm**-1
  47:      3166.09 cm**-1
  48:      3187.24 cm**-1
  49:      3267.55 cm**-1
  50:      3528.18 cm**-1

IR SPECTRUM
-----------

 Mode    freq (cm**-1)   T**2         TX         TY         TZ
-------------------------------------------------------------------
   7:        78.37    0.319423  ( -0.157531   0.344471  -0.419460)
   8:       127.94    4.962448  ( -0.283730  -2.209259   0.033494)
   9:       215.05    0.103165  ( -0.023671   0.252745   0.196786)
  10:       283.86    0.748498  ( -0.618737   0.562510   0.221911)
  11:       321.36    4.059664  ( -0.061672  -2.011737  -0.093687)
  12:       376.39    3.472128  (  0.900782  -1.159325  -1.147468)
  13:       433.43    0.845667  (  0.459553  -0.794562   0.056114)
  14:       528.73    7.959325  (  0.711680  -1.747731  -2.097206)
  15:       704.58    9.139034  (  2.915620  -0.161101   0.782459)
  16:       784.18    2.656566  (  0.013803  -1.534279   0.549875)
  17:       845.74   19.750144  ( -2.390086  -2.088881  -3.110339)
  18:       897.30    1.887111  (  1.018275   0.020194   0.921857)
  19:       925.12   14.139634  ( -1.505981   1.244215   3.213033)
  20:       976.06   34.450684  (  4.310245  -3.381653  -2.106395)
  21:      1026.47   60.414278  (  1.859239   3.634466   6.614239)
  22:      1066.80    0.242628  ( -0.137779   0.155830  -0.446500)
  23:      1087.90   14.654581  (  3.274760  -0.535832   1.908773)
  24:      1107.42   20.543760  ( -0.937740  -0.848154  -4.352590)
  25:      1155.65    3.118821  ( -0.634439   1.612313  -0.341695)
  26:      1172.73    9.646993  (  2.402232  -0.568010  -1.885110)
  27:      1183.42    5.812383  (  1.303162   0.058186   2.027502)
  28:      1226.01    5.973171  ( -1.255856   0.850287   1.916510)
  29:      1257.02    2.531436  ( -0.597442   0.055306  -1.473581)
  30:      1306.66    6.518799  (  1.525027   2.047215   0.044759)
  31:      1334.50    0.757624  (  0.597131  -0.596625   0.212360)
  32:      1395.75    2.818406  ( -0.199204   1.352735  -0.974080)
  33:      1416.63    7.578248  (  1.246728  -2.116739  -1.242309)
  34:      1428.01    6.686678  (  0.732110  -2.213099   1.119324)
  35:      1453.29   13.648182  ( -1.141888   3.486369   0.435321)
  36:      1467.69   41.348728  ( -0.949325  -2.260927  -5.944385)
  37:      1475.28    3.777549  ( -1.398385   1.015339  -0.889469)
  38:      1487.70   22.724740  (  4.636012   0.730836  -0.835470)
  39:      1514.11   26.053310  ( -3.203783   2.584893  -3.017849)
  40:      1877.47  148.354488  (  2.639573   1.801779 -11.753329)
  41:      2909.15   54.739476  ( -0.014285   7.055899  -2.225661)
  42:      3062.64    2.040009  ( -1.317335  -0.421802  -0.355979)
  43:      3078.27    3.732000  (  1.105057  -1.162476  -1.076800)
  44:      3142.06    1.335426  (  0.690572   0.273987  -0.885137)
  45:      3152.10    0.952453  ( -0.904474   0.320215  -0.178445)
  46:      3153.96    2.087217  ( -1.174729  -0.676642   0.499382)
  47:      3166.09    2.777637  (  0.605415  -1.133011  -1.061790)
  48:      3187.24    1.608530  ( -1.249995   0.020073  -0.213634)
  49:      3267.55    4.945706  (  0.586805   1.822213  -1.131771)
  50:      3528.18   69.966431  ( -4.814052  -6.837887   0.186107)

--------------------------
THERMOCHEMISTRY AT 298.15K
--------------------------

Temperature         ... 298.15 K
Pressure            ... 1.00 atm
Total Mass          ... 100.14 AMU

Throughout the following assumptions are being made:
  (1) The electronic state is orbitally nondegenerate
  (2) There are no thermally accessible electronically excited states
  (3) Hindered rotations indicated by low frequency modes) are not
      treated as such but are treated as vibrations and this may
      case some error
  (4) All equations used are the standard statistical mechanics
      equations for an ideal gas
  (5) All vibrations are strinctly harmonic

------------
INNER ENERGY
------------

The inner energy is: U= E(el) + E(ZPE) + E(vib) + E(rot) + E(trans)
    E(el)   - is the total energy from the electronic structure calculation
              = E(kin-el) + E(nuc-el) + E(el-el) + E(nuc-nuc)
    E(ZPE)  - the the zero temperature vibrational energy from the frequency calculation
    E(vib)  - the the finite temperature correction to E(ZPE) due to population
              of excietd vibrational states
    E(rot)  - is the rotational thermal energy
    E(trans)- is the translational thermal energy

Summary of contributions to the inner energy U:
Electronic energy                ...   -325.96809464 Eh
Zero point energy                ...      0.14941562 Eh      93.76 kcal/mol
Thermal vibrational correction   ...      0.00431781 Eh       2.71 kcal/mol
Thermal rotational correction    ...      0.00141627 Eh       0.89 kcal/mol
Thermal translational correction ...      0.00141627 Eh       0.89 kcal/mol
-----------------------------------------------------------------------
Total thermal energy                   -325.81152868 Eh

Summary of corrections to the electronic energy:
(perhaps to be used in another calculation)
Total thermal correction                  0.00715035 Eh       4.49 kcal/mol
Non-thermal (ZPE) correction              0.14941562 Eh      93.76 kcal/mol
-----------------------------------------------------------------------
Total correction                          0.15656597 Eh      98.25 kcal/mol

--------
ENTHALPY
--------

The enthalpy is H = U + kB*T
                kB is Boltzmann's constant
Total free energy                 ...   -325.81152868 Eh
Thermal Enthalpy correction       ...      0.00094421 Eh       0.59 kcal/mol
-----------------------------------------------------------------------
Total Enthalpy                    ...   -325.81058447 Eh

-------
ENTROPY
-------

The entropy contributions are T*S = T*(S(el)+S(vib)+S(rot)+S(trans)
     S(el)   - electronic entropy
     S(vib)  - vibrational entropy
     S(rot)  - rotational entropy
     S(trans)- translational entropy
The entropies will be listed as mutliplied by the temperature to get
units of energy

Electronic entropy                ...      0.00000000 Eh      0.00 kcal/mol
Vibrational entropy               ...      0.00757263 Eh      4.75 kcal/mol
Rotational entropy                ...      0.01222534 Eh      7.67 kcal/mol
Translational entropy             ...      0.01887324 Eh     11.84 kcal/mol
-----------------------------------------------------------------------
Final entropy term                ...      0.03867121 Eh     24.27 kcal/mol

CAUTION: The rotational entropy is not quite correctly treated here
         because it includes a symmetry number that is not yet correctly
         implemented in ORCA!
For a nonlinear molecule the correct rotational entropy is:
    S(rot) = R*(ln(qrot/sn)+1.5)
    R    = 8.31441 J/mol/K = 1.987191683e-3 kcal/mol/K
    qrot = 281166.9644061
    sn is the rotational symmetry number. We have assumed 3 here
       if it is different for your molecule then you should correct
       the printed rotational entropy by manually evaluating the equation
       as given above

For convenience we print out the resulting values for sn=1 - 12:
 sn= 1  qrot/sn=  281166.9644 T*S(rot)=     8.32 kcal/mol T*S(tot)=    24.92 kcal/mol
 sn= 2  qrot/sn=  140583.4822 T*S(rot)=     7.91 kcal/mol T*S(tot)=    24.51 kcal/mol
 sn= 3  qrot/sn=   93722.3215 T*S(rot)=     7.67 kcal/mol T*S(tot)=    24.27 kcal/mol
 sn= 4  qrot/sn=   70291.7411 T*S(rot)=     7.50 kcal/mol T*S(tot)=    24.10 kcal/mol
 sn= 5  qrot/sn=   56233.3929 T*S(rot)=     7.37 kcal/mol T*S(tot)=    23.96 kcal/mol
 sn= 6  qrot/sn=   46861.1607 T*S(rot)=     7.26 kcal/mol T*S(tot)=    23.86 kcal/mol
 sn= 7  qrot/sn=   40166.7092 T*S(rot)=     7.17 kcal/mol T*S(tot)=    23.76 kcal/mol
 sn= 8  qrot/sn=   35145.8706 T*S(rot)=     7.09 kcal/mol T*S(tot)=    23.69 kcal/mol
 sn= 9  qrot/sn=   31240.7738 T*S(rot)=     7.02 kcal/mol T*S(tot)=    23.62 kcal/mol
 sn=10  qrot/sn=   28116.6964 T*S(rot)=     6.96 kcal/mol T*S(tot)=    23.55 kcal/mol
 sn=11  qrot/sn=   25560.6331 T*S(rot)=     6.90 kcal/mol T*S(tot)=    23.50 kcal/mol
 sn=12  qrot/sn=   23430.5804 T*S(rot)=     6.85 kcal/mol T*S(tot)=    23.45 kcal/mol

-------------------
GIBBS FREE ENTHALPY
-------------------

The Gibbs free enthalpy is G = H - T*S

Total enthalpy                    ...   -325.81058447 Eh
Total entropy correction          ...     -0.03867121 Eh    -24.27 kcal/mol
-----------------------------------------------------------------------
Final Gibbs free enthalpy         ...   -325.84925568 Eh

For completeness - the Gibbs free enthalpy minus the electronic energy
G-E(el)                           ...      0.11883897 Eh     74.57 kcal/mol

                             ****ORCA TERMINATED NORMALLY****
TOTAL RUN TIME: 0 days 0 hours 28 minutes 36 seconds 354 msec
