                         Program Version 3.0.3 - RELEASE   -
|  1> ! NORI PBE0 def2-TZVP UseSym TightOPT Freq TightSCF Grid3 FinalGrid5 XYZFile
|  2> % pal
|  3>     nprocs 8
|  4> end
|  5> %method
|  6>     SymThresh 5.0e-2
|  7> end
|  8> % geom
|  9>     MaxIter 10
| 10> end
| 11> % maxcore 2000
| 12> % output
| 13>     printlevel mini
| 14>     print[ P_Basis ] 0
| 15>     print[ P_SCFInfo ] 1
| 16>     print[ P_SCFIterInfo ] 1
| 17>     print[ P_OrbEn ] 0
| 18>     print[ P_Cartesian ] 0
| 19> end
| 20> % elprop
| 21>     Dipole false
| 22> end
| 23> *xyz 1 1
| 24>  C        1.7243530476     1.2541261510     0.9059746257
| 25>  C        2.7257244163     0.2477439892     0.4247417241
| 26>  C        2.4033483348    -1.1902448136     0.7055344621
| 27>  N        4.1775571799     0.6098470407     0.6950558155
| 28>  C        3.6444288826     0.5502017089    -0.6922185521
| 29>  C        3.6003835266     1.8315150260    -1.4814152401
| 30>  O        2.4742193240     1.7062867635    -2.2990584340
| 31>  H        0.7974257476     1.1036808202     0.3504581424
| 32>  H        2.0367652910     2.2859866879     0.7453794337
| 33>  H        1.5145335225     1.1066286384     1.9666256124
| 34>  H        3.1945685192    -1.8678985670     0.3766764444
| 35>  H        1.4960234706    -1.4530391791     0.1584675264
| 36>  H        2.2134930438    -1.3491168872     1.7684323713
| 37>  H        4.3699855141     1.5259645100     1.0853611836
| 38>  H        4.8137050883    -0.1172938965     1.0018725477
| 39>  H        4.0246179321    -0.3084814534    -1.2355478158
| 40>  H        3.5305593323     2.6999217155    -0.8096426797
| 41>  H        4.5302740613     1.9315506474    -2.0534479472
| 42>  H        2.5291437653     2.3229110982    -3.0348592203
| 43> *
| 44>
| 45>                          ****END OF INPUT****
 Total Charge           Charge          ....    1
 Multiplicity           Mult            ....    1
 Number of Electrons    NEL             ....   56
FINAL SINGLE POINT ENERGY      -327.205382187122
FINAL SINGLE POINT ENERGY      -327.205383703301

CARTESIAN COORDINATES (ANGSTROEM)
---------------------------------
  C     -1.054164   -1.326521   -0.564965
  C     -0.438743    0.023710   -0.777751
  C     -1.257272    1.007726   -1.559642
  N      1.028679    0.000400   -1.175100
  C      0.594878    0.548799    0.138221
  C      1.046138   -0.171511    1.380736
  O     -0.000486    0.001834    2.290390
  H     -1.940651   -1.202339    0.059030
  H     -0.392189   -2.026552   -0.055755
  H     -1.365005   -1.758923   -1.517376
  H     -0.730824    1.950482   -1.723697
  H     -2.163103    1.230383   -0.992413
  H     -1.557029    0.591087   -2.522843
  H      1.502043   -0.896572   -1.175762
  H      1.352895    0.644992   -1.887038
  H      0.686007    1.629413    0.176736
  H      1.236808   -1.233356    1.166618
  H      1.987530    0.269396    1.728833
  H      0.309270   -0.159805    3.186213

FINAL SINGLE POINT ENERGY      -327.205384309587
                    ***********************HURRAY********************
 Multiplicity           Mult            ....    1
 Number of Electrons    NEL             ....   56
 Basis Dimension        Dim             ....  289
FINAL SINGLE POINT ENERGY      -327.205384411693

VIBRATIONAL FREQUENCIES
-----------------------

   0:         0.00 cm**-1
   1:         0.00 cm**-1
   2:         0.00 cm**-1
   3:         0.00 cm**-1
   4:         0.00 cm**-1
   5:         0.00 cm**-1
   6:        69.30 cm**-1
   7:       142.61 cm**-1
   8:       177.73 cm**-1
   9:       234.45 cm**-1
  10:       241.92 cm**-1
  11:       265.58 cm**-1
  12:       359.99 cm**-1
  13:       363.39 cm**-1
  14:       413.40 cm**-1
  15:       431.58 cm**-1
  16:       529.64 cm**-1
  17:       682.71 cm**-1
  18:       747.89 cm**-1
  19:       877.98 cm**-1
  20:       901.91 cm**-1
  21:       960.53 cm**-1
  22:       965.72 cm**-1
  23:       983.00 cm**-1
  24:      1000.11 cm**-1
  25:      1019.67 cm**-1
  26:      1083.20 cm**-1
  27:      1123.29 cm**-1
  28:      1135.18 cm**-1
  29:      1148.65 cm**-1
  30:      1195.78 cm**-1
  31:      1246.05 cm**-1
  32:      1291.34 cm**-1
  33:      1313.12 cm**-1
  34:      1357.69 cm**-1
  35:      1421.49 cm**-1
  36:      1424.11 cm**-1
  37:      1432.42 cm**-1
  38:      1463.55 cm**-1
  39:      1471.28 cm**-1
  40:      1482.11 cm**-1
  41:      1490.44 cm**-1
  42:      1509.14 cm**-1
  43:      1522.80 cm**-1
  44:      1618.04 cm**-1
  45:      3001.36 cm**-1
  46:      3061.60 cm**-1
  47:      3061.95 cm**-1
  48:      3074.70 cm**-1
  49:      3143.57 cm**-1
  50:      3149.51 cm**-1
  51:      3155.21 cm**-1
  52:      3161.92 cm**-1
  53:      3189.68 cm**-1
  54:      3511.88 cm**-1
  55:      3621.68 cm**-1
  56:      3863.88 cm**-1

IR SPECTRUM
-----------

 Mode    freq (cm**-1)   T**2         TX         TY         TZ
-------------------------------------------------------------------
   6:        69.30    3.726672  (  0.252065   1.512184   1.173216)
   7:       142.61    1.245712  (  0.245743   0.818052  -0.718410)
   8:       177.73    0.115884  (  0.000088   0.313270   0.133216)
   9:       234.45    0.080943  (  0.206366  -0.167561  -0.101389)
  10:       241.92   72.378924  ( -2.265042  -8.098566  -1.289082)
  11:       265.58   56.393080  ( -2.060528  -7.135202  -1.111841)
  12:       359.99    0.921244  ( -0.810202   0.405631   0.316671)
  13:       363.39    4.502607  (  0.109712  -1.217543  -1.734404)
  14:       413.40    1.580521  (  1.162034   0.294658  -0.378647)
  15:       431.58    2.794089  (  0.311658  -0.299147  -1.614766)
  16:       529.64   11.453048  (  0.836670  -0.722148  -3.198677)
  17:       682.71    4.931151  (  1.522688  -0.050604   1.615553)
  18:       747.89    4.014592  ( -1.986493   0.260426  -0.024848)
  19:       877.98   18.797518  ( -2.792659   0.339758   3.298960)
  20:       901.91   12.600289  ( -2.105293  -1.288431   2.551073)
  21:       960.53    6.506204  ( -2.497119   0.022536  -0.519703)
  22:       965.72    2.265080  ( -0.113203  -1.496850   0.108185)
  23:       983.00   37.337913  ( -0.982129  -2.869899  -5.304433)
  24:      1000.11   61.262831  ( -7.149187  -1.813211  -2.619966)
  25:      1019.67    2.959639  (  0.954797   0.366961  -1.383236)
  26:      1083.20    8.853630  ( -0.635727  -0.994702  -2.731309)
  27:      1123.29   28.529802  ( -4.225732   0.861027   3.151448)
  28:      1135.18   66.794072  ( -6.070719   0.647627   5.433325)
  29:      1148.65    6.699240  ( -0.501825  -0.694480  -2.442357)
  30:      1195.78    1.933612  ( -0.783910  -0.504241  -1.031910)
  31:      1246.05   27.102670  ( -3.618294   1.376474   3.480796)
  32:      1291.34   17.905453  (  2.697049  -0.493496  -3.223017)
  33:      1313.12   14.434261  (  3.264746  -1.472017   1.268410)
  34:      1357.69    2.594720  (  1.445456   0.569876   0.424993)
  35:      1421.49   16.660137  (  1.533594   3.782214  -0.055510)
  36:      1424.11   14.364537  (  1.803213  -3.064234   1.312795)
  37:      1432.42    5.232731  (  1.850578   1.022130  -0.873694)
  38:      1463.55    1.655933  (  1.060507   0.262215   0.680075)
  39:      1471.28    7.531930  (  1.273233  -1.750474   1.687201)
  40:      1482.11   20.299421  ( -1.798661  -1.902714  -3.666595)
  41:      1490.44   12.892527  (  2.486719  -0.447283  -2.551214)
  42:      1509.14    1.596496  (  0.699282   0.987487  -0.363826)
  43:      1522.80    6.476613  ( -1.338177   1.865096  -1.098778)
  44:      1618.04   78.492356  ( -6.918784   2.098049   5.120642)
  45:      3001.36   36.459443  (  3.123331  -4.086697  -3.162776)
  46:      3061.60   16.350183  ( -3.243758  -2.243891  -0.890602)
  47:      3061.95    0.905602  ( -0.032091   0.255662  -0.916084)
  48:      3074.70    2.206725  ( -0.784321   0.961668   0.816553)
  49:      3143.57    3.839299  (  0.816027   1.774884   0.152269)
  50:      3149.51    0.522492  (  0.503398  -0.014099   0.518540)
  51:      3155.21    2.162902  ( -1.266231  -0.454445  -0.594173)
  52:      3161.92    4.214340  (  1.059504  -1.201363   1.283946)
  53:      3189.68    0.186196  ( -0.082665  -0.260094  -0.334236)
  54:      3511.88   88.129500  ( -7.070695   1.487940   5.993397)
  55:      3621.68   97.722335  ( -0.456830   8.687472  -4.694834)
  56:      3863.88  116.893549  (  0.793890  -0.923760  10.742903)

--------------------------
THERMOCHEMISTRY AT 298.15K
--------------------------

Temperature         ... 298.15 K
Pressure            ... 1.00 atm
Total Mass          ... 102.16 AMU

Throughout the following assumptions are being made:
  (1) The electronic state is orbitally nondegenerate
  (2) There are no thermally accessible electronically excited states
  (3) Hindered rotations indicated by low frequency modes) are not
      treated as such but are treated as vibrations and this may
      case some error
  (4) All equations used are the standard statistical mechanics
      equations for an ideal gas
  (5) All vibrations are strinctly harmonic

------------
INNER ENERGY
------------

The inner energy is: U= E(el) + E(ZPE) + E(vib) + E(rot) + E(trans)
    E(el)   - is the total energy from the electronic structure calculation
              = E(kin-el) + E(nuc-el) + E(el-el) + E(nuc-nuc)
    E(ZPE)  - the the zero temperature vibrational energy from the frequency calculation
    E(vib)  - the the finite temperature correction to E(ZPE) due to population
              of excietd vibrational states
    E(rot)  - is the rotational thermal energy
    E(trans)- is the translational thermal energy

Summary of contributions to the inner energy U:
Electronic energy                ...   -327.20538441 Eh
Zero point energy                ...      0.17335877 Eh     108.78 kcal/mol
Thermal vibrational correction   ...      0.00572610 Eh       3.59 kcal/mol
Thermal rotational correction    ...      0.00141627 Eh       0.89 kcal/mol
Thermal translational correction ...      0.00141627 Eh       0.89 kcal/mol
-----------------------------------------------------------------------
Total thermal energy                   -327.02346700 Eh

Summary of corrections to the electronic energy:
(perhaps to be used in another calculation)
Total thermal correction                  0.00855865 Eh       5.37 kcal/mol
Non-thermal (ZPE) correction              0.17335877 Eh     108.78 kcal/mol
-----------------------------------------------------------------------
Total correction                          0.18191741 Eh     114.15 kcal/mol

--------
ENTHALPY
--------

The enthalpy is H = U + kB*T
                kB is Boltzmann's constant
Total free energy                 ...   -327.02346700 Eh
Thermal Enthalpy correction       ...      0.00094421 Eh       0.59 kcal/mol
-----------------------------------------------------------------------
Total Enthalpy                    ...   -327.02252279 Eh

-------
ENTROPY
-------

The entropy contributions are T*S = T*(S(el)+S(vib)+S(rot)+S(trans)
     S(el)   - electronic entropy
     S(vib)  - vibrational entropy
     S(rot)  - rotational entropy
     S(trans)- translational entropy
The entropies will be listed as mutliplied by the temperature to get
units of energy

Electronic entropy                ...      0.00000000 Eh      0.00 kcal/mol
Vibrational entropy               ...      0.00998623 Eh      6.27 kcal/mol
Rotational entropy                ...      0.01209455 Eh      7.59 kcal/mol
Translational entropy             ...      0.01890147 Eh     11.86 kcal/mol
-----------------------------------------------------------------------
Final entropy term                ...      0.04098225 Eh     25.72 kcal/mol

CAUTION: The rotational entropy is not quite correctly treated here
         because it includes a symmetry number that is not yet correctly
         implemented in ORCA!
For a nonlinear molecule the correct rotational entropy is:
    S(rot) = R*(ln(qrot/sn)+1.5)
    R    = 8.31441 J/mol/K = 1.987191683e-3 kcal/mol/K
    qrot = 244796.0116794
    sn is the rotational symmetry number. We have assumed 3 here
       if it is different for your molecule then you should correct
       the printed rotational entropy by manually evaluating the equation
       as given above

For convenience we print out the resulting values for sn=1 - 12:
 sn= 1  qrot/sn=  244796.0117 T*S(rot)=     8.24 kcal/mol T*S(tot)=    26.37 kcal/mol
 sn= 2  qrot/sn=  122398.0058 T*S(rot)=     7.83 kcal/mol T*S(tot)=    25.96 kcal/mol
 sn= 3  qrot/sn=   81598.6706 T*S(rot)=     7.59 kcal/mol T*S(tot)=    25.72 kcal/mol
 sn= 4  qrot/sn=   61199.0029 T*S(rot)=     7.42 kcal/mol T*S(tot)=    25.55 kcal/mol
 sn= 5  qrot/sn=   48959.2023 T*S(rot)=     7.29 kcal/mol T*S(tot)=    25.41 kcal/mol
 sn= 6  qrot/sn=   40799.3353 T*S(rot)=     7.18 kcal/mol T*S(tot)=    25.31 kcal/mol
 sn= 7  qrot/sn=   34970.8588 T*S(rot)=     7.09 kcal/mol T*S(tot)=    25.21 kcal/mol
 sn= 8  qrot/sn=   30599.5015 T*S(rot)=     7.01 kcal/mol T*S(tot)=    25.14 kcal/mol
 sn= 9  qrot/sn=   27199.5569 T*S(rot)=     6.94 kcal/mol T*S(tot)=    25.07 kcal/mol
 sn=10  qrot/sn=   24479.6012 T*S(rot)=     6.88 kcal/mol T*S(tot)=    25.00 kcal/mol
 sn=11  qrot/sn=   22254.1829 T*S(rot)=     6.82 kcal/mol T*S(tot)=    24.95 kcal/mol
 sn=12  qrot/sn=   20399.6676 T*S(rot)=     6.77 kcal/mol T*S(tot)=    24.90 kcal/mol

-------------------
GIBBS FREE ENTHALPY
-------------------

The Gibbs free enthalpy is G = H - T*S

Total enthalpy                    ...   -327.02252279 Eh
Total entropy correction          ...     -0.04098225 Eh    -25.72 kcal/mol
-----------------------------------------------------------------------
Final Gibbs free enthalpy         ...   -327.06350504 Eh

For completeness - the Gibbs free enthalpy minus the electronic energy
G-E(el)                           ...      0.14187937 Eh     89.03 kcal/mol

                             ****ORCA TERMINATED NORMALLY****
TOTAL RUN TIME: 0 days 0 hours 36 minutes 8 seconds 265 msec
