                         Program Version 3.0.3 - RELEASE   -
|  1> ! NORI PBE0 def2-TZVP UseSym TightOPT Freq TightSCF Grid3 FinalGrid5 XYZFile
|  2> % pal
|  3>     nprocs 8
|  4> end
|  5> %method
|  6>     SymThresh 5.0e-2
|  7> end
|  8> % geom
|  9>     MaxIter 10
| 10> end
| 11> % maxcore 2000
| 12> % output
| 13>     printlevel mini
| 14>     print[ P_Basis ] 0
| 15>     print[ P_SCFInfo ] 1
| 16>     print[ P_SCFIterInfo ] 1
| 17>     print[ P_OrbEn ] 0
| 18>     print[ P_Cartesian ] 0
| 19> end
| 20> % elprop
| 21>     Dipole false
| 22> end
| 23> *xyz 1 1
| 24>  C        1.0731085765    -0.0211080055     0.2623516763
| 25>  C        2.5397392539    -0.0585662110    -0.1031322994
| 26>  C        3.4344181563     0.9133500443     0.7001469581
| 27>  N        3.9053486945    -0.2290687195     1.5770533567
| 28>  C        3.3435813223    -1.2009936631     0.5597381237
| 29>  C        2.7621362260     0.0308966462    -1.6077888642
| 30>  O        1.8762034199     0.1157696101    -2.3968375022
| 31>  H        0.5439560917    -0.8481795756    -0.2127189473
| 32>  H        0.6172999789     0.9034024518    -0.0945739526
| 33>  H        0.9192398452    -0.0876674290     1.3430840840
| 34>  H        2.9469688640     1.7070660058     1.2625784803
| 35>  H        4.2879726396     1.3056701297     0.1465104261
| 36>  H        4.9064007948    -0.2845535403     1.7630949174
| 37>  H        3.4150240322    -0.2672086558     2.4694990704
| 38>  H        4.1638489542    -1.5891689220    -0.0448645014
| 39>  H        2.7862003754    -2.0171453483     1.0148565405
| 40>  H        3.8301727744     0.0102751824    -1.9245975664
| 41> *
| 42>
| 43>                          ****END OF INPUT****
 Total Charge           Charge          ....    1
 Multiplicity           Mult            ....    1
 Number of Electrons    NEL             ....   54
FINAL SINGLE POINT ENERGY      -325.979572319013
FINAL SINGLE POINT ENERGY      -325.979572855974

CARTESIAN COORDINATES (ANGSTROEM)
---------------------------------
  C      0.201324    1.670427   -0.000001
  C      0.036278    0.167552   -0.000001
  C     -0.948451   -0.376263    1.060555
  N     -2.018768   -0.535340    0.000000
  C     -0.948452   -0.376262   -1.060556
  C      1.375139   -0.560298   -0.000001
  O      2.424260    0.000440    0.000006
  H      0.763372    1.989245   -0.878556
  H      0.763373    1.989244    0.878555
  H     -0.762257    2.187898    0.000000
  H     -1.245862    0.290083    1.867299
  H     -0.694224   -1.361549    1.452978
  H     -2.540254   -1.411552    0.000000
  H     -2.689307    0.232326    0.000001
  H     -0.694226   -1.361549   -1.452979
  H     -1.245864    0.290084   -1.867299
  H      1.303778   -1.671850   -0.000001

FINAL SINGLE POINT ENERGY      -325.979572982014
                    ***********************HURRAY********************
 Multiplicity           Mult            ....    1
 Number of Electrons    NEL             ....   54
 Basis Dimension        Dim             ....  277
FINAL SINGLE POINT ENERGY      -325.979571662562

VIBRATIONAL FREQUENCIES
-----------------------

   0:         0.00 cm**-1
   1:         0.00 cm**-1
   2:         0.00 cm**-1
   3:         0.00 cm**-1
   4:         0.00 cm**-1
   5:         0.00 cm**-1
   6:        75.65 cm**-1
   7:       104.73 cm**-1
   8:       228.52 cm**-1
   9:       260.02 cm**-1
  10:       285.22 cm**-1
  11:       352.60 cm**-1
  12:       382.94 cm**-1
  13:       476.08 cm**-1
  14:       717.88 cm**-1
  15:       769.70 cm**-1
  16:       825.50 cm**-1
  17:       875.14 cm**-1
  18:       905.52 cm**-1
  19:       928.12 cm**-1
  20:       930.61 cm**-1
  21:       945.04 cm**-1
  22:       992.37 cm**-1
  23:      1010.24 cm**-1
  24:      1089.25 cm**-1
  25:      1179.16 cm**-1
  26:      1206.50 cm**-1
  27:      1256.97 cm**-1
  28:      1270.63 cm**-1
  29:      1320.07 cm**-1
  30:      1325.50 cm**-1
  31:      1331.45 cm**-1
  32:      1354.48 cm**-1
  33:      1404.35 cm**-1
  34:      1426.47 cm**-1
  35:      1467.54 cm**-1
  36:      1477.89 cm**-1
  37:      1487.48 cm**-1
  38:      1492.56 cm**-1
  39:      1647.44 cm**-1
  40:      1873.04 cm**-1
  41:      2888.98 cm**-1
  42:      3057.98 cm**-1
  43:      3106.26 cm**-1
  44:      3109.35 cm**-1
  45:      3138.10 cm**-1
  46:      3159.49 cm**-1
  47:      3186.43 cm**-1
  48:      3186.78 cm**-1
  49:      3465.96 cm**-1
  50:      3532.42 cm**-1

IR SPECTRUM
-----------

 Mode    freq (cm**-1)   T**2         TX         TY         TZ
-------------------------------------------------------------------
   6:        75.65    3.088312  ( -0.002449   0.000343   1.757358)
   7:       104.73    1.813618  (  0.240864   1.324990  -0.001688)
   8:       228.52    0.041222  ( -0.000285  -0.000781  -0.203031)
   9:       260.02    7.148565  (  0.413710  -2.641478   0.000681)
  10:       285.22    0.400344  ( -0.001055   0.002471   0.632722)
  11:       352.60    0.608948  ( -0.537139  -0.566065   0.000245)
  12:       382.94    0.655824  ( -0.000005  -0.001365  -0.809829)
  13:       476.08    5.313174  (  2.299879   0.154049  -0.000978)
  14:       717.88   15.672442  ( -1.768867   3.541688   0.000210)
  15:       769.70    0.949564  (  0.924262  -0.308712  -0.000021)
  16:       825.50    1.759320  (  0.001061   0.000516   1.326393)
  17:       875.14    9.399176  (  0.412030  -3.037994   0.000423)
  18:       905.52    1.645040  (  0.002856   0.000693   1.282588)
  19:       928.12    1.764531  (  1.176847  -0.616078  -0.003201)
  20:       930.61    1.549239  ( -0.002824   0.002466  -1.244679)
  21:       945.04   48.777944  ( -6.865877   1.279716  -0.000989)
  22:       992.37    2.234021  ( -1.081236   1.031963  -0.000897)
  23:      1010.24    0.066223  ( -0.000470  -0.003249   0.257317)
  24:      1089.25    0.633675  (  0.001282   0.001171   0.796035)
  25:      1179.16    3.660273  ( -0.000542  -0.000775  -1.913184)
  26:      1206.50    0.731941  ( -0.154194   0.841525   0.000470)
  27:      1256.97   36.044582  (  0.000337   0.000041  -6.003714)
  28:      1270.63    7.444089  ( -1.779315   2.068363  -0.000539)
  29:      1320.07   34.137874  (  0.000925   0.000539   5.842762)
  30:      1325.50    6.629702  ( -0.000322  -0.000021   2.574821)
  31:      1331.45    2.878134  (  1.679175  -0.241880   0.000364)
  32:      1354.48    0.354049  ( -0.031746   0.594172   0.000605)
  33:      1404.35    1.489709  (  1.201075   0.217086  -0.000107)
  34:      1426.47    9.825684  (  0.385367   3.110816  -0.000910)
  35:      1467.54   27.601913  ( -0.000459  -0.000360   5.253752)
  36:      1477.89    3.327705  (  0.001387   0.000083  -1.824199)
  37:      1487.48   13.815171  ( -3.614087   0.868072  -0.000745)
  38:      1492.56    4.996031  ( -0.691068  -2.125666  -0.001164)
  39:      1647.44   71.630239  (  8.433068   0.716658   0.000063)
  40:      1873.04  160.923347  ( 12.140378   3.678935  -0.000256)
  41:      2888.98   67.736752  ( -0.617030  -8.207072   0.001589)
  42:      3057.98    8.717106  ( -2.695802   1.204058   0.000142)
  43:      3106.26    0.318728  (  0.000712   0.000646   0.564559)
  44:      3109.35    1.353671  ( -0.797506  -0.847145   0.000101)
  45:      3138.10    3.954452  (  1.879925  -0.648330  -0.000418)
  46:      3159.49    0.309758  (  0.000223   0.000142   0.556559)
  47:      3186.43    0.812002  ( -0.793231   0.427532  -0.001614)
  48:      3186.78    0.023537  ( -0.006972   0.003775   0.153213)
  49:      3465.96   71.353654  ( -8.229665  -1.904276  -0.000262)
  50:      3532.42   89.499713  ( -2.116390   9.220662  -0.000113)

--------------------------
THERMOCHEMISTRY AT 298.15K
--------------------------

Temperature         ... 298.15 K
Pressure            ... 1.00 atm
Total Mass          ... 100.14 AMU

Throughout the following assumptions are being made:
  (1) The electronic state is orbitally nondegenerate
  (2) There are no thermally accessible electronically excited states
  (3) Hindered rotations indicated by low frequency modes) are not
      treated as such but are treated as vibrations and this may
      case some error
  (4) All equations used are the standard statistical mechanics
      equations for an ideal gas
  (5) All vibrations are strinctly harmonic

------------
INNER ENERGY
------------

The inner energy is: U= E(el) + E(ZPE) + E(vib) + E(rot) + E(trans)
    E(el)   - is the total energy from the electronic structure calculation
              = E(kin-el) + E(nuc-el) + E(el-el) + E(nuc-nuc)
    E(ZPE)  - the the zero temperature vibrational energy from the frequency calculation
    E(vib)  - the the finite temperature correction to E(ZPE) due to population
              of excietd vibrational states
    E(rot)  - is the rotational thermal energy
    E(trans)- is the translational thermal energy

Summary of contributions to the inner energy U:
Electronic energy                ...   -325.97957166 Eh
Zero point energy                ...      0.15151736 Eh      95.08 kcal/mol
Thermal vibrational correction   ...      0.00462113 Eh       2.90 kcal/mol
Thermal rotational correction    ...      0.00141627 Eh       0.89 kcal/mol
Thermal translational correction ...      0.00141627 Eh       0.89 kcal/mol
-----------------------------------------------------------------------
Total thermal energy                   -325.82060063 Eh

Summary of corrections to the electronic energy:
(perhaps to be used in another calculation)
Total thermal correction                  0.00745367 Eh       4.68 kcal/mol
Non-thermal (ZPE) correction              0.15151736 Eh      95.08 kcal/mol
-----------------------------------------------------------------------
Total correction                          0.15897104 Eh      99.76 kcal/mol

--------
ENTHALPY
--------

The enthalpy is H = U + kB*T
                kB is Boltzmann's constant
Total free energy                 ...   -325.82060063 Eh
Thermal Enthalpy correction       ...      0.00094421 Eh       0.59 kcal/mol
-----------------------------------------------------------------------
Total Enthalpy                    ...   -325.81965642 Eh

-------
ENTROPY
-------

The entropy contributions are T*S = T*(S(el)+S(vib)+S(rot)+S(trans)
     S(el)   - electronic entropy
     S(vib)  - vibrational entropy
     S(rot)  - rotational entropy
     S(trans)- translational entropy
The entropies will be listed as mutliplied by the temperature to get
units of energy

Electronic entropy                ...      0.00000000 Eh      0.00 kcal/mol
Vibrational entropy               ...      0.00820743 Eh      5.15 kcal/mol
Rotational entropy                ...      0.01195488 Eh      7.50 kcal/mol
Translational entropy             ...      0.01887324 Eh     11.84 kcal/mol
-----------------------------------------------------------------------
Final entropy term                ...      0.03903555 Eh     24.50 kcal/mol

CAUTION: The rotational entropy is not quite correctly treated here
         because it includes a symmetry number that is not yet correctly
         implemented in ORCA!
For a nonlinear molecule the correct rotational entropy is:
    S(rot) = R*(ln(qrot/sn)+1.5)
    R    = 8.31441 J/mol/K = 1.987191683e-3 kcal/mol/K
    qrot = 211134.8813084
    sn is the rotational symmetry number. We have assumed 3 here
       if it is different for your molecule then you should correct
       the printed rotational entropy by manually evaluating the equation
       as given above

For convenience we print out the resulting values for sn=1 - 12:
 sn= 1  qrot/sn=  211134.8813 T*S(rot)=     8.15 kcal/mol T*S(tot)=    25.15 kcal/mol
 sn= 2  qrot/sn=  105567.4407 T*S(rot)=     7.74 kcal/mol T*S(tot)=    24.74 kcal/mol
 sn= 3  qrot/sn=   70378.2938 T*S(rot)=     7.50 kcal/mol T*S(tot)=    24.50 kcal/mol
 sn= 4  qrot/sn=   52783.7203 T*S(rot)=     7.33 kcal/mol T*S(tot)=    24.32 kcal/mol
 sn= 5  qrot/sn=   42226.9763 T*S(rot)=     7.20 kcal/mol T*S(tot)=    24.19 kcal/mol
 sn= 6  qrot/sn=   35189.1469 T*S(rot)=     7.09 kcal/mol T*S(tot)=    24.08 kcal/mol
 sn= 7  qrot/sn=   30162.1259 T*S(rot)=     7.00 kcal/mol T*S(tot)=    23.99 kcal/mol
 sn= 8  qrot/sn=   26391.8602 T*S(rot)=     6.92 kcal/mol T*S(tot)=    23.91 kcal/mol
 sn= 9  qrot/sn=   23459.4313 T*S(rot)=     6.85 kcal/mol T*S(tot)=    23.84 kcal/mol
 sn=10  qrot/sn=   21113.4881 T*S(rot)=     6.79 kcal/mol T*S(tot)=    23.78 kcal/mol
 sn=11  qrot/sn=   19194.0801 T*S(rot)=     6.73 kcal/mol T*S(tot)=    23.73 kcal/mol
 sn=12  qrot/sn=   17594.5734 T*S(rot)=     6.68 kcal/mol T*S(tot)=    23.67 kcal/mol

-------------------
GIBBS FREE ENTHALPY
-------------------

The Gibbs free enthalpy is G = H - T*S

Total enthalpy                    ...   -325.81965642 Eh
Total entropy correction          ...     -0.03903555 Eh    -24.50 kcal/mol
-----------------------------------------------------------------------
Final Gibbs free enthalpy         ...   -325.85869197 Eh

For completeness - the Gibbs free enthalpy minus the electronic energy
G-E(el)                           ...      0.12087970 Eh     75.85 kcal/mol

                             ****ORCA TERMINATED NORMALLY****
TOTAL RUN TIME: 0 days 0 hours 33 minutes 41 seconds 440 msec
