                         Program Version 3.0.3 - RELEASE   -
|  1> ! NORI PBE0 def2-TZVP UseSym TightOPT Freq TightSCF Grid3 FinalGrid5 XYZFile
|  2> % pal
|  3>     nprocs 8
|  4> end
|  5> %method
|  6>     SymThresh 5.0e-2
|  7> end
|  8> % geom
|  9>     MaxIter 10
| 10> end
| 11> % maxcore 2000
| 12> % output
| 13>     printlevel mini
| 14>     print[ P_Basis ] 0
| 15>     print[ P_SCFInfo ] 1
| 16>     print[ P_SCFIterInfo ] 1
| 17>     print[ P_OrbEn ] 0
| 18>     print[ P_Cartesian ] 0
| 19> end
| 20> % elprop
| 21>     Dipole false
| 22> end
| 23> *xyz 1 1
| 24>  C        0.9050131229    -0.0110499494    -0.2210898475
| 25>  C        2.4071133433    -0.0197796515    -0.1526261967
| 26>  C        3.2500046554    -0.9049295766    -1.0196127989
| 27>  N        2.5670095760    -1.7783546522    -2.0042476422
| 28>  C        3.2342020977     0.5675583459    -1.2563510474
| 29>  C        4.4558205192     1.3873843331    -0.9551291299
| 30>  O        3.9936014007     2.6591760319    -0.5899472304
| 31>  H        0.5300305536     0.9212189509     0.2039609071
| 32>  H        0.4635482829    -0.8341410054     0.3456310656
| 33>  H        0.5163078594    -0.0397354255    -1.2461414875
| 34>  H        2.8118575488     0.1020720936     0.8471411668
| 35>  H        4.1323118831    -1.3914308107    -0.6237331577
| 36>  H        1.6498728045    -1.3905666802    -2.2394242245
| 37>  H        2.4108219150    -2.7151390504    -1.6242224007
| 38>  H        3.1033107608    -1.8714817337    -2.8699094372
| 39>  H        2.6665489575     0.9158153300    -2.1177862156
| 40>  H        5.1046424624     1.4260627341    -1.8405299421
| 41>  H        5.0254590060     0.9104555565    -0.1432548913
| 42>  H        4.7408232507     3.2477551597    -0.4517274899
| 43> *
| 44>
| 45>                          ****END OF INPUT****
 Total Charge           Charge          ....    1
 Multiplicity           Mult            ....    1
 Number of Electrons    NEL             ....   56
FINAL SINGLE POINT ENERGY      -327.195905016985
FINAL SINGLE POINT ENERGY      -327.195907447555
FINAL SINGLE POINT ENERGY      -327.195909358052

CARTESIAN COORDINATES (ANGSTROEM)
---------------------------------
  C     -1.543491    1.224070   -0.994258
  C     -0.909723   -0.008571   -0.410934
  C      0.317094   -0.640255   -0.995358
  N      0.942949   -0.001923   -2.178883
  C      0.400667    0.069600    0.313448
  C      0.637946   -0.711069    1.574553
  O     -0.000732   -0.001854    2.600678
  H     -2.171945    1.697431   -0.238360
  H     -2.176400    0.993739   -1.854358
  H     -0.813612    1.988150   -1.286623
  H     -1.615568   -0.735718   -0.022429
  H      0.414164   -1.717404   -1.046435
  H      0.699944    0.991418   -2.213609
  H      0.610262   -0.425108   -3.048822
  H      1.962703   -0.077551   -2.159027
  H      0.867002    1.053108    0.304828
  H      1.717229   -0.808119    1.753232
  H      0.226529   -1.725123    1.460958
  H      0.183149   -0.419472    3.446605

FINAL SINGLE POINT ENERGY      -327.195909922521
                    ***********************HURRAY********************
 Multiplicity           Mult            ....    1
 Number of Electrons    NEL             ....   56
 Basis Dimension        Dim             ....  289
FINAL SINGLE POINT ENERGY      -327.195910425422

VIBRATIONAL FREQUENCIES
-----------------------

   0:         0.00 cm**-1
   1:         0.00 cm**-1
   2:         0.00 cm**-1
   3:         0.00 cm**-1
   4:         0.00 cm**-1
   5:         0.00 cm**-1
   6:        77.65 cm**-1
   7:       143.36 cm**-1
   8:       166.72 cm**-1
   9:       184.50 cm**-1
  10:       228.07 cm**-1
  11:       262.95 cm**-1
  12:       291.47 cm**-1
  13:       295.37 cm**-1
  14:       401.77 cm**-1
  15:       480.10 cm**-1
  16:       541.67 cm**-1
  17:       783.57 cm**-1
  18:       820.74 cm**-1
  19:       890.18 cm**-1
  20:       940.39 cm**-1
  21:       968.35 cm**-1
  22:      1008.01 cm**-1
  23:      1056.80 cm**-1
  24:      1069.47 cm**-1
  25:      1089.95 cm**-1
  26:      1126.87 cm**-1
  27:      1130.38 cm**-1
  28:      1178.64 cm**-1
  29:      1183.54 cm**-1
  30:      1193.95 cm**-1
  31:      1233.99 cm**-1
  32:      1255.74 cm**-1
  33:      1279.40 cm**-1
  34:      1343.58 cm**-1
  35:      1379.11 cm**-1
  36:      1421.06 cm**-1
  37:      1455.10 cm**-1
  38:      1472.37 cm**-1
  39:      1488.13 cm**-1
  40:      1511.82 cm**-1
  41:      1513.32 cm**-1
  42:      1517.70 cm**-1
  43:      1649.79 cm**-1
  44:      1658.88 cm**-1
  45:      2992.96 cm**-1
  46:      3032.99 cm**-1
  47:      3035.30 cm**-1
  48:      3108.68 cm**-1
  49:      3140.61 cm**-1
  50:      3142.98 cm**-1
  51:      3178.63 cm**-1
  52:      3207.44 cm**-1
  53:      3409.40 cm**-1
  54:      3484.88 cm**-1
  55:      3491.89 cm**-1
  56:      3865.75 cm**-1

IR SPECTRUM
-----------

 Mode    freq (cm**-1)   T**2         TX         TY         TZ
-------------------------------------------------------------------
   6:        77.65    0.249156  (  0.415049   0.249866  -0.120240)
   7:       143.36    1.697714  (  0.320384   0.482569   1.167131)
   8:       166.72    4.521559  (  1.734282  -0.696255  -1.014422)
   9:       184.50    6.383499  ( -2.334173   0.953371   0.161921)
  10:       228.07   26.842647  ( -5.035770  -1.093421  -0.536745)
  11:       262.95   47.919541  ( -3.957987  -5.276229  -2.101257)
  12:       291.47   66.955967  ( -7.037686  -4.041742  -1.044638)
  13:       295.37   14.156529  (  2.304398   0.828475  -2.856555)
  14:       401.77    8.844680  ( -0.384964  -0.838778  -2.827178)
  15:       480.10    0.672265  ( -0.513505   0.319637  -0.553543)
  16:       541.67   10.750998  (  2.352354  -0.485754  -2.231921)
  17:       783.57    7.302699  ( -0.825272   2.190739   1.349922)
  18:       820.74    5.680731  ( -1.926854  -0.710987  -1.209323)
  19:       890.18   38.025300  (  0.655494  -2.547854  -5.577102)
  20:       940.39   14.281620  ( -3.342958   1.750995  -0.200668)
  21:       968.35    8.782585  (  2.134307  -0.759046  -1.910803)
  22:      1008.01    2.941727  (  0.109700   1.568628   0.684909)
  23:      1056.80    3.932913  (  0.246407   0.616378   1.868763)
  24:      1069.47    1.787978  (  0.903534  -0.660820  -0.731383)
  25:      1089.95    5.972234  ( -2.288569   0.820654  -0.247414)
  26:      1126.87    6.488837  ( -2.201804  -0.277293   1.250601)
  27:      1130.38   83.764412  ( -3.324650   3.829328   7.618882)
  28:      1178.64    7.199490  (  1.796860  -0.181945  -1.984359)
  29:      1183.54   12.114586  ( -2.666371  -0.927574  -2.035843)
  30:      1193.95    4.112748  (  0.575978  -1.395622   1.353971)
  31:      1233.99    9.043172  ( -0.344425   1.747317   2.423102)
  32:      1255.74   43.977433  (  3.418999  -3.942065  -4.092432)
  33:      1279.40   14.639149  ( -0.892421   3.107262   2.046377)
  34:      1343.58    2.224272  ( -0.498995  -1.323994  -0.471505)
  35:      1379.11    4.227614  ( -0.784910   0.595172   1.804799)
  36:      1421.06    3.009652  ( -0.237235   1.622613   0.566126)
  37:      1455.10    5.368103  (  1.531797  -1.345639   1.100434)
  38:      1472.37   10.418531  (  2.859943  -0.794925  -1.267814)
  39:      1488.13   50.290909  ( -0.651646  -1.553300   6.888652)
  40:      1511.82    2.387869  (  0.649379  -1.341933  -0.406684)
  41:      1513.32  116.761592  (  6.413546   5.666153  -6.597176)
  42:      1517.70    2.477232  (  0.576356  -0.130840  -1.458741)
  43:      1649.79   31.419094  ( -3.680200  -2.776244  -3.188682)
  44:      1658.88   40.285106  (  3.631524  -5.198193  -0.275556)
  45:      2992.96   41.154737  (  1.835975  -5.799720  -2.036462)
  46:      3032.99   20.794133  (  2.395260   2.383107  -3.062297)
  47:      3035.30   29.668817  ( -5.224109  -0.826100  -1.301946)
  48:      3108.68   12.318798  ( -3.358476  -0.778955  -0.657773)
  49:      3140.61    4.544864  ( -0.950991  -1.341375   1.356906)
  50:      3142.98    1.516255  (  0.720033  -0.103972   0.993478)
  51:      3178.63    0.323654  (  0.088908  -0.539344  -0.157663)
  52:      3207.44    0.181487  ( -0.103562  -0.315341   0.267061)
  53:      3409.40   26.430592  ( -1.459634  -1.897124   4.549833)
  54:      3484.88  110.306362  (  4.674644  -8.454681  -4.119763)
  55:      3491.89   95.134510  ( -8.448503  -1.180652  -4.728992)
  56:      3865.75   84.711066  ( -0.303294   1.850582  -9.010795)

--------------------------
THERMOCHEMISTRY AT 298.15K
--------------------------

Temperature         ... 298.15 K
Pressure            ... 1.00 atm
Total Mass          ... 102.16 AMU

Throughout the following assumptions are being made:
  (1) The electronic state is orbitally nondegenerate
  (2) There are no thermally accessible electronically excited states
  (3) Hindered rotations indicated by low frequency modes) are not
      treated as such but are treated as vibrations and this may
      case some error
  (4) All equations used are the standard statistical mechanics
      equations for an ideal gas
  (5) All vibrations are strinctly harmonic

------------
INNER ENERGY
------------

The inner energy is: U= E(el) + E(ZPE) + E(vib) + E(rot) + E(trans)
    E(el)   - is the total energy from the electronic structure calculation
              = E(kin-el) + E(nuc-el) + E(el-el) + E(nuc-nuc)
    E(ZPE)  - the the zero temperature vibrational energy from the frequency calculation
    E(vib)  - the the finite temperature correction to E(ZPE) due to population
              of excietd vibrational states
    E(rot)  - is the rotational thermal energy
    E(trans)- is the translational thermal energy

Summary of contributions to the inner energy U:
Electronic energy                ...   -327.19591043 Eh
Zero point energy                ...      0.17493130 Eh     109.77 kcal/mol
Thermal vibrational correction   ...      0.00583636 Eh       3.66 kcal/mol
Thermal rotational correction    ...      0.00141627 Eh       0.89 kcal/mol
Thermal translational correction ...      0.00141627 Eh       0.89 kcal/mol
-----------------------------------------------------------------------
Total thermal energy                   -327.01231023 Eh

Summary of corrections to the electronic energy:
(perhaps to be used in another calculation)
Total thermal correction                  0.00866890 Eh       5.44 kcal/mol
Non-thermal (ZPE) correction              0.17493130 Eh     109.77 kcal/mol
-----------------------------------------------------------------------
Total correction                          0.18360020 Eh     115.21 kcal/mol

--------
ENTHALPY
--------

The enthalpy is H = U + kB*T
                kB is Boltzmann's constant
Total free energy                 ...   -327.01231023 Eh
Thermal Enthalpy correction       ...      0.00094421 Eh       0.59 kcal/mol
-----------------------------------------------------------------------
Total Enthalpy                    ...   -327.01136602 Eh

-------
ENTROPY
-------

The entropy contributions are T*S = T*(S(el)+S(vib)+S(rot)+S(trans)
     S(el)   - electronic entropy
     S(vib)  - vibrational entropy
     S(rot)  - rotational entropy
     S(trans)- translational entropy
The entropies will be listed as mutliplied by the temperature to get
units of energy

Electronic entropy                ...      0.00000000 Eh      0.00 kcal/mol
Vibrational entropy               ...      0.01031204 Eh      6.47 kcal/mol
Rotational entropy                ...      0.01224051 Eh      7.68 kcal/mol
Translational entropy             ...      0.01890147 Eh     11.86 kcal/mol
-----------------------------------------------------------------------
Final entropy term                ...      0.04145402 Eh     26.01 kcal/mol

CAUTION: The rotational entropy is not quite correctly treated here
         because it includes a symmetry number that is not yet correctly
         implemented in ORCA!
For a nonlinear molecule the correct rotational entropy is:
    S(rot) = R*(ln(qrot/sn)+1.5)
    R    = 8.31441 J/mol/K = 1.987191683e-3 kcal/mol/K
    qrot = 285721.8878552
    sn is the rotational symmetry number. We have assumed 3 here
       if it is different for your molecule then you should correct
       the printed rotational entropy by manually evaluating the equation
       as given above

For convenience we print out the resulting values for sn=1 - 12:
 sn= 1  qrot/sn=  285721.8879 T*S(rot)=     8.33 kcal/mol T*S(tot)=    26.66 kcal/mol
 sn= 2  qrot/sn=  142860.9439 T*S(rot)=     7.92 kcal/mol T*S(tot)=    26.25 kcal/mol
 sn= 3  qrot/sn=   95240.6293 T*S(rot)=     7.68 kcal/mol T*S(tot)=    26.01 kcal/mol
 sn= 4  qrot/sn=   71430.4720 T*S(rot)=     7.51 kcal/mol T*S(tot)=    25.84 kcal/mol
 sn= 5  qrot/sn=   57144.3776 T*S(rot)=     7.38 kcal/mol T*S(tot)=    25.71 kcal/mol
 sn= 6  qrot/sn=   47620.3146 T*S(rot)=     7.27 kcal/mol T*S(tot)=    25.60 kcal/mol
 sn= 7  qrot/sn=   40817.4126 T*S(rot)=     7.18 kcal/mol T*S(tot)=    25.51 kcal/mol
 sn= 8  qrot/sn=   35715.2360 T*S(rot)=     7.10 kcal/mol T*S(tot)=    25.43 kcal/mol
 sn= 9  qrot/sn=   31746.8764 T*S(rot)=     7.03 kcal/mol T*S(tot)=    25.36 kcal/mol
 sn=10  qrot/sn=   28572.1888 T*S(rot)=     6.97 kcal/mol T*S(tot)=    25.30 kcal/mol
 sn=11  qrot/sn=   25974.7171 T*S(rot)=     6.91 kcal/mol T*S(tot)=    25.24 kcal/mol
 sn=12  qrot/sn=   23810.1573 T*S(rot)=     6.86 kcal/mol T*S(tot)=    25.19 kcal/mol

-------------------
GIBBS FREE ENTHALPY
-------------------

The Gibbs free enthalpy is G = H - T*S

Total enthalpy                    ...   -327.01136602 Eh
Total entropy correction          ...     -0.04145402 Eh    -26.01 kcal/mol
-----------------------------------------------------------------------
Final Gibbs free enthalpy         ...   -327.05282004 Eh

For completeness - the Gibbs free enthalpy minus the electronic energy
G-E(el)                           ...      0.14309039 Eh     89.79 kcal/mol

                             ****ORCA TERMINATED NORMALLY****
TOTAL RUN TIME: 0 days 0 hours 35 minutes 43 seconds 311 msec
