                         Program Version 3.0.3 - RELEASE   -
|  1> ! NORI PBE0 def2-TZVP UseSym TightOPT Freq TightSCF Grid3 FinalGrid5 XYZFile
|  2> % pal
|  3>     nprocs 8
|  4> end
|  5> %method
|  6>     SymThresh 5.0e-2
|  7> end
|  8> % geom
|  9>     MaxIter 10
| 10> end
| 11> % maxcore 2000
| 12> % output
| 13>     printlevel mini
| 14>     print[ P_Basis ] 0
| 15>     print[ P_SCFInfo ] 1
| 16>     print[ P_SCFIterInfo ] 1
| 17>     print[ P_OrbEn ] 0
| 18>     print[ P_Cartesian ] 0
| 19> end
| 20> % elprop
| 21>     Dipole false
| 22> end
| 23> *xyz 1 1
| 24>  C        0.4270770322     0.0404431168    -0.7968335635
| 25>  C        1.7771383475     0.3296598536    -0.2000788263
| 26>  C        3.0157761570    -0.4553458315    -0.5445986713
| 27>  N        2.9167797655    -1.5325449167    -1.5578054765
| 28>  C        2.8841276531     1.0012301431    -0.9468443629
| 29>  C        2.7509693230     1.4255103228    -2.3819413743
| 30>  O        3.6098333314     1.8656446103    -0.1495450347
| 31>  H       -0.2135610786     0.9185909280    -0.6982602214
| 32>  H       -0.0655107201    -0.7830904222    -0.2753736639
| 33>  H        0.4509526863    -0.1958846939    -1.8651063011
| 34>  H        1.7499250786     0.5997192300     0.8510030251
| 35>  H        3.7210621697    -0.7146216339     0.2343557632
| 36>  H        2.1960048961    -1.3149948122    -2.2487814969
| 37>  H        2.6622220692    -2.4251957680    -1.1264649341
| 38>  H        3.7984509312    -1.6659769717    -2.0583447355
| 39>  H        3.7313556574     1.4860578224    -2.8632381381
| 40>  H        2.2974753184     2.4176511331    -2.4164457933
| 41>  H        2.1184265353     0.7698304663    -2.9847271149
| 42>  H        4.4406548466     2.0991374238    -0.5779490796
| 43> *
| 44>
| 45>                          ****END OF INPUT****
 Total Charge           Charge          ....    1
 Multiplicity           Mult            ....    1
 Number of Electrons    NEL             ....   56
FINAL SINGLE POINT ENERGY      -327.197568316332
FINAL SINGLE POINT ENERGY      -327.197569853811
FINAL SINGLE POINT ENERGY      -327.197571257941

CARTESIAN COORDINATES (ANGSTROEM)
---------------------------------
  C     -1.491880   -0.738199   -1.301451
  C     -0.576767   -0.881985   -0.116619
  C      0.891237   -0.546530   -0.160764
  N      1.458165    0.000999   -1.416246
  C     -0.066143    0.275989    0.678910
  C     -0.403231    1.700393    0.340517
  O      0.001054   -0.000720    2.031140
  H     -2.526763   -0.683596   -0.960321
  H     -1.413185   -1.601364   -1.966071
  H     -1.322726    0.166433   -1.893057
  H     -0.770875   -1.760698    0.490293
  H      1.603387   -1.186152    0.344143
  H      0.755095    0.538868   -1.927131
  H      1.774772   -0.748534   -2.037214
  H      2.253655    0.618235   -1.237818
  H      0.355984    2.383960    0.732005
  H     -1.357237    1.958354    0.803853
  H     -0.509044    1.892246   -0.729457
  H      0.536038    0.661813    2.481937

FINAL SINGLE POINT ENERGY      -327.197571779386
                    ***********************HURRAY********************
 Multiplicity           Mult            ....    1
 Number of Electrons    NEL             ....   56
 Basis Dimension        Dim             ....  289
FINAL SINGLE POINT ENERGY      -327.197572210886

VIBRATIONAL FREQUENCIES
-----------------------

   0:         0.00 cm**-1
   1:         0.00 cm**-1
   2:         0.00 cm**-1
   3:         0.00 cm**-1
   4:         0.00 cm**-1
   5:         0.00 cm**-1
   6:        77.98 cm**-1
   7:       161.77 cm**-1
   8:       167.46 cm**-1
   9:       201.74 cm**-1
  10:       226.03 cm**-1
  11:       268.11 cm**-1
  12:       289.64 cm**-1
  13:       333.17 cm**-1
  14:       407.84 cm**-1
  15:       470.79 cm**-1
  16:       482.77 cm**-1
  17:       539.03 cm**-1
  18:       715.01 cm**-1
  19:       804.25 cm**-1
  20:       805.86 cm**-1
  21:       923.52 cm**-1
  22:       977.28 cm**-1
  23:      1002.59 cm**-1
  24:      1021.40 cm**-1
  25:      1047.30 cm**-1
  26:      1074.13 cm**-1
  27:      1101.93 cm**-1
  28:      1126.29 cm**-1
  29:      1164.96 cm**-1
  30:      1193.33 cm**-1
  31:      1234.46 cm**-1
  32:      1301.65 cm**-1
  33:      1363.16 cm**-1
  34:      1368.43 cm**-1
  35:      1421.19 cm**-1
  36:      1425.09 cm**-1
  37:      1465.33 cm**-1
  38:      1470.36 cm**-1
  39:      1482.57 cm**-1
  40:      1489.53 cm**-1
  41:      1508.66 cm**-1
  42:      1528.37 cm**-1
  43:      1644.43 cm**-1
  44:      1659.24 cm**-1
  45:      3048.08 cm**-1
  46:      3053.41 cm**-1
  47:      3116.09 cm**-1
  48:      3123.66 cm**-1
  49:      3140.77 cm**-1
  50:      3141.95 cm**-1
  51:      3179.25 cm**-1
  52:      3215.36 cm**-1
  53:      3411.89 cm**-1
  54:      3484.60 cm**-1
  55:      3496.64 cm**-1
  56:      3826.81 cm**-1

IR SPECTRUM
-----------

 Mode    freq (cm**-1)   T**2         TX         TY         TZ
-------------------------------------------------------------------
   6:        77.98    2.034867  (  0.954502   0.915085   0.535174)
   7:       161.77    3.913745  ( -1.343389  -1.220260  -0.787412)
   8:       167.46    2.066746  ( -0.058691   1.164788   0.840577)
   9:       201.74    3.988150  ( -1.252999  -1.377103  -0.722309)
  10:       226.03    3.231260  ( -1.753718  -0.394318  -0.015754)
  11:       268.11    3.075909  (  1.747257   0.029448  -0.148782)
  12:       289.64    4.480079  (  2.073120  -0.388132  -0.177785)
  13:       333.17  101.528873  ( -7.916517   6.187671   0.755220)
  14:       407.84   23.848821  (  3.006348  -2.982408  -2.432269)
  15:       470.79   18.362340  ( -2.138517   2.232103   2.967626)
  16:       482.77    8.238348  ( -1.971976   0.302787   2.063487)
  17:       539.03    7.089245  (  1.924210   1.588484   0.929182)
  18:       715.01    0.728581  ( -0.151515   0.835343   0.088464)
  19:       804.25    4.883950  (  2.117759   0.627675  -0.071221)
  20:       805.86   29.966729  ( -4.826233   2.582615  -0.065553)
  21:       923.52   11.506438  (  1.573700   2.267080   1.972373)
  22:       977.28    4.932616  ( -0.881924  -0.005299   2.038332)
  23:      1002.59    5.285847  ( -1.252346  -1.286031  -1.436524)
  24:      1021.40    9.241177  ( -1.255993  -1.876494   2.035295)
  25:      1047.30   12.937804  ( -2.508567   2.545504  -0.406578)
  26:      1074.13   20.577599  ( -1.457200   1.380384  -4.068010)
  27:      1101.93   28.771544  ( -0.833491  -0.932919  -5.215985)
  28:      1126.29    9.825402  ( -2.212476   1.202024   1.866946)
  29:      1164.96    9.619519  (  1.289793  -0.666903   2.740655)
  30:      1193.33   26.389418  ( -2.545549  -1.427365   4.227555)
  31:      1234.46   77.356596  (  1.327846   0.563177  -8.676189)
  32:      1301.65   17.842015  (  0.109968  -1.875202  -3.783324)
  33:      1363.16   37.353164  (  0.958382  -1.468404   5.854781)
  34:      1368.43    6.142280  (  1.957174  -1.412063  -0.563762)
  35:      1421.19    2.626640  (  0.819483   0.593537  -1.266018)
  36:      1425.09   17.463724  (  1.764870  -2.620528   2.735286)
  37:      1465.33    4.283505  ( -1.486614  -1.253190  -0.709224)
  38:      1470.36    4.808513  (  1.577110   1.347310  -0.711332)
  39:      1482.57   16.193522  (  3.672964   0.286036  -1.618964)
  40:      1489.53   16.748234  ( -0.011137  -0.993099  -3.970121)
  41:      1508.66  120.509896  ( -3.821188  -4.628668   9.191510)
  42:      1528.37   14.987868  ( -1.808689  -3.198006   1.220358)
  43:      1644.43   44.098619  ( -1.204516  -5.785930  -3.028329)
  44:      1659.24   44.544941  (  5.780474  -2.557103   2.142961)
  45:      3048.08    3.338963  (  0.095884  -0.482834   1.759727)
  46:      3053.41   17.955999  (  1.366864   2.714391  -2.952925)
  47:      3116.09   17.459576  ( -1.741574  -3.598689  -1.214881)
  48:      3123.66   14.927604  ( -0.307394   0.413515  -3.829115)
  49:      3140.77    1.124387  (  0.280761   0.878699  -0.522923)
  50:      3141.95    3.895124  ( -0.581643   0.033461   1.885655)
  51:      3179.25    0.650376  (  0.473722   0.582340  -0.294692)
  52:      3215.36    1.744202  ( -0.375017   1.169273  -0.486173)
  53:      3411.89   26.620053  ( -3.190371  -0.002606   4.054822)
  54:      3484.60   85.004966  ( -0.557957   8.626141   3.206764)
  55:      3496.64   97.346264  ( -9.496373   0.151511  -2.672490)
  56:      3826.81   60.778830  (  3.124105   3.695603   6.112391)

--------------------------
THERMOCHEMISTRY AT 298.15K
--------------------------

Temperature         ... 298.15 K
Pressure            ... 1.00 atm
Total Mass          ... 102.16 AMU

Throughout the following assumptions are being made:
  (1) The electronic state is orbitally nondegenerate
  (2) There are no thermally accessible electronically excited states
  (3) Hindered rotations indicated by low frequency modes) are not
      treated as such but are treated as vibrations and this may
      case some error
  (4) All equations used are the standard statistical mechanics
      equations for an ideal gas
  (5) All vibrations are strinctly harmonic

------------
INNER ENERGY
------------

The inner energy is: U= E(el) + E(ZPE) + E(vib) + E(rot) + E(trans)
    E(el)   - is the total energy from the electronic structure calculation
              = E(kin-el) + E(nuc-el) + E(el-el) + E(nuc-nuc)
    E(ZPE)  - the the zero temperature vibrational energy from the frequency calculation
    E(vib)  - the the finite temperature correction to E(ZPE) due to population
              of excietd vibrational states
    E(rot)  - is the rotational thermal energy
    E(trans)- is the translational thermal energy

Summary of contributions to the inner energy U:
Electronic energy                ...   -327.19757221 Eh
Zero point energy                ...      0.17356260 Eh     108.91 kcal/mol
Thermal vibrational correction   ...      0.00600615 Eh       3.77 kcal/mol
Thermal rotational correction    ...      0.00141627 Eh       0.89 kcal/mol
Thermal translational correction ...      0.00141627 Eh       0.89 kcal/mol
-----------------------------------------------------------------------
Total thermal energy                   -327.01517092 Eh

Summary of corrections to the electronic energy:
(perhaps to be used in another calculation)
Total thermal correction                  0.00883869 Eh       5.55 kcal/mol
Non-thermal (ZPE) correction              0.17356260 Eh     108.91 kcal/mol
-----------------------------------------------------------------------
Total correction                          0.18240129 Eh     114.46 kcal/mol

--------
ENTHALPY
--------

The enthalpy is H = U + kB*T
                kB is Boltzmann's constant
Total free energy                 ...   -327.01517092 Eh
Thermal Enthalpy correction       ...      0.00094421 Eh       0.59 kcal/mol
-----------------------------------------------------------------------
Total Enthalpy                    ...   -327.01422671 Eh

-------
ENTROPY
-------

The entropy contributions are T*S = T*(S(el)+S(vib)+S(rot)+S(trans)
     S(el)   - electronic entropy
     S(vib)  - vibrational entropy
     S(rot)  - rotational entropy
     S(trans)- translational entropy
The entropies will be listed as mutliplied by the temperature to get
units of energy

Electronic entropy                ...      0.00000000 Eh      0.00 kcal/mol
Vibrational entropy               ...      0.01041092 Eh      6.53 kcal/mol
Rotational entropy                ...      0.01205500 Eh      7.56 kcal/mol
Translational entropy             ...      0.01890147 Eh     11.86 kcal/mol
-----------------------------------------------------------------------
Final entropy term                ...      0.04136739 Eh     25.96 kcal/mol

CAUTION: The rotational entropy is not quite correctly treated here
         because it includes a symmetry number that is not yet correctly
         implemented in ORCA!
For a nonlinear molecule the correct rotational entropy is:
    S(rot) = R*(ln(qrot/sn)+1.5)
    R    = 8.31441 J/mol/K = 1.987191683e-3 kcal/mol/K
    qrot = 234754.3226492
    sn is the rotational symmetry number. We have assumed 3 here
       if it is different for your molecule then you should correct
       the printed rotational entropy by manually evaluating the equation
       as given above

For convenience we print out the resulting values for sn=1 - 12:
 sn= 1  qrot/sn=  234754.3226 T*S(rot)=     8.22 kcal/mol T*S(tot)=    26.61 kcal/mol
 sn= 2  qrot/sn=  117377.1613 T*S(rot)=     7.80 kcal/mol T*S(tot)=    26.20 kcal/mol
 sn= 3  qrot/sn=   78251.4409 T*S(rot)=     7.56 kcal/mol T*S(tot)=    25.96 kcal/mol
 sn= 4  qrot/sn=   58688.5807 T*S(rot)=     7.39 kcal/mol T*S(tot)=    25.79 kcal/mol
 sn= 5  qrot/sn=   46950.8645 T*S(rot)=     7.26 kcal/mol T*S(tot)=    25.66 kcal/mol
 sn= 6  qrot/sn=   39125.7204 T*S(rot)=     7.15 kcal/mol T*S(tot)=    25.55 kcal/mol
 sn= 7  qrot/sn=   33536.3318 T*S(rot)=     7.06 kcal/mol T*S(tot)=    25.46 kcal/mol
 sn= 8  qrot/sn=   29344.2903 T*S(rot)=     6.98 kcal/mol T*S(tot)=    25.38 kcal/mol
 sn= 9  qrot/sn=   26083.8136 T*S(rot)=     6.91 kcal/mol T*S(tot)=    25.31 kcal/mol
 sn=10  qrot/sn=   23475.4323 T*S(rot)=     6.85 kcal/mol T*S(tot)=    25.25 kcal/mol
 sn=11  qrot/sn=   21341.3021 T*S(rot)=     6.79 kcal/mol T*S(tot)=    25.19 kcal/mol
 sn=12  qrot/sn=   19562.8602 T*S(rot)=     6.74 kcal/mol T*S(tot)=    25.14 kcal/mol

-------------------
GIBBS FREE ENTHALPY
-------------------

The Gibbs free enthalpy is G = H - T*S

Total enthalpy                    ...   -327.01422671 Eh
Total entropy correction          ...     -0.04136739 Eh    -25.96 kcal/mol
-----------------------------------------------------------------------
Final Gibbs free enthalpy         ...   -327.05559410 Eh

For completeness - the Gibbs free enthalpy minus the electronic energy
G-E(el)                           ...      0.14197811 Eh     89.09 kcal/mol

                             ****ORCA TERMINATED NORMALLY****
TOTAL RUN TIME: 0 days 0 hours 41 minutes 18 seconds 84 msec
