                         Program Version 3.0.3 - RELEASE   -
|  1> ! NORI PBE0 def2-TZVP UseSym TightOPT Freq TightSCF Grid3 FinalGrid5 XYZFile
|  2> % pal
|  3>     nprocs 8
|  4> end
|  5> %method
|  6>     SymThresh 5.0e-2
|  7> end
|  8> % geom
|  9>     MaxIter 10
| 10> end
| 11> % maxcore 2000
| 12> % output
| 13>     printlevel mini
| 14>     print[ P_Basis ] 0
| 15>     print[ P_SCFInfo ] 1
| 16>     print[ P_SCFIterInfo ] 1
| 17>     print[ P_OrbEn ] 0
| 18>     print[ P_Cartesian ] 0
| 19> end
| 20> % elprop
| 21>     Dipole false
| 22> end
| 23> *xyz 1 1
| 24>  C        0.8495914966    -0.1555303245     0.0768803509
| 25>  C        2.3506859756    -0.0989946514    -0.0224474937
| 26>  C        3.1077874231     1.0096197409     0.7261874403
| 27>  N        4.1423794601    -0.0067221337     1.1763962700
| 28>  C        3.1732204650    -1.1164634312     0.8102143962
| 29>  C        3.7623861473    -2.3023437253     0.0801694834
| 30>  O        3.1127675935    -3.2816264749    -0.1057441594
| 31>  H        0.3981375631     0.6772238737    -0.4659977323
| 32>  H        0.5176982239    -0.1093184306     1.1170811302
| 33>  H        0.4710665645    -1.0802264265    -0.3625795121
| 34>  H        2.6717422051    -0.1327037147    -1.0684335102
| 35>  H        2.5787030135     1.3755899498     1.6054629439
| 36>  H        3.5416514715     1.8377690238     0.1691508787
| 37>  H        4.4498194447     0.0394728640     2.1475250062
| 38>  H        4.9726483431    -0.0075428595     0.5805306718
| 39>  H        2.6482350093    -1.4388639625     1.7107730810
| 40>  H        4.7979596001    -2.1867493174    -0.3143192449
| 41> *
| 42>
| 43>                          ****END OF INPUT****
 Total Charge           Charge          ....    1
 Multiplicity           Mult            ....    1
 Number of Electrons    NEL             ....   54
FINAL SINGLE POINT ENERGY      -325.978689134562
FINAL SINGLE POINT ENERGY      -325.978687299855
FINAL SINGLE POINT ENERGY      -325.978691980860

CARTESIAN COORDINATES (ANGSTROEM)
---------------------------------
  C     -2.044222    0.439639   -0.764722
  C     -0.727714   -0.287573   -0.694557
  C      0.250322   -0.182222   -1.875646
  N      1.400789   -0.001112   -0.901180
  C      0.393645    0.319854    0.188426
  C      0.644549   -0.317555    1.536109
  O     -0.002884   -0.004235    2.483651
  H     -2.701512   -0.029753   -1.499029
  H     -1.907701    1.487040   -1.044335
  H     -2.551100    0.406416    0.201148
  H     -0.880398   -1.337788   -0.426588
  H      0.137420    0.736665   -2.449857
  H      0.388306   -1.033077   -2.539369
  H      2.089885    0.717041   -1.122256
  H      1.899461   -0.874379   -0.719690
  H      0.309137    1.403343    0.283598
  H      1.417920   -1.118001    1.577515

FINAL SINGLE POINT ENERGY      -325.978692646267
                    ***********************HURRAY********************
 Multiplicity           Mult            ....    1
 Number of Electrons    NEL             ....   54
 Basis Dimension        Dim             ....  277
FINAL SINGLE POINT ENERGY      -325.978693894264

VIBRATIONAL FREQUENCIES
-----------------------

   0:         0.00 cm**-1
   1:         0.00 cm**-1
   2:         0.00 cm**-1
   3:         0.00 cm**-1
   4:         0.00 cm**-1
   5:         0.00 cm**-1
   6:        46.58 cm**-1
   7:        96.91 cm**-1
   8:       182.05 cm**-1
   9:       231.35 cm**-1
  10:       269.12 cm**-1
  11:       332.26 cm**-1
  12:       440.62 cm**-1
  13:       465.99 cm**-1
  14:       664.93 cm**-1
  15:       787.96 cm**-1
  16:       851.14 cm**-1
  17:       893.32 cm**-1
  18:       908.69 cm**-1
  19:       927.67 cm**-1
  20:       951.45 cm**-1
  21:       987.07 cm**-1
  22:      1065.33 cm**-1
  23:      1096.91 cm**-1
  24:      1136.68 cm**-1
  25:      1169.52 cm**-1
  26:      1171.51 cm**-1
  27:      1244.25 cm**-1
  28:      1265.99 cm**-1
  29:      1291.66 cm**-1
  30:      1307.77 cm**-1
  31:      1326.32 cm**-1
  32:      1362.23 cm**-1
  33:      1392.86 cm**-1
  34:      1412.91 cm**-1
  35:      1420.70 cm**-1
  36:      1482.24 cm**-1
  37:      1488.54 cm**-1
  38:      1495.72 cm**-1
  39:      1643.54 cm**-1
  40:      1869.94 cm**-1
  41:      2887.94 cm**-1
  42:      3059.05 cm**-1
  43:      3073.23 cm**-1
  44:      3116.52 cm**-1
  45:      3130.61 cm**-1
  46:      3140.31 cm**-1
  47:      3147.56 cm**-1
  48:      3190.34 cm**-1
  49:      3444.05 cm**-1
  50:      3518.70 cm**-1

IR SPECTRUM
-----------

 Mode    freq (cm**-1)   T**2         TX         TY         TZ
-------------------------------------------------------------------
   6:        46.58    9.907246  (  2.476815   1.820068   0.678222)
   7:        96.91    5.566732  (  1.192316  -2.028373   0.175546)
   8:       182.05    0.484908  (  0.602049  -0.212637  -0.277904)
   9:       231.35    0.602006  (  0.663699  -0.240206  -0.322196)
  10:       269.12    0.633115  ( -0.734645  -0.177732  -0.248643)
  11:       332.26    2.594942  ( -1.201011   1.072880   0.038000)
  12:       440.62    4.283600  ( -1.941307   0.714067  -0.070972)
  13:       465.99    7.911525  ( -0.964818   0.538683  -2.586594)
  14:       664.93   13.042763  (  0.528085  -2.751922   2.278336)
  15:       787.96    6.951784  ( -0.682391   1.510798  -2.050272)
  16:       851.14   10.683691  ( -1.043774  -1.062236  -2.909619)
  17:       893.32   16.572464  (  0.135322   1.655148  -3.716805)
  18:       908.69    3.788362  ( -1.517469  -0.798145  -0.921203)
  19:       927.67    4.067196  (  1.291350   0.850285  -1.294847)
  20:       951.45    4.356058  (  0.914718   1.106620   1.514840)
  21:       987.07    8.856668  (  2.094038   1.318668  -1.653115)
  22:      1065.33    5.357702  ( -1.736821   0.972087  -1.181610)
  23:      1096.91   48.761484  (  1.926150  -1.207479   6.602532)
  24:      1136.68    0.470074  (  0.056099  -0.652993  -0.201313)
  25:      1169.52    0.114936  (  0.159434  -0.178308   0.240256)
  26:      1171.51    1.001229  (  0.309139  -0.782013   0.542326)
  27:      1244.25   19.595412  ( -0.889311  -0.807290  -4.260613)
  28:      1265.99   20.422194  ( -0.428542   0.309612   4.488060)
  29:      1291.66   28.836680  ( -0.150280   1.346912   5.196145)
  30:      1307.77   14.657961  ( -0.596809   2.519247   2.820492)
  31:      1326.32    1.596134  (  0.948485   0.468693   0.690534)
  32:      1362.23    9.559638  (  0.599064  -0.776488  -2.932205)
  33:      1392.86    4.801547  ( -1.412029   0.089354  -1.673241)
  34:      1412.91    3.844552  (  0.576238  -0.074366   1.872691)
  35:      1420.70    8.830487  ( -2.544387   1.534964  -0.021652)
  36:      1482.24    9.257929  ( -0.271462   0.420964   3.001171)
  37:      1488.54    9.974016  (  1.866391   2.543161   0.151428)
  38:      1495.72   14.865028  (  1.561722   2.337515  -2.638575)
  39:      1643.54   61.726466  ( -7.675397   1.584014   0.552859)
  40:      1869.94  137.024518  ( -3.731846   2.370408  10.838774)
  41:      2887.94   58.534590  (  5.885997  -4.882295  -0.229843)
  42:      3059.05    1.611169  ( -0.055616   1.107278  -0.618070)
  43:      3073.23    3.448847  (  0.945185  -1.573835   0.280205)
  44:      3116.52    0.775236  (  0.173287   0.365871  -0.781886)
  45:      3130.61    1.274762  (  0.202733  -1.110700  -0.002739)
  46:      3140.31    4.743709  ( -0.620834  -2.071936   0.255649)
  47:      3147.56    0.740715  (  0.262589  -0.181170   0.799337)
  48:      3190.34    0.517584  ( -0.029797   0.215699  -0.685689)
  49:      3444.05   56.619152  (  7.287508  -1.866278   0.168465)
  50:      3518.70   89.305925  ( -3.237658  -8.350441   3.015565)

--------------------------
THERMOCHEMISTRY AT 298.15K
--------------------------

Temperature         ... 298.15 K
Pressure            ... 1.00 atm
Total Mass          ... 100.14 AMU

Throughout the following assumptions are being made:
  (1) The electronic state is orbitally nondegenerate
  (2) There are no thermally accessible electronically excited states
  (3) Hindered rotations indicated by low frequency modes) are not
      treated as such but are treated as vibrations and this may
      case some error
  (4) All equations used are the standard statistical mechanics
      equations for an ideal gas
  (5) All vibrations are strinctly harmonic

------------
INNER ENERGY
------------

The inner energy is: U= E(el) + E(ZPE) + E(vib) + E(rot) + E(trans)
    E(el)   - is the total energy from the electronic structure calculation
              = E(kin-el) + E(nuc-el) + E(el-el) + E(nuc-nuc)
    E(ZPE)  - the the zero temperature vibrational energy from the frequency calculation
    E(vib)  - the the finite temperature correction to E(ZPE) due to population
              of excietd vibrational states
    E(rot)  - is the rotational thermal energy
    E(trans)- is the translational thermal energy

Summary of contributions to the inner energy U:
Electronic energy                ...   -325.97869389 Eh
Zero point energy                ...      0.15124769 Eh      94.91 kcal/mol
Thermal vibrational correction   ...      0.00478503 Eh       3.00 kcal/mol
Thermal rotational correction    ...      0.00141627 Eh       0.89 kcal/mol
Thermal translational correction ...      0.00141627 Eh       0.89 kcal/mol
-----------------------------------------------------------------------
Total thermal energy                   -325.81982862 Eh

Summary of corrections to the electronic energy:
(perhaps to be used in another calculation)
Total thermal correction                  0.00761758 Eh       4.78 kcal/mol
Non-thermal (ZPE) correction              0.15124769 Eh      94.91 kcal/mol
-----------------------------------------------------------------------
Total correction                          0.15886527 Eh      99.69 kcal/mol

--------
ENTHALPY
--------

The enthalpy is H = U + kB*T
                kB is Boltzmann's constant
Total free energy                 ...   -325.81982862 Eh
Thermal Enthalpy correction       ...      0.00094421 Eh       0.59 kcal/mol
-----------------------------------------------------------------------
Total Enthalpy                    ...   -325.81888441 Eh

-------
ENTROPY
-------

The entropy contributions are T*S = T*(S(el)+S(vib)+S(rot)+S(trans)
     S(el)   - electronic entropy
     S(vib)  - vibrational entropy
     S(rot)  - rotational entropy
     S(trans)- translational entropy
The entropies will be listed as mutliplied by the temperature to get
units of energy

Electronic entropy                ...      0.00000000 Eh      0.00 kcal/mol
Vibrational entropy               ...      0.00901444 Eh      5.66 kcal/mol
Rotational entropy                ...      0.01210233 Eh      7.59 kcal/mol
Translational entropy             ...      0.01887324 Eh     11.84 kcal/mol
-----------------------------------------------------------------------
Final entropy term                ...      0.03999001 Eh     25.09 kcal/mol

CAUTION: The rotational entropy is not quite correctly treated here
         because it includes a symmetry number that is not yet correctly
         implemented in ORCA!
For a nonlinear molecule the correct rotational entropy is:
    S(rot) = R*(ln(qrot/sn)+1.5)
    R    = 8.31441 J/mol/K = 1.987191683e-3 kcal/mol/K
    qrot = 246821.4451538
    sn is the rotational symmetry number. We have assumed 3 here
       if it is different for your molecule then you should correct
       the printed rotational entropy by manually evaluating the equation
       as given above

For convenience we print out the resulting values for sn=1 - 12:
 sn= 1  qrot/sn=  246821.4452 T*S(rot)=     8.25 kcal/mol T*S(tot)=    25.74 kcal/mol
 sn= 2  qrot/sn=  123410.7226 T*S(rot)=     7.83 kcal/mol T*S(tot)=    25.33 kcal/mol
 sn= 3  qrot/sn=   82273.8151 T*S(rot)=     7.59 kcal/mol T*S(tot)=    25.09 kcal/mol
 sn= 4  qrot/sn=   61705.3613 T*S(rot)=     7.42 kcal/mol T*S(tot)=    24.92 kcal/mol
 sn= 5  qrot/sn=   49364.2890 T*S(rot)=     7.29 kcal/mol T*S(tot)=    24.79 kcal/mol
 sn= 6  qrot/sn=   41136.9075 T*S(rot)=     7.18 kcal/mol T*S(tot)=    24.68 kcal/mol
 sn= 7  qrot/sn=   35260.2065 T*S(rot)=     7.09 kcal/mol T*S(tot)=    24.59 kcal/mol
 sn= 8  qrot/sn=   30852.6806 T*S(rot)=     7.01 kcal/mol T*S(tot)=    24.51 kcal/mol
 sn= 9  qrot/sn=   27424.6050 T*S(rot)=     6.94 kcal/mol T*S(tot)=    24.44 kcal/mol
 sn=10  qrot/sn=   24682.1445 T*S(rot)=     6.88 kcal/mol T*S(tot)=    24.38 kcal/mol
 sn=11  qrot/sn=   22438.3132 T*S(rot)=     6.82 kcal/mol T*S(tot)=    24.32 kcal/mol
 sn=12  qrot/sn=   20568.4538 T*S(rot)=     6.77 kcal/mol T*S(tot)=    24.27 kcal/mol

-------------------
GIBBS FREE ENTHALPY
-------------------

The Gibbs free enthalpy is G = H - T*S

Total enthalpy                    ...   -325.81888441 Eh
Total entropy correction          ...     -0.03999001 Eh    -25.09 kcal/mol
-----------------------------------------------------------------------
Final Gibbs free enthalpy         ...   -325.85887443 Eh

For completeness - the Gibbs free enthalpy minus the electronic energy
G-E(el)                           ...      0.11981947 Eh     75.19 kcal/mol

                             ****ORCA TERMINATED NORMALLY****
TOTAL RUN TIME: 0 days 0 hours 38 minutes 35 seconds 995 msec
