                         Program Version 3.0.3 - RELEASE   -
|  1> ! NORI PBE0 def2-TZVP UseSym TightOPT Freq TightSCF Grid3 FinalGrid5 XYZFile
|  2> % pal
|  3>     nprocs 8
|  4> end
|  5> %method
|  6>     SymThresh 5.0e-2
|  7> end
|  8> % geom
|  9>     MaxIter 10
| 10> end
| 11> % maxcore 2000
| 12> % output
| 13>     printlevel mini
| 14>     print[ P_Basis ] 0
| 15>     print[ P_SCFInfo ] 1
| 16>     print[ P_SCFIterInfo ] 1
| 17>     print[ P_OrbEn ] 0
| 18>     print[ P_Cartesian ] 0
| 19> end
| 20> % elprop
| 21>     Dipole false
| 22> end
| 23> *xyz 1 1
| 24>  C        1.1153424764     0.0184256424    -0.2361800076
| 25>  C        2.6119951639     0.0471333155    -0.0014961337
| 26>  C        3.0625372692     1.1678759114     0.9127884339
| 27>  N        4.4317767019     0.7279531294     1.4144024964
| 28>  C        4.5651404717    -0.7557922994     1.1550283278
| 29>  C        3.1649439907    -1.1935597091     0.7045333742
| 30>  O        3.1711387324    -2.3706572681    -0.0266523777
| 31>  H        0.8481093651    -0.8515556048    -0.8373810028
| 32>  H        0.7743321060     0.9094505829    -0.7662684277
| 33>  H        0.5715266709    -0.0469086403     0.7095489042
| 34>  H        3.1325134536     0.1452611758    -0.9653141230
| 35>  H        2.4138721722     1.2539830711     1.7854323827
| 36>  H        3.1547949478     2.1452340069     0.4427090833
| 37>  H        4.5353993111     0.9412301040     2.4050716741
| 38>  H        5.1694368387     1.2400769912     0.9342540287
| 39>  H        5.2897831138    -0.8964554790     0.3524067720
| 40>  H        4.9280129080    -1.2533091954     2.0520260446
| 41>  H        2.5503094157    -1.4012959546     1.5882890309
| 42>  H        3.5309148907    -2.2253697799    -0.9085284804
| 43> *
| 44>
| 45>                          ****END OF INPUT****
 Total Charge           Charge          ....    1
 Multiplicity           Mult            ....    1
 Number of Electrons    NEL             ....   56
FINAL SINGLE POINT ENERGY      -327.230325488281
FINAL SINGLE POINT ENERGY      -327.230326639546

CARTESIAN COORDINATES (ANGSTROEM)
---------------------------------
  C     -2.234885   -0.001527   -0.136029
  C     -0.770332   -0.378346   -0.232570
  C     -0.137526   -0.025832   -1.563226
  N      1.359530   -0.001220   -1.282122
  C      1.547567    0.096369    0.215188
  C      0.136703    0.350559    0.762609
  O     -0.001143    0.001443    2.096369
  H     -2.607821   -0.207470    0.867817
  H     -2.842844   -0.568519   -0.842603
  H     -2.379903    1.063514   -0.335337
  H     -0.657225   -1.458903   -0.061141
  H     -0.419849    0.978177   -1.883946
  H     -0.334397   -0.724573   -2.374379
  H      1.800603    0.781377   -1.762546
  H      1.805162   -0.843295   -1.642559
  H      1.933235   -0.858818    0.571892
  H      2.269517    0.877701    0.443007
  H     -0.080486    1.423889    0.717215
  H     -0.009032   -0.956143    2.201980

FINAL SINGLE POINT ENERGY      -327.230327509786
                    ***********************HURRAY********************
 Multiplicity           Mult            ....    1
 Number of Electrons    NEL             ....   56
 Basis Dimension        Dim             ....  289
FINAL SINGLE POINT ENERGY      -327.230327969819

VIBRATIONAL FREQUENCIES
-----------------------

   0:         0.00 cm**-1
   1:         0.00 cm**-1
   2:         0.00 cm**-1
   3:         0.00 cm**-1
   4:         0.00 cm**-1
   5:         0.00 cm**-1
   6:        63.93 cm**-1
   7:       143.48 cm**-1
   8:       214.30 cm**-1
   9:       243.97 cm**-1
  10:       292.86 cm**-1
  11:       346.73 cm**-1
  12:       394.55 cm**-1
  13:       516.03 cm**-1
  14:       542.43 cm**-1
  15:       627.54 cm**-1
  16:       798.85 cm**-1
  17:       811.78 cm**-1
  18:       878.49 cm**-1
  19:       921.81 cm**-1
  20:       938.34 cm**-1
  21:       965.09 cm**-1
  22:       977.35 cm**-1
  23:      1044.02 cm**-1
  24:      1099.16 cm**-1
  25:      1131.78 cm**-1
  26:      1152.79 cm**-1
  27:      1186.67 cm**-1
  28:      1198.19 cm**-1
  29:      1247.95 cm**-1
  30:      1292.58 cm**-1
  31:      1313.83 cm**-1
  32:      1326.03 cm**-1
  33:      1348.41 cm**-1
  34:      1358.17 cm**-1
  35:      1369.08 cm**-1
  36:      1389.84 cm**-1
  37:      1404.11 cm**-1
  38:      1419.16 cm**-1
  39:      1437.27 cm**-1
  40:      1486.92 cm**-1
  41:      1491.60 cm**-1
  42:      1494.98 cm**-1
  43:      1500.23 cm**-1
  44:      1657.86 cm**-1
  45:      3012.75 cm**-1
  46:      3059.68 cm**-1
  47:      3062.52 cm**-1
  48:      3103.18 cm**-1
  49:      3111.62 cm**-1
  50:      3137.56 cm**-1
  51:      3153.24 cm**-1
  52:      3170.86 cm**-1
  53:      3180.77 cm**-1
  54:      3480.95 cm**-1
  55:      3533.13 cm**-1
  56:      3826.91 cm**-1

IR SPECTRUM
-----------

 Mode    freq (cm**-1)   T**2         TX         TY         TZ
-------------------------------------------------------------------
   6:        63.93    2.902507  ( -0.207014   1.664014   0.301181)
   7:       143.48    1.738314  (  0.003177  -1.096782   0.731692)
   8:       214.30    0.810644  ( -0.820322  -0.364085  -0.071820)
   9:       243.97    5.048631  ( -2.186058  -0.083616  -0.512631)
  10:       292.86   86.632724  ( -8.920602   0.181936  -2.649997)
  11:       346.73   29.084449  ( -5.368795  -0.469178   0.200915)
  12:       394.55    7.760901  (  2.705699   0.150501  -0.646097)
  13:       516.03    1.391259  ( -0.854010   0.627800  -0.517487)
  14:       542.43    1.965550  (  0.194467   1.112808   0.830296)
  15:       627.54    2.399798  (  0.483090   0.536574  -1.370588)
  16:       798.85    1.134333  (  0.226804   0.825327   0.633820)
  17:       811.78    9.481618  ( -0.504793  -2.974408   0.616198)
  18:       878.49    5.499081  (  2.252373  -0.627763  -0.178360)
  19:       921.81    9.406746  (  1.462840   1.646973  -2.134086)
  20:       938.34    4.527002  (  2.093167   0.326938   0.196890)
  21:       965.09    8.880447  (  1.982154   0.626033   2.135321)
  22:       977.35    0.271013  (  0.219071  -0.459577  -0.108676)
  23:      1044.02   10.268330  (  1.119895   0.105983   3.000489)
  24:      1099.16    3.773247  (  0.641213   0.301512  -1.808641)
  25:      1131.78   63.417947  (  1.741381   1.107918  -7.691428)
  26:      1152.79   29.452836  (  1.492177  -0.475891   5.196131)
  27:      1186.67    6.536260  (  1.029672   0.467593  -2.292900)
  28:      1198.19   51.171602  ( -0.980076  -1.440684   6.937974)
  29:      1247.95    6.066460  ( -1.927431   1.527073  -0.139699)
  30:      1292.58    8.580243  ( -1.562847   0.269548  -2.462741)
  31:      1313.83    1.200107  ( -0.793396  -0.742366   0.139718)
  32:      1326.03    1.414812  (  0.793153   0.200649  -0.863401)
  33:      1348.41    0.779860  ( -0.033656   0.271342  -0.839703)
  34:      1358.17   22.835240  ( -3.569181  -0.629580  -3.114452)
  35:      1369.08   23.906286  (  2.765579   0.618722   3.984350)
  36:      1389.84    2.895803  (  0.719190   1.033860  -1.144422)
  37:      1404.11    1.879424  (  0.593768   0.180717   1.222376)
  38:      1419.16    7.423447  ( -1.686741   0.796525   1.985926)
  39:      1437.27   27.404358  ( -0.039864  -1.151867   5.106464)
  40:      1486.92    8.671949  ( -0.472892  -0.086173   2.905322)
  41:      1491.60   14.542110  ( -2.440123  -1.912100  -2.220761)
  42:      1494.98   15.415681  (  1.976316  -2.996076   1.591660)
  43:      1500.23   13.955542  ( -0.841042  -1.958910   3.067713)
  44:      1657.86   66.048105  ( -5.891710   0.521567   5.573493)
  45:      3012.75    8.416323  (  1.489354  -2.409206   0.627595)
  46:      3059.68    1.507475  ( -1.194175  -0.253397   0.131187)
  47:      3062.52   13.778973  ( -1.447846   2.987458  -1.660666)
  48:      3103.18    2.682705  ( -0.287793   1.150262  -1.129946)
  49:      3111.62    1.833328  ( -0.485380   1.055557  -0.695366)
  50:      3137.56    7.983267  (  0.951990   2.659837   0.047442)
  51:      3153.24    2.090267  (  0.377859  -0.032501   1.395146)
  52:      3170.86    0.294893  (  0.009570  -0.497137  -0.218303)
  53:      3180.77    0.271541  (  0.280697   0.309434  -0.311449)
  54:      3480.95   75.736051  ( -6.361675   0.187110   5.935497)
  55:      3533.13   85.001772  (  0.087128  -9.199526   0.602416)
  56:      3826.91   49.733224  (  0.653535   5.594802  -4.243148)

--------------------------
THERMOCHEMISTRY AT 298.15K
--------------------------

Temperature         ... 298.15 K
Pressure            ... 1.00 atm
Total Mass          ... 102.16 AMU

Throughout the following assumptions are being made:
  (1) The electronic state is orbitally nondegenerate
  (2) There are no thermally accessible electronically excited states
  (3) Hindered rotations indicated by low frequency modes) are not
      treated as such but are treated as vibrations and this may
      case some error
  (4) All equations used are the standard statistical mechanics
      equations for an ideal gas
  (5) All vibrations are strinctly harmonic

------------
INNER ENERGY
------------

The inner energy is: U= E(el) + E(ZPE) + E(vib) + E(rot) + E(trans)
    E(el)   - is the total energy from the electronic structure calculation
              = E(kin-el) + E(nuc-el) + E(el-el) + E(nuc-nuc)
    E(ZPE)  - the the zero temperature vibrational energy from the frequency calculation
    E(vib)  - the the finite temperature correction to E(ZPE) due to population
              of excietd vibrational states
    E(rot)  - is the rotational thermal energy
    E(trans)- is the translational thermal energy

Summary of contributions to the inner energy U:
Electronic energy                ...   -327.23032797 Eh
Zero point energy                ...      0.17738116 Eh     111.31 kcal/mol
Thermal vibrational correction   ...      0.00480343 Eh       3.01 kcal/mol
Thermal rotational correction    ...      0.00141627 Eh       0.89 kcal/mol
Thermal translational correction ...      0.00141627 Eh       0.89 kcal/mol
-----------------------------------------------------------------------
Total thermal energy                   -327.04531084 Eh

Summary of corrections to the electronic energy:
(perhaps to be used in another calculation)
Total thermal correction                  0.00763597 Eh       4.79 kcal/mol
Non-thermal (ZPE) correction              0.17738116 Eh     111.31 kcal/mol
-----------------------------------------------------------------------
Total correction                          0.18501713 Eh     116.10 kcal/mol

--------
ENTHALPY
--------

The enthalpy is H = U + kB*T
                kB is Boltzmann's constant
Total free energy                 ...   -327.04531084 Eh
Thermal Enthalpy correction       ...      0.00094421 Eh       0.59 kcal/mol
-----------------------------------------------------------------------
Total Enthalpy                    ...   -327.04436663 Eh

-------
ENTROPY
-------

The entropy contributions are T*S = T*(S(el)+S(vib)+S(rot)+S(trans)
     S(el)   - electronic entropy
     S(vib)  - vibrational entropy
     S(rot)  - rotational entropy
     S(trans)- translational entropy
The entropies will be listed as mutliplied by the temperature to get
units of energy

Electronic entropy                ...      0.00000000 Eh      0.00 kcal/mol
Vibrational entropy               ...      0.00842019 Eh      5.28 kcal/mol
Rotational entropy                ...      0.01203553 Eh      7.55 kcal/mol
Translational entropy             ...      0.01890147 Eh     11.86 kcal/mol
-----------------------------------------------------------------------
Final entropy term                ...      0.03935718 Eh     24.70 kcal/mol

CAUTION: The rotational entropy is not quite correctly treated here
         because it includes a symmetry number that is not yet correctly
         implemented in ORCA!
For a nonlinear molecule the correct rotational entropy is:
    S(rot) = R*(ln(qrot/sn)+1.5)
    R    = 8.31441 J/mol/K = 1.987191683e-3 kcal/mol/K
    qrot = 229961.7912231
    sn is the rotational symmetry number. We have assumed 3 here
       if it is different for your molecule then you should correct
       the printed rotational entropy by manually evaluating the equation
       as given above

For convenience we print out the resulting values for sn=1 - 12:
 sn= 1  qrot/sn=  229961.7912 T*S(rot)=     8.20 kcal/mol T*S(tot)=    25.35 kcal/mol
 sn= 2  qrot/sn=  114980.8956 T*S(rot)=     7.79 kcal/mol T*S(tot)=    24.94 kcal/mol
 sn= 3  qrot/sn=   76653.9304 T*S(rot)=     7.55 kcal/mol T*S(tot)=    24.70 kcal/mol
 sn= 4  qrot/sn=   57490.4478 T*S(rot)=     7.38 kcal/mol T*S(tot)=    24.53 kcal/mol
 sn= 5  qrot/sn=   45992.3582 T*S(rot)=     7.25 kcal/mol T*S(tot)=    24.39 kcal/mol
 sn= 6  qrot/sn=   38326.9652 T*S(rot)=     7.14 kcal/mol T*S(tot)=    24.29 kcal/mol
 sn= 7  qrot/sn=   32851.6845 T*S(rot)=     7.05 kcal/mol T*S(tot)=    24.19 kcal/mol
 sn= 8  qrot/sn=   28745.2239 T*S(rot)=     6.97 kcal/mol T*S(tot)=    24.12 kcal/mol
 sn= 9  qrot/sn=   25551.3101 T*S(rot)=     6.90 kcal/mol T*S(tot)=    24.05 kcal/mol
 sn=10  qrot/sn=   22996.1791 T*S(rot)=     6.84 kcal/mol T*S(tot)=    23.98 kcal/mol
 sn=11  qrot/sn=   20905.6174 T*S(rot)=     6.78 kcal/mol T*S(tot)=    23.93 kcal/mol
 sn=12  qrot/sn=   19163.4826 T*S(rot)=     6.73 kcal/mol T*S(tot)=    23.88 kcal/mol

-------------------
GIBBS FREE ENTHALPY
-------------------

The Gibbs free enthalpy is G = H - T*S

Total enthalpy                    ...   -327.04436663 Eh
Total entropy correction          ...     -0.03935718 Eh    -24.70 kcal/mol
-----------------------------------------------------------------------
Final Gibbs free enthalpy         ...   -327.08372381 Eh

For completeness - the Gibbs free enthalpy minus the electronic energy
G-E(el)                           ...      0.14660416 Eh     92.00 kcal/mol

                             ****ORCA TERMINATED NORMALLY****
TOTAL RUN TIME: 0 days 0 hours 39 minutes 24 seconds 980 msec
