                         Program Version 3.0.3 - RELEASE   -
|  1> ! NORI PBE0 def2-TZVP UseSym TightOPT Freq TightSCF Grid3 FinalGrid5 XYZFile
|  2> % pal
|  3>     nprocs 8
|  4> end
|  5> %method
|  6>     SymThresh 5.0e-2
|  7> end
|  8> % geom
|  9>     MaxIter 10
| 10> end
| 11> % maxcore 2000
| 12> % output
| 13>     printlevel mini
| 14>     print[ P_Basis ] 0
| 15>     print[ P_SCFInfo ] 1
| 16>     print[ P_SCFIterInfo ] 1
| 17>     print[ P_OrbEn ] 0
| 18>     print[ P_Cartesian ] 0
| 19> end
| 20> % elprop
| 21>     Dipole false
| 22> end
| 23> *xyz 1 1
| 24>  C        1.1223453228    -0.0498951922     0.2165474106
| 25>  C        2.4359926226     0.0096250948     0.0316223636
| 26>  C        3.3157835561     1.2179616467     0.0256893675
| 27>  N        4.5320399055     0.7537208279    -0.7556267097
| 28>  C        4.7016790687    -0.7103507790    -0.4859601094
| 29>  C        3.2746705227    -1.1926754241    -0.2082489344
| 30>  O        2.9479293043    -2.3390883469    -0.1958264638
| 31>  H        0.6315129713    -1.0176929896     0.2083911204
| 32>  H        0.5098984128     0.8291719036     0.3821547833
| 33>  H        2.8984920103     2.1013238746    -0.4549059220
| 34>  H        3.6679002510     1.4860141348     1.0248955004
| 35>  H        4.3664777774     0.8987303266    -1.7530224211
| 36>  H        5.3626736491     1.2931738097    -0.5117717726
| 37>  H        5.3220065790    -0.8371878497     0.4038676970
| 38>  H        5.1658580464    -1.2125410373    -1.3326159099
| 39> *
| 40>
| 41>                          ****END OF INPUT****
 Total Charge           Charge          ....    1
 Multiplicity           Mult            ....    1
 Number of Electrons    NEL             ....   52
FINAL SINGLE POINT ENERGY      -324.786283273751

CARTESIAN COORDINATES (ANGSTROEM)
---------------------------------
  C     -2.108459   -0.516116    0.024987
  C     -0.860573   -0.133137   -0.219194
  C     -0.226806    0.169287   -1.538672
  N      1.255233    0.000205   -1.255457
  C      1.482691    0.392203    0.172746
  C      0.149102    0.065754    0.852024
  O      0.000032   -0.000320    2.032907
  H     -2.418715   -0.679976    1.051748
  H     -2.841750   -0.670079   -0.758328
  H     -0.511024   -0.488220   -2.358904
  H     -0.371209    1.208377   -1.845525
  H      1.512270   -0.979808   -1.384212
  H      1.825391    0.543502   -1.903602
  H      1.676263    1.465930    0.218843
  H      2.323840   -0.151724    0.598129

FINAL SINGLE POINT ENERGY      -324.786283508820
                    ***********************HURRAY********************
 Multiplicity           Mult            ....    1
 Number of Electrons    NEL             ....   52
 Basis Dimension        Dim             ....  265
FINAL SINGLE POINT ENERGY      -324.786283607900

VIBRATIONAL FREQUENCIES
-----------------------

   0:         0.00 cm**-1
   1:         0.00 cm**-1
   2:         0.00 cm**-1
   3:         0.00 cm**-1
   4:         0.00 cm**-1
   5:         0.00 cm**-1
   6:       103.98 cm**-1
   7:       171.02 cm**-1
   8:       285.53 cm**-1
   9:       330.85 cm**-1
  10:       478.52 cm**-1
  11:       548.15 cm**-1
  12:       594.93 cm**-1
  13:       630.95 cm**-1
  14:       714.17 cm**-1
  15:       744.63 cm**-1
  16:       858.19 cm**-1
  17:       884.30 cm**-1
  18:       938.32 cm**-1
  19:       952.65 cm**-1
  20:      1004.37 cm**-1
  21:      1039.51 cm**-1
  22:      1048.64 cm**-1
  23:      1103.84 cm**-1
  24:      1165.80 cm**-1
  25:      1228.46 cm**-1
  26:      1286.08 cm**-1
  27:      1302.06 cm**-1
  28:      1348.58 cm**-1
  29:      1378.03 cm**-1
  30:      1391.32 cm**-1
  31:      1447.25 cm**-1
  32:      1461.19 cm**-1
  33:      1489.78 cm**-1
  34:      1654.84 cm**-1
  35:      1723.10 cm**-1
  36:      1877.03 cm**-1
  37:      3084.90 cm**-1
  38:      3103.54 cm**-1
  39:      3159.68 cm**-1
  40:      3165.41 cm**-1
  41:      3181.28 cm**-1
  42:      3262.98 cm**-1
  43:      3456.83 cm**-1
  44:      3514.08 cm**-1

IR SPECTRUM
-----------

 Mode    freq (cm**-1)   T**2         TX         TY         TZ
-------------------------------------------------------------------
   6:       103.98    5.186826  (  0.081381  -2.265844  -0.214833)
   7:       171.02    4.138037  ( -1.212915  -1.399767   0.841145)
   8:       285.53    5.022773  ( -2.054082   0.205549  -0.872508)
   9:       330.85    3.074368  ( -0.048381  -1.685877  -0.479421)
  10:       478.52    4.249092  ( -1.830119  -0.260332   0.912132)
  11:       548.15    6.575339  (  0.232274   1.856046   1.753989)
  12:       594.93    4.194880  ( -0.525391  -0.831635   1.796449)
  13:       630.95    6.532328  ( -1.346915   1.458300  -1.609817)
  14:       714.17    0.492597  (  0.409872   0.536266   0.192408)
  15:       744.63    2.375159  ( -0.885042   0.663910  -1.072885)
  16:       858.19   19.180911  ( -2.305056  -3.642084  -0.776436)
  17:       884.30    5.039454  (  2.210570  -0.010400  -0.390802)
  18:       938.32    6.524831  (  1.152083   1.579039  -1.644436)
  19:       952.65    9.974665  ( -3.092928   0.621067  -0.150786)
  20:      1004.37    2.218473  (  0.291683   1.023666   1.041874)
  21:      1039.51   14.379673  ( -0.528954   3.751721   0.156441)
  22:      1048.64   12.240975  ( -0.970888   3.328135   0.471031)
  23:      1103.84   69.599506  ( -8.067345  -1.375216  -1.620567)
  24:      1165.80    1.685401  ( -0.578204   0.399184   1.091666)
  25:      1228.46    5.451579  (  1.223634  -0.238932   1.974135)
  26:      1286.08   49.161567  (  6.552014   2.091240   1.363595)
  27:      1302.06    6.023926  (  1.506547  -1.613087   1.073402)
  28:      1348.58    2.175174  (  1.150340   0.051824  -0.921523)
  29:      1378.03    3.956347  (  1.018221  -0.087994   1.706409)
  30:      1391.32   47.243143  ( -5.366827  -0.587193  -4.253882)
  31:      1447.25   48.954227  (  6.607740   1.944495  -1.229202)
  32:      1461.19   14.018264  (  3.266326   1.432310   1.139238)
  33:      1489.78   13.026904  ( -0.244042  -1.824784   3.104434)
  34:      1654.84   75.864743  ( -6.608138   2.765105   4.954943)
  35:      1723.10   64.326255  (  6.235880   1.391599   4.848042)
  36:      1877.03  163.003518  ( -0.090055   0.163382 -12.765920)
  37:      3084.90    0.476911  ( -0.524269  -0.226615   0.388200)
  38:      3103.54    6.294369  ( -2.261812  -1.084136   0.056808)
  39:      3159.68    0.682129  ( -0.032705   0.727553   0.389519)
  40:      3165.41    3.427995  (  1.018100   0.476518  -1.471189)
  41:      3181.28    4.527955  (  1.262646  -1.648560   0.464685)
  42:      3262.98    4.286219  ( -0.119191   0.136914  -2.062345)
  43:      3456.83   77.820824  (  5.995472  -3.697533  -5.310686)
  44:      3514.08   94.163266  ( -2.771557  -8.415874   3.956616)

--------------------------
THERMOCHEMISTRY AT 298.15K
--------------------------

Temperature         ... 298.15 K
Pressure            ... 1.00 atm
Total Mass          ... 98.12 AMU

Throughout the following assumptions are being made:
  (1) The electronic state is orbitally nondegenerate
  (2) There are no thermally accessible electronically excited states
  (3) Hindered rotations indicated by low frequency modes) are not
      treated as such but are treated as vibrations and this may
      case some error
  (4) All equations used are the standard statistical mechanics
      equations for an ideal gas
  (5) All vibrations are strinctly harmonic

------------
INNER ENERGY
------------

The inner energy is: U= E(el) + E(ZPE) + E(vib) + E(rot) + E(trans)
    E(el)   - is the total energy from the electronic structure calculation
              = E(kin-el) + E(nuc-el) + E(el-el) + E(nuc-nuc)
    E(ZPE)  - the the zero temperature vibrational energy from the frequency calculation
    E(vib)  - the the finite temperature correction to E(ZPE) due to population
              of excietd vibrational states
    E(rot)  - is the rotational thermal energy
    E(trans)- is the translational thermal energy

Summary of contributions to the inner energy U:
Electronic energy                ...   -324.78628361 Eh
Zero point energy                ...      0.13011709 Eh      81.65 kcal/mol
Thermal vibrational correction   ...      0.00353611 Eh       2.22 kcal/mol
Thermal rotational correction    ...      0.00141627 Eh       0.89 kcal/mol
Thermal translational correction ...      0.00141627 Eh       0.89 kcal/mol
-----------------------------------------------------------------------
Total thermal energy                   -324.64979787 Eh

Summary of corrections to the electronic energy:
(perhaps to be used in another calculation)
Total thermal correction                  0.00636865 Eh       4.00 kcal/mol
Non-thermal (ZPE) correction              0.13011709 Eh      81.65 kcal/mol
-----------------------------------------------------------------------
Total correction                          0.13648574 Eh      85.65 kcal/mol

--------
ENTHALPY
--------

The enthalpy is H = U + kB*T
                kB is Boltzmann's constant
Total free energy                 ...   -324.64979787 Eh
Thermal Enthalpy correction       ...      0.00094421 Eh       0.59 kcal/mol
-----------------------------------------------------------------------
Total Enthalpy                    ...   -324.64885366 Eh

-------
ENTROPY
-------

The entropy contributions are T*S = T*(S(el)+S(vib)+S(rot)+S(trans)
     S(el)   - electronic entropy
     S(vib)  - vibrational entropy
     S(rot)  - rotational entropy
     S(trans)- translational entropy
The entropies will be listed as mutliplied by the temperature to get
units of energy

Electronic entropy                ...      0.00000000 Eh      0.00 kcal/mol
Vibrational entropy               ...      0.00586194 Eh      3.68 kcal/mol
Rotational entropy                ...      0.01187782 Eh      7.45 kcal/mol
Translational entropy             ...      0.01884443 Eh     11.83 kcal/mol
-----------------------------------------------------------------------
Final entropy term                ...      0.03658419 Eh     22.96 kcal/mol

CAUTION: The rotational entropy is not quite correctly treated here
         because it includes a symmetry number that is not yet correctly
         implemented in ORCA!
For a nonlinear molecule the correct rotational entropy is:
    S(rot) = R*(ln(qrot/sn)+1.5)
    R    = 8.31441 J/mol/K = 1.987191683e-3 kcal/mol/K
    qrot = 194586.6479451
    sn is the rotational symmetry number. We have assumed 3 here
       if it is different for your molecule then you should correct
       the printed rotational entropy by manually evaluating the equation
       as given above

For convenience we print out the resulting values for sn=1 - 12:
 sn= 1  qrot/sn=  194586.6479 T*S(rot)=     8.10 kcal/mol T*S(tot)=    23.61 kcal/mol
 sn= 2  qrot/sn=   97293.3240 T*S(rot)=     7.69 kcal/mol T*S(tot)=    23.20 kcal/mol
 sn= 3  qrot/sn=   64862.2160 T*S(rot)=     7.45 kcal/mol T*S(tot)=    22.96 kcal/mol
 sn= 4  qrot/sn=   48646.6620 T*S(rot)=     7.28 kcal/mol T*S(tot)=    22.79 kcal/mol
 sn= 5  qrot/sn=   38917.3296 T*S(rot)=     7.15 kcal/mol T*S(tot)=    22.65 kcal/mol
 sn= 6  qrot/sn=   32431.1080 T*S(rot)=     7.04 kcal/mol T*S(tot)=    22.55 kcal/mol
 sn= 7  qrot/sn=   27798.0926 T*S(rot)=     6.95 kcal/mol T*S(tot)=    22.45 kcal/mol
 sn= 8  qrot/sn=   24323.3310 T*S(rot)=     6.87 kcal/mol T*S(tot)=    22.38 kcal/mol
 sn= 9  qrot/sn=   21620.7387 T*S(rot)=     6.80 kcal/mol T*S(tot)=    22.31 kcal/mol
 sn=10  qrot/sn=   19458.6648 T*S(rot)=     6.74 kcal/mol T*S(tot)=    22.24 kcal/mol
 sn=11  qrot/sn=   17689.6953 T*S(rot)=     6.68 kcal/mol T*S(tot)=    22.19 kcal/mol
 sn=12  qrot/sn=   16215.5540 T*S(rot)=     6.63 kcal/mol T*S(tot)=    22.14 kcal/mol

-------------------
GIBBS FREE ENTHALPY
-------------------

The Gibbs free enthalpy is G = H - T*S

Total enthalpy                    ...   -324.64885366 Eh
Total entropy correction          ...     -0.03658419 Eh    -22.96 kcal/mol
-----------------------------------------------------------------------
Final Gibbs free enthalpy         ...   -324.68543785 Eh

For completeness - the Gibbs free enthalpy minus the electronic energy
G-E(el)                           ...      0.10084576 Eh     63.28 kcal/mol

                             ****ORCA TERMINATED NORMALLY****
TOTAL RUN TIME: 0 days 0 hours 25 minutes 38 seconds 307 msec
