                         Program Version 3.0.3 - RELEASE   -
|  1> ! NORI PBE0 def2-TZVP UseSym TightOPT Freq TightSCF Grid3 FinalGrid5 XYZFile
|  2> % pal
|  3>     nprocs 8
|  4> end
|  5> %method
|  6>     SymThresh 5.0e-2
|  7> end
|  8> % geom
|  9>     MaxIter 10
| 10> end
| 11> % maxcore 2000
| 12> % output
| 13>     printlevel mini
| 14>     print[ P_Basis ] 0
| 15>     print[ P_SCFInfo ] 1
| 16>     print[ P_SCFIterInfo ] 1
| 17>     print[ P_OrbEn ] 0
| 18>     print[ P_Cartesian ] 0
| 19> end
| 20> % elprop
| 21>     Dipole false
| 22> end
| 23> *xyz 1 1
| 24>  C        0.9928444316    -0.1058407111     0.2284595602
| 25>  C        2.4730114462    -0.0868390913    -0.0346768573
| 26>  C        2.8271489975     0.1023224983    -1.4891197877
| 27>  N        3.2156069927     0.9810374783     0.8135320186
| 28>  C        4.2653511134    -0.0357818137     1.1921253198
| 29>  C        3.3405561005    -1.1623915403     0.6969456171
| 30>  O        3.8638099561    -2.2165539459    -0.0067030869
| 31>  H        0.5632333520    -0.9816606427    -0.2628112279
| 32>  H        0.4945506756     0.7786393419    -0.1755286761
| 33>  H        0.7678791175    -0.1888861748     1.2951612209
| 34>  H        2.4788181686    -0.7644576823    -2.0530849872
| 35>  H        3.9033112552     0.2014902414    -1.6585174414
| 36>  H        2.3322117256     0.9845762939    -1.9012291164
| 37>  H        2.6621900134     1.2945623244     1.6097679923
| 38>  H        3.5429101829     1.8033670971     0.3083990044
| 39>  H        5.1476983128     0.1086187849     0.5703951587
| 40>  H        4.5402509914     0.0032798959     2.2437745639
| 41>  H        2.7754870671    -1.5976652613     1.5242145531
| 42>  H        4.4220201000    -1.9202470926    -0.7330638280
| 43> *
| 44>
| 45>                          ****END OF INPUT****
 Total Charge           Charge          ....    1
 Multiplicity           Mult            ....    1
 Number of Electrons    NEL             ....   56
FINAL SINGLE POINT ENERGY      -327.212454384056
FINAL SINGLE POINT ENERGY      -327.212455930311
FINAL SINGLE POINT ENERGY      -327.212457479788

CARTESIAN COORDINATES (ANGSTROEM)
---------------------------------
  C     -1.456993    0.925270   -1.081903
  C     -0.459037   -0.010210   -0.456884
  C     -0.950586   -1.432026   -0.342355
  N      0.908620    0.000492   -1.193676
  C      1.629704    0.117266    0.126974
  C      0.304251    0.503870    0.807341
  O     -0.000713    0.001393    2.045925
  H     -2.325254    0.997517   -0.423274
  H     -1.804995    0.563031   -2.052048
  H     -1.054461    1.934804   -1.199616
  H     -1.794280   -1.458881    0.348989
  H     -0.188000   -2.119911    0.034901
  H     -1.301744   -1.804730   -1.306978
  H      1.021650    0.825787   -1.780659
  H      1.120409   -0.823234   -1.754743
  H      2.001023   -0.863743    0.421369
  H      2.447132    0.834454    0.108134
  H      0.205813    1.588988    0.887032
  H      0.120517   -0.952846    2.085369

FINAL SINGLE POINT ENERGY      -327.212457928102
                    ***********************HURRAY********************
 Multiplicity           Mult            ....    1
 Number of Electrons    NEL             ....   56
 Basis Dimension        Dim             ....  289
FINAL SINGLE POINT ENERGY      -327.212458235790

VIBRATIONAL FREQUENCIES
-----------------------

   0:         0.00 cm**-1
   1:         0.00 cm**-1
   2:         0.00 cm**-1
   3:         0.00 cm**-1
   4:         0.00 cm**-1
   5:         0.00 cm**-1
   6:       114.43 cm**-1
   7:       213.89 cm**-1
   8:       235.78 cm**-1
   9:       256.42 cm**-1
  10:       289.62 cm**-1
  11:       338.91 cm**-1
  12:       352.48 cm**-1
  13:       372.61 cm**-1
  14:       445.24 cm**-1
  15:       538.78 cm**-1
  16:       622.92 cm**-1
  17:       727.59 cm**-1
  18:       781.19 cm**-1
  19:       845.86 cm**-1
  20:       912.22 cm**-1
  21:       941.84 cm**-1
  22:       955.53 cm**-1
  23:       984.93 cm**-1
  24:       993.02 cm**-1
  25:      1013.33 cm**-1
  26:      1099.41 cm**-1
  27:      1150.22 cm**-1
  28:      1201.96 cm**-1
  29:      1225.00 cm**-1
  30:      1232.08 cm**-1
  31:      1284.41 cm**-1
  32:      1297.36 cm**-1
  33:      1304.37 cm**-1
  34:      1349.41 cm**-1
  35:      1357.61 cm**-1
  36:      1414.28 cm**-1
  37:      1422.07 cm**-1
  38:      1448.88 cm**-1
  39:      1469.59 cm**-1
  40:      1475.81 cm**-1
  41:      1487.50 cm**-1
  42:      1498.05 cm**-1
  43:      1498.99 cm**-1
  44:      1640.06 cm**-1
  45:      3051.64 cm**-1
  46:      3054.14 cm**-1
  47:      3101.86 cm**-1
  48:      3119.42 cm**-1
  49:      3128.34 cm**-1
  50:      3132.26 cm**-1
  51:      3141.66 cm**-1
  52:      3151.69 cm**-1
  53:      3191.73 cm**-1
  54:      3466.95 cm**-1
  55:      3539.25 cm**-1
  56:      3837.63 cm**-1

IR SPECTRUM
-----------

 Mode    freq (cm**-1)   T**2         TX         TY         TZ
-------------------------------------------------------------------
   6:       114.43    0.502897  (  0.493099   0.180953  -0.476452)
   7:       213.89    0.454874  (  0.061210   0.640179  -0.203221)
   8:       235.78    2.205242  ( -0.664680  -1.256746   0.428989)
   9:       256.42    6.369697  ( -1.971098   0.883540  -1.305308)
  10:       289.62    3.153266  (  1.046099   0.870980   1.140324)
  11:       338.91   70.881437  (  7.616978   1.123867   3.405878)
  12:       352.48   41.602239  (  5.910922   1.097991   2.336161)
  13:       372.61    6.449887  (  2.471065  -0.325713   0.487480)
  14:       445.24   10.624407  ( -2.963595   0.236661  -1.336228)
  15:       538.78    1.167885  (  0.098221   0.916062  -0.564860)
  16:       622.92    3.887392  (  0.411302   0.934534   1.686674)
  17:       727.59    5.159891  ( -1.617468  -0.498222  -1.515079)
  18:       781.19   10.822587  ( -2.904798  -1.146242   1.034826)
  19:       845.86   10.319413  ( -1.064385   2.662063  -1.449110)
  20:       912.22    9.614829  (  2.906731   1.050268   0.250364)
  21:       941.84    1.205194  (  0.542854   0.791925   0.532314)
  22:       955.53    2.762016  ( -0.597781   0.655729  -1.405238)
  23:       984.93    5.403795  (  1.168330   0.259742   1.992821)
  24:       993.02    2.316467  (  0.913499   0.975742   0.727951)
  25:      1013.33    4.596387  ( -1.084537  -0.060090  -1.848393)
  26:      1099.41   22.181251  ( -0.038520  -1.323767   4.519669)
  27:      1150.22   57.716823  (  6.297003   0.146784  -4.247709)
  28:      1201.96  128.569497  ( -1.409028  -2.239754  11.025772)
  29:      1225.00   24.154652  ( -4.404428   0.553256  -2.109402)
  30:      1232.08    5.128849  (  1.471342  -1.716152   0.137205)
  31:      1284.41    7.702239  ( -2.436033  -1.196454  -0.580070)
  32:      1297.36   46.188564  (  6.604558   1.188987  -1.074565)
  33:      1304.37    4.869947  ( -1.513855  -0.418716  -1.550118)
  34:      1349.41    7.641891  (  1.778843  -0.415513   2.074839)
  35:      1357.61    3.365640  ( -1.566261  -0.169263  -0.940115)
  36:      1414.28   28.456111  (  1.122537  -4.602279   2.452559)
  37:      1422.07   10.925842  (  3.108483   0.736669  -0.848818)
  38:      1448.88   21.807601  (  0.716127  -0.144240  -4.612370)
  39:      1469.59    1.292703  (  0.278672   0.265109  -1.069935)
  40:      1475.81    6.224167  (  0.855484   2.105934  -1.028278)
  41:      1487.50   13.419739  ( -2.854044   2.135397  -0.845132)
  42:      1498.05   24.077734  ( -0.748084  -1.262189  -4.682412)
  43:      1498.99   16.666612  (  3.124898  -0.834516  -2.491026)
  44:      1640.06   65.579662  (  3.377367   0.300438  -7.354100)
  45:      3051.64    2.965830  ( -0.579245   1.394153  -0.828639)
  46:      3054.14    4.012012  (  1.855566  -0.346893  -0.669740)
  47:      3101.86    4.004249  ( -0.076761  -1.717598   1.023823)
  48:      3119.42    0.519304  ( -0.054824  -0.608754   0.381729)
  49:      3128.34    6.790509  (  1.236573  -1.609789   1.634006)
  50:      3132.26    5.751894  (  1.289466   1.774876   0.969013)
  51:      3141.66    1.592401  (  0.765353  -0.536711   0.847689)
  52:      3151.69    0.660245  (  0.470563   0.656060   0.091651)
  53:      3191.73    0.436564  ( -0.641007   0.037900   0.155684)
  54:      3466.95   55.356863  ( -2.620195   0.178319   6.961296)
  55:      3539.25   70.580821  ( -0.619698   8.364191  -0.486936)
  56:      3837.63   47.445255  (  0.020652  -5.858851   3.621974)

--------------------------
THERMOCHEMISTRY AT 298.15K
--------------------------

Temperature         ... 298.15 K
Pressure            ... 1.00 atm
Total Mass          ... 102.16 AMU

Throughout the following assumptions are being made:
  (1) The electronic state is orbitally nondegenerate
  (2) There are no thermally accessible electronically excited states
  (3) Hindered rotations indicated by low frequency modes) are not
      treated as such but are treated as vibrations and this may
      case some error
  (4) All equations used are the standard statistical mechanics
      equations for an ideal gas
  (5) All vibrations are strinctly harmonic

------------
INNER ENERGY
------------

The inner energy is: U= E(el) + E(ZPE) + E(vib) + E(rot) + E(trans)
    E(el)   - is the total energy from the electronic structure calculation
              = E(kin-el) + E(nuc-el) + E(el-el) + E(nuc-nuc)
    E(ZPE)  - the the zero temperature vibrational energy from the frequency calculation
    E(vib)  - the the finite temperature correction to E(ZPE) due to population
              of excietd vibrational states
    E(rot)  - is the rotational thermal energy
    E(trans)- is the translational thermal energy

Summary of contributions to the inner energy U:
Electronic energy                ...   -327.21245824 Eh
Zero point energy                ...      0.17475870 Eh     109.66 kcal/mol
Thermal vibrational correction   ...      0.00504474 Eh       3.17 kcal/mol
Thermal rotational correction    ...      0.00141627 Eh       0.89 kcal/mol
Thermal translational correction ...      0.00141627 Eh       0.89 kcal/mol
-----------------------------------------------------------------------
Total thermal energy                   -327.02982226 Eh

Summary of corrections to the electronic energy:
(perhaps to be used in another calculation)
Total thermal correction                  0.00787728 Eh       4.94 kcal/mol
Non-thermal (ZPE) correction              0.17475870 Eh     109.66 kcal/mol
-----------------------------------------------------------------------
Total correction                          0.18263597 Eh     114.61 kcal/mol

--------
ENTHALPY
--------

The enthalpy is H = U + kB*T
                kB is Boltzmann's constant
Total free energy                 ...   -327.02982226 Eh
Thermal Enthalpy correction       ...      0.00094421 Eh       0.59 kcal/mol
-----------------------------------------------------------------------
Total Enthalpy                    ...   -327.02887805 Eh

-------
ENTROPY
-------

The entropy contributions are T*S = T*(S(el)+S(vib)+S(rot)+S(trans)
     S(el)   - electronic entropy
     S(vib)  - vibrational entropy
     S(rot)  - rotational entropy
     S(trans)- translational entropy
The entropies will be listed as mutliplied by the temperature to get
units of energy

Electronic entropy                ...      0.00000000 Eh      0.00 kcal/mol
Vibrational entropy               ...      0.00818266 Eh      5.13 kcal/mol
Rotational entropy                ...      0.01196627 Eh      7.51 kcal/mol
Translational entropy             ...      0.01890147 Eh     11.86 kcal/mol
-----------------------------------------------------------------------
Final entropy term                ...      0.03905040 Eh     24.50 kcal/mol

CAUTION: The rotational entropy is not quite correctly treated here
         because it includes a symmetry number that is not yet correctly
         implemented in ORCA!
For a nonlinear molecule the correct rotational entropy is:
    S(rot) = R*(ln(qrot/sn)+1.5)
    R    = 8.31441 J/mol/K = 1.987191683e-3 kcal/mol/K
    qrot = 213697.8821108
    sn is the rotational symmetry number. We have assumed 3 here
       if it is different for your molecule then you should correct
       the printed rotational entropy by manually evaluating the equation
       as given above

For convenience we print out the resulting values for sn=1 - 12:
 sn= 1  qrot/sn=  213697.8821 T*S(rot)=     8.16 kcal/mol T*S(tot)=    25.16 kcal/mol
 sn= 2  qrot/sn=  106848.9411 T*S(rot)=     7.75 kcal/mol T*S(tot)=    24.74 kcal/mol
 sn= 3  qrot/sn=   71232.6274 T*S(rot)=     7.51 kcal/mol T*S(tot)=    24.50 kcal/mol
 sn= 4  qrot/sn=   53424.4705 T*S(rot)=     7.34 kcal/mol T*S(tot)=    24.33 kcal/mol
 sn= 5  qrot/sn=   42739.5764 T*S(rot)=     7.21 kcal/mol T*S(tot)=    24.20 kcal/mol
 sn= 6  qrot/sn=   35616.3137 T*S(rot)=     7.10 kcal/mol T*S(tot)=    24.09 kcal/mol
 sn= 7  qrot/sn=   30528.2689 T*S(rot)=     7.01 kcal/mol T*S(tot)=    24.00 kcal/mol
 sn= 8  qrot/sn=   26712.2353 T*S(rot)=     6.93 kcal/mol T*S(tot)=    23.92 kcal/mol
 sn= 9  qrot/sn=   23744.2091 T*S(rot)=     6.86 kcal/mol T*S(tot)=    23.85 kcal/mol
 sn=10  qrot/sn=   21369.7882 T*S(rot)=     6.80 kcal/mol T*S(tot)=    23.79 kcal/mol
 sn=11  qrot/sn=   19427.0802 T*S(rot)=     6.74 kcal/mol T*S(tot)=    23.73 kcal/mol
 sn=12  qrot/sn=   17808.1568 T*S(rot)=     6.69 kcal/mol T*S(tot)=    23.68 kcal/mol

-------------------
GIBBS FREE ENTHALPY
-------------------

The Gibbs free enthalpy is G = H - T*S

Total enthalpy                    ...   -327.02887805 Eh
Total entropy correction          ...     -0.03905040 Eh    -24.50 kcal/mol
-----------------------------------------------------------------------
Final Gibbs free enthalpy         ...   -327.06792845 Eh

For completeness - the Gibbs free enthalpy minus the electronic energy
G-E(el)                           ...      0.14452978 Eh     90.69 kcal/mol

                             ****ORCA TERMINATED NORMALLY****
TOTAL RUN TIME: 0 days 0 hours 42 minutes 19 seconds 265 msec
