                         Program Version 3.0.3 - RELEASE   -
|  1> ! NORI PBE0 def2-TZVP UseSym TightOPT Freq TightSCF Grid3 FinalGrid5 XYZFile
|  2> % pal
|  3>     nprocs 8
|  4> end
|  5> %method
|  6>     SymThresh 5.0e-2
|  7> end
|  8> % geom
|  9>     MaxIter 10
| 10> end
| 11> % maxcore 2000
| 12> % output
| 13>     printlevel mini
| 14>     print[ P_Basis ] 0
| 15>     print[ P_SCFInfo ] 1
| 16>     print[ P_SCFIterInfo ] 1
| 17>     print[ P_OrbEn ] 0
| 18>     print[ P_Cartesian ] 0
| 19> end
| 20> % elprop
| 21>     Dipole false
| 22> end
| 23> *xyz 1 1
| 24>  C        0.9311060823    -0.0401225385     0.1941513056
| 25>  C        2.4016835241    -0.1016604542    -0.1383791727
| 26>  C        2.7145438329    -0.1104259311    -1.6142123401
| 27>  N        3.2071345602     1.0089267028     0.6136504685
| 28>  C        3.9777195141    -0.0108067330     1.4215300340
| 29>  C        3.2053792347    -1.1146294663     0.6968694544
| 30>  O        3.2127127931    -2.2916700312     0.7482174137
| 31>  H        0.4547276426     0.8149150237    -0.2912894431
| 32>  H        0.7470218669     0.0022189090     1.2706937835
| 33>  H        0.4575439280    -0.9486824540    -0.1819246984
| 34>  H        2.2531081712     0.7423298138    -2.1177639934
| 35>  H        2.2998642370    -1.0226176598    -2.0467386148
| 36>  H        3.7891686784    -0.1141022893    -1.8137605024
| 37>  H        2.6216342333     1.6290248322     1.1711234946
| 38>  H        3.7861204302     1.5779093939    -0.0021945347
| 39>  H        3.7883621938     0.0786292124     2.4915267532
| 40>  H        5.0493790773     0.0275936697     1.2244105920
| 41> *
| 42>
| 43>                          ****END OF INPUT****
 Total Charge           Charge          ....    1
 Multiplicity           Mult            ....    1
 Number of Electrons    NEL             ....   54
FINAL SINGLE POINT ENERGY      -325.997557782318

CARTESIAN COORDINATES (ANGSTROEM)
---------------------------------
  C     -0.701645   -1.228862    1.270632
  C     -0.425206   -0.463316    0.000000
  C     -0.701645   -1.228862   -1.270632
  N     -1.140625    0.927910   -0.000000
  C      0.174839    1.673231   -0.000000
  C      0.897099    0.324934    0.000000
  O      2.029477   -0.000095    0.000000
  H     -1.724543   -1.612097    1.283001
  H     -0.526198   -0.628736    2.167027
  H     -0.021122   -2.081099    1.311015
  H     -1.724543   -1.612097   -1.283001
  H     -0.021122   -2.081099   -1.311015
  H     -0.526198   -0.628736   -2.167027
  H     -1.713382    1.090411    0.826750
  H     -1.713382    1.090411   -0.826750
  H      0.305949    2.282805    0.893757
  H      0.305949    2.282805   -0.893757

FINAL SINGLE POINT ENERGY      -325.997558653297
                    ***********************HURRAY********************
 Multiplicity           Mult            ....    1
 Number of Electrons    NEL             ....   54
 Basis Dimension        Dim             ....  277
FINAL SINGLE POINT ENERGY      -325.997558806009

VIBRATIONAL FREQUENCIES
-----------------------

   0:         0.00 cm**-1
   1:         0.00 cm**-1
   2:         0.00 cm**-1
   3:         0.00 cm**-1
   4:         0.00 cm**-1
   5:         0.00 cm**-1
   6:        80.85 cm**-1
   7:       171.20 cm**-1
   8:       215.56 cm**-1
   9:       235.34 cm**-1
  10:       283.36 cm**-1
  11:       341.97 cm**-1
  12:       351.25 cm**-1
  13:       502.59 cm**-1
  14:       506.82 cm**-1
  15:       662.35 cm**-1
  16:       724.36 cm**-1
  17:       760.44 cm**-1
  18:       820.17 cm**-1
  19:       925.63 cm**-1
  20:       927.71 cm**-1
  21:       956.66 cm**-1
  22:       979.33 cm**-1
  23:       996.98 cm**-1
  24:      1051.92 cm**-1
  25:      1098.82 cm**-1
  26:      1151.07 cm**-1
  27:      1226.62 cm**-1
  28:      1264.43 cm**-1
  29:      1272.72 cm**-1
  30:      1301.29 cm**-1
  31:      1302.54 cm**-1
  32:      1401.86 cm**-1
  33:      1419.81 cm**-1
  34:      1443.47 cm**-1
  35:      1464.02 cm**-1
  36:      1469.12 cm**-1
  37:      1491.63 cm**-1
  38:      1494.52 cm**-1
  39:      1639.06 cm**-1
  40:      1974.37 cm**-1
  41:      3055.25 cm**-1
  42:      3057.11 cm**-1
  43:      3113.57 cm**-1
  44:      3136.39 cm**-1
  45:      3137.83 cm**-1
  46:      3149.33 cm**-1
  47:      3153.85 cm**-1
  48:      3183.79 cm**-1
  49:      3474.26 cm**-1
  50:      3544.67 cm**-1

IR SPECTRUM
-----------

 Mode    freq (cm**-1)   T**2         TX         TY         TZ
-------------------------------------------------------------------
   6:        80.85    0.750201  ( -0.000006  -0.000024  -0.866142)
   7:       171.20    3.661907  (  0.000184  -0.000084  -1.913611)
   8:       215.56    0.028222  ( -0.000031   0.000019   0.167995)
   9:       235.34    4.080124  ( -0.920743  -1.797875  -0.000007)
  10:       283.36    0.855403  ( -0.224165   0.897303   0.000002)
  11:       341.97    2.676566  (  0.444584   1.574456  -0.000073)
  12:       351.25    1.177239  (  0.000128   0.000030   1.085006)
  13:       502.59    1.487815  (  0.439366  -1.137881  -0.000003)
  14:       506.82    0.000000  (  0.000197  -0.000195  -0.000289)
  15:       662.35    2.711967  ( -1.409508   0.851619  -0.000011)
  16:       724.36    0.369758  ( -0.593463   0.132515   0.000018)
  17:       760.44   15.844046  ( -1.385517  -3.731540  -0.000012)
  18:       820.17    9.680142  ( -0.000116   0.000031   3.111293)
  19:       925.63   12.110375  ( -0.393275  -3.457703   0.000179)
  20:       927.71    0.962307  ( -0.000215  -0.000508  -0.980972)
  21:       956.66    0.727355  ( -0.000123  -0.000103  -0.852851)
  22:       979.33   10.294395  (  3.203540   0.178128  -0.000035)
  23:       996.98    0.011113  (  0.000040  -0.000009  -0.105421)
  24:      1051.92   58.158087  (  3.251776   6.898119  -0.000002)
  25:      1098.82    0.255302  ( -0.000084   0.000023   0.505275)
  26:      1151.07   75.886186  (  2.543564  -8.331655  -0.000008)
  27:      1226.62   44.362022  (  1.434408   6.504191  -0.000002)
  28:      1264.43    6.438866  (  0.000011  -0.000011  -2.537492)
  29:      1272.72    4.638037  (  0.630915  -2.059122   0.000016)
  30:      1301.29    1.353308  ( -0.000087  -0.000265   1.163318)
  31:      1302.54    9.472127  (  0.301080   3.062920   0.000104)
  32:      1401.86   14.709401  ( -0.000021   0.000032  -3.835284)
  33:      1419.81   11.666324  (  0.779709  -3.325414  -0.000042)
  34:      1443.47   22.462603  (  0.022320  -4.739420  -0.000004)
  35:      1464.02    0.145863  ( -0.000002   0.000013   0.381920)
  36:      1469.12    9.216503  ( -0.000042  -0.000078  -3.035869)
  37:      1491.63   18.362650  (  4.141430  -1.100548   0.000011)
  38:      1494.52   12.025375  ( -2.170329  -2.704635   0.000071)
  39:      1639.06   62.477782  (  7.053844  -3.566660   0.000003)
  40:      1974.37  218.440307  ( 14.396479  -3.343903   0.000004)
  41:      3055.25    0.452357  ( -0.000260   0.000379  -0.672575)
  42:      3057.11    4.583767  (  1.236017  -1.748150  -0.000132)
  43:      3113.57    8.878292  ( -0.243252   2.969700   0.000001)
  44:      3136.39    3.501355  ( -0.000374  -0.000294   1.871191)
  45:      3137.83    2.225954  (  1.133328   0.970320   0.000594)
  46:      3149.33    1.260435  ( -0.000009  -0.000018  -1.122691)
  47:      3153.85    1.752797  (  0.424458  -1.254047   0.000018)
  48:      3183.79    5.940988  (  0.000053  -0.000021  -2.437414)
  49:      3474.26   70.173649  (  7.844256  -2.939610   0.000002)
  50:      3544.67   83.213369  (  0.000003  -0.000000  -9.122136)

--------------------------
THERMOCHEMISTRY AT 298.15K
--------------------------

Temperature         ... 298.15 K
Pressure            ... 1.00 atm
Total Mass          ... 100.14 AMU

Throughout the following assumptions are being made:
  (1) The electronic state is orbitally nondegenerate
  (2) There are no thermally accessible electronically excited states
  (3) Hindered rotations indicated by low frequency modes) are not
      treated as such but are treated as vibrations and this may
      case some error
  (4) All equations used are the standard statistical mechanics
      equations for an ideal gas
  (5) All vibrations are strinctly harmonic

------------
INNER ENERGY
------------

The inner energy is: U= E(el) + E(ZPE) + E(vib) + E(rot) + E(trans)
    E(el)   - is the total energy from the electronic structure calculation
              = E(kin-el) + E(nuc-el) + E(el-el) + E(nuc-nuc)
    E(ZPE)  - the the zero temperature vibrational energy from the frequency calculation
    E(vib)  - the the finite temperature correction to E(ZPE) due to population
              of excietd vibrational states
    E(rot)  - is the rotational thermal energy
    E(trans)- is the translational thermal energy

Summary of contributions to the inner energy U:
Electronic energy                ...   -325.99755881 Eh
Zero point energy                ...      0.15016746 Eh      94.23 kcal/mol
Thermal vibrational correction   ...      0.00483367 Eh       3.03 kcal/mol
Thermal rotational correction    ...      0.00141627 Eh       0.89 kcal/mol
Thermal translational correction ...      0.00141627 Eh       0.89 kcal/mol
-----------------------------------------------------------------------
Total thermal energy                   -325.83972513 Eh

Summary of corrections to the electronic energy:
(perhaps to be used in another calculation)
Total thermal correction                  0.00766621 Eh       4.81 kcal/mol
Non-thermal (ZPE) correction              0.15016746 Eh      94.23 kcal/mol
-----------------------------------------------------------------------
Total correction                          0.15783368 Eh      99.04 kcal/mol

--------
ENTHALPY
--------

The enthalpy is H = U + kB*T
                kB is Boltzmann's constant
Total free energy                 ...   -325.83972513 Eh
Thermal Enthalpy correction       ...      0.00094421 Eh       0.59 kcal/mol
-----------------------------------------------------------------------
Total Enthalpy                    ...   -325.83878092 Eh

-------
ENTROPY
-------

The entropy contributions are T*S = T*(S(el)+S(vib)+S(rot)+S(trans)
     S(el)   - electronic entropy
     S(vib)  - vibrational entropy
     S(rot)  - rotational entropy
     S(trans)- translational entropy
The entropies will be listed as mutliplied by the temperature to get
units of energy

Electronic entropy                ...      0.00000000 Eh      0.00 kcal/mol
Vibrational entropy               ...      0.00825434 Eh      5.18 kcal/mol
Rotational entropy                ...      0.01192026 Eh      7.48 kcal/mol
Translational entropy             ...      0.01887324 Eh     11.84 kcal/mol
-----------------------------------------------------------------------
Final entropy term                ...      0.03904783 Eh     24.50 kcal/mol

CAUTION: The rotational entropy is not quite correctly treated here
         because it includes a symmetry number that is not yet correctly
         implemented in ORCA!
For a nonlinear molecule the correct rotational entropy is:
    S(rot) = R*(ln(qrot/sn)+1.5)
    R    = 8.31441 J/mol/K = 1.987191683e-3 kcal/mol/K
    qrot = 203532.8178473
    sn is the rotational symmetry number. We have assumed 3 here
       if it is different for your molecule then you should correct
       the printed rotational entropy by manually evaluating the equation
       as given above

For convenience we print out the resulting values for sn=1 - 12:
 sn= 1  qrot/sn=  203532.8178 T*S(rot)=     8.13 kcal/mol T*S(tot)=    25.15 kcal/mol
 sn= 2  qrot/sn=  101766.4089 T*S(rot)=     7.72 kcal/mol T*S(tot)=    24.74 kcal/mol
 sn= 3  qrot/sn=   67844.2726 T*S(rot)=     7.48 kcal/mol T*S(tot)=    24.50 kcal/mol
 sn= 4  qrot/sn=   50883.2045 T*S(rot)=     7.31 kcal/mol T*S(tot)=    24.33 kcal/mol
 sn= 5  qrot/sn=   40706.5636 T*S(rot)=     7.18 kcal/mol T*S(tot)=    24.20 kcal/mol
 sn= 6  qrot/sn=   33922.1363 T*S(rot)=     7.07 kcal/mol T*S(tot)=    24.09 kcal/mol
 sn= 7  qrot/sn=   29076.1168 T*S(rot)=     6.98 kcal/mol T*S(tot)=    24.00 kcal/mol
 sn= 8  qrot/sn=   25441.6022 T*S(rot)=     6.90 kcal/mol T*S(tot)=    23.92 kcal/mol
 sn= 9  qrot/sn=   22614.7575 T*S(rot)=     6.83 kcal/mol T*S(tot)=    23.85 kcal/mol
 sn=10  qrot/sn=   20353.2818 T*S(rot)=     6.77 kcal/mol T*S(tot)=    23.79 kcal/mol
 sn=11  qrot/sn=   18502.9834 T*S(rot)=     6.71 kcal/mol T*S(tot)=    23.73 kcal/mol
 sn=12  qrot/sn=   16961.0682 T*S(rot)=     6.66 kcal/mol T*S(tot)=    23.68 kcal/mol

-------------------
GIBBS FREE ENTHALPY
-------------------

The Gibbs free enthalpy is G = H - T*S

Total enthalpy                    ...   -325.83878092 Eh
Total entropy correction          ...     -0.03904783 Eh    -24.50 kcal/mol
-----------------------------------------------------------------------
Final Gibbs free enthalpy         ...   -325.87782875 Eh

For completeness - the Gibbs free enthalpy minus the electronic energy
G-E(el)                           ...      0.11973006 Eh     75.13 kcal/mol

                             ****ORCA TERMINATED NORMALLY****
TOTAL RUN TIME: 0 days 0 hours 33 minutes 22 seconds 266 msec
