                         Program Version 3.0.3 - RELEASE   -
|  1> ! NORI PBE0 def2-TZVP UseSym TightOPT Freq TightSCF Grid3 FinalGrid5 XYZFile
|  2> % pal
|  3>     nprocs 8
|  4> end
|  5> %method
|  6>     SymThresh 5.0e-2
|  7> end
|  8> % geom
|  9>     MaxIter 10
| 10> end
| 11> % maxcore 2000
| 12> % output
| 13>     printlevel mini
| 14>     print[ P_Basis ] 0
| 15>     print[ P_SCFInfo ] 1
| 16>     print[ P_SCFIterInfo ] 1
| 17>     print[ P_OrbEn ] 0
| 18>     print[ P_Cartesian ] 0
| 19> end
| 20> % elprop
| 21>     Dipole false
| 22> end
| 23> *xyz 1 1
| 24>  C        0.9222993752     0.1216935261    -0.2919557226
| 25>  C        2.4033414124     0.0454699785    -0.0162984612
| 26>  C        2.6817720985     0.0543398772     1.4671183191
| 27>  N        4.1381249591    -0.0872219405     1.7887581943
| 28>  C        3.2624553056    -0.7344594346    -0.9828655888
| 29>  C        3.3245309541     0.7624681417    -0.9486236703
| 30>  O        4.4534579910     1.3691797153    -0.3623098984
| 31>  H        0.7323699858     0.1674044149    -1.3648839016
| 32>  H        0.4777184954     1.0108590812     0.1626404979
| 33>  H        0.4054610834    -0.7591092939     0.0974834785
| 34>  H        2.1457879734    -0.7501300362     1.9733373450
| 35>  H        2.3624095782     1.0044598978     1.9004975950
| 36>  H        4.4599342151    -1.0448687850     1.6549136607
| 37>  H        4.3400316270     0.1829516718     2.7505893832
| 38>  H        4.6465153344     0.5331834577     1.1162044068
| 39>  H        4.1450219233    -1.2612632661    -0.6336806787
| 40>  H        2.7664095065    -1.2253049958    -1.8109409142
| 41>  H        2.8876898687     1.3389717911    -1.7572925213
| 42>  H        5.1223183129     1.5308861988    -1.0366915234
| 43> *
| 44>
| 45>                          ****END OF INPUT****
 Total Charge           Charge          ....    1
 Multiplicity           Mult            ....    1
 Number of Electrons    NEL             ....   56
FINAL SINGLE POINT ENERGY      -327.211629512661
FINAL SINGLE POINT ENERGY      -327.211631450844
FINAL SINGLE POINT ENERGY      -327.211631761339

CARTESIAN COORDINATES (ANGSTROEM)
---------------------------------
  C     -1.367322   -0.739059   -1.567819
  C     -0.408985   -0.109053   -0.587671
  C      0.988889   -0.647578   -0.770581
  N      1.987861   -0.000971    0.140693
  C     -0.661775    1.319759   -0.171210
  C     -0.914615    0.194636    0.785248
  O     -0.001473    0.000567    1.840707
  H     -2.384303   -0.387058   -1.392012
  H     -1.371764   -1.828236   -1.475356
  H     -1.102593   -0.481154   -2.596294
  H      1.332733   -0.510052   -1.797129
  H      1.010928   -1.715154   -0.541800
  H      2.221625    0.941738   -0.168523
  H      2.851505   -0.539614    0.195915
  H      1.529179    0.060478    1.079763
  H      0.167783    1.977398    0.067503
  H     -1.502593    1.831880   -0.622013
  H     -1.933094   -0.087423    1.029479
  H     -0.288690    0.498276    2.613987

FINAL SINGLE POINT ENERGY      -327.211632531964
                    ***********************HURRAY********************
 Multiplicity           Mult            ....    1
 Number of Electrons    NEL             ....   56
 Basis Dimension        Dim             ....  289
FINAL SINGLE POINT ENERGY      -327.211632704909

VIBRATIONAL FREQUENCIES
-----------------------

   0:         0.00 cm**-1
   1:         0.00 cm**-1
   2:         0.00 cm**-1
   3:         0.00 cm**-1
   4:         0.00 cm**-1
   5:         0.00 cm**-1
   6:       132.12 cm**-1
   7:       199.88 cm**-1
   8:       240.38 cm**-1
   9:       287.24 cm**-1
  10:       296.14 cm**-1
  11:       326.58 cm**-1
  12:       341.56 cm**-1
  13:       404.66 cm**-1
  14:       436.38 cm**-1
  15:       489.23 cm**-1
  16:       535.65 cm**-1
  17:       693.79 cm**-1
  18:       819.98 cm**-1
  19:       868.99 cm**-1
  20:       890.32 cm**-1
  21:       930.47 cm**-1
  22:       954.42 cm**-1
  23:      1019.29 cm**-1
  24:      1041.45 cm**-1
  25:      1055.58 cm**-1
  26:      1080.10 cm**-1
  27:      1102.53 cm**-1
  28:      1136.45 cm**-1
  29:      1160.72 cm**-1
  30:      1192.15 cm**-1
  31:      1244.42 cm**-1
  32:      1288.28 cm**-1
  33:      1343.47 cm**-1
  34:      1356.35 cm**-1
  35:      1413.72 cm**-1
  36:      1425.24 cm**-1
  37:      1433.45 cm**-1
  38:      1482.86 cm**-1
  39:      1486.34 cm**-1
  40:      1494.51 cm**-1
  41:      1506.32 cm**-1
  42:      1525.31 cm**-1
  43:      1641.32 cm**-1
  44:      1679.48 cm**-1
  45:      3039.15 cm**-1
  46:      3054.36 cm**-1
  47:      3088.03 cm**-1
  48:      3126.19 cm**-1
  49:      3140.91 cm**-1
  50:      3145.06 cm**-1
  51:      3147.19 cm**-1
  52:      3179.50 cm**-1
  53:      3235.04 cm**-1
  54:      3482.03 cm**-1
  55:      3540.86 cm**-1
  56:      3830.91 cm**-1

IR SPECTRUM
-----------

 Mode    freq (cm**-1)   T**2         TX         TY         TZ
-------------------------------------------------------------------
   6:       132.12    2.004813  ( -0.095757   1.107685  -0.876743)
   7:       199.88    0.804359  (  0.398859  -0.405305  -0.693541)
   8:       240.38    1.881351  ( -0.802233   0.862502   0.702754)
   9:       287.24   21.052456  (  1.036217   2.501278  -3.704365)
  10:       296.14   33.348940  (  4.548353  -1.365964  -3.285661)
  11:       326.58    8.879868  ( -2.612265   1.370637   0.421060)
  12:       341.56   10.797623  (  0.325970  -2.481398   2.129326)
  13:       404.66   69.427248  ( -2.859546  -6.974779   3.550029)
  14:       436.38   52.704037  ( -5.807237  -3.686186   2.322082)
  15:       489.23    7.314936  (  1.265276   1.526106  -1.839840)
  16:       535.65    6.590005  (  0.984900  -0.486356  -2.320223)
  17:       693.79    9.400351  (  0.766499  -1.692312  -2.439039)
  18:       819.98    0.873617  (  0.899628   0.055113  -0.247488)
  19:       868.99   25.240615  (  0.201863  -0.515939   4.993363)
  20:       890.32    2.645055  (  0.463937   1.207050   0.986330)
  21:       930.47    1.581267  ( -0.484810   0.891936  -0.742076)
  22:       954.42   12.334840  ( -2.134677  -2.639957   0.899233)
  23:      1019.29   18.164305  ( -4.162815   0.911544  -0.066041)
  24:      1041.45    5.593682  ( -1.912108   0.984756   0.983757)
  25:      1055.58   14.793580  (  3.789544   0.595725   0.279364)
  26:      1080.10   16.597536  (  2.465876  -0.690198  -3.168693)
  27:      1102.53   19.040388  ( -0.698240  -1.304294   4.105078)
  28:      1136.45   14.871818  ( -1.810185   1.819130   2.878509)
  29:      1160.72   33.574568  (  4.481210  -2.690281   2.501142)
  30:      1192.15   29.819047  (  2.314446  -0.335293   4.934568)
  31:      1244.42   23.337958  ( -3.350338   2.327634  -2.587530)
  32:      1288.28   51.059666  (  3.683099  -1.461677   5.946255)
  33:      1343.47    2.634240  (  0.531785  -0.589481   1.415612)
  34:      1356.35    6.739746  ( -0.444433  -0.944574   2.376974)
  35:      1413.72    7.704505  ( -0.564012  -2.258895  -1.511221)
  36:      1425.24    2.518282  (  1.150071  -0.680877  -0.855584)
  37:      1433.45    5.495870  ( -1.399721  -1.701895  -0.800129)
  38:      1482.86   18.680160  ( -4.222070   0.847793  -0.368141)
  39:      1486.34   11.746689  ( -0.895677   2.521827  -2.141224)
  40:      1494.51   13.101123  (  0.214450   3.443159   1.095349)
  41:      1506.32  126.338654  (-10.217495  -1.867975  -4.295593)
  42:      1525.31   73.121830  (  8.221847   1.903659  -1.378096)
  43:      1641.32   22.328862  ( -0.845869  -4.278448   1.818860)
  44:      1679.48   37.498909  ( -5.103765   3.282364   0.822546)
  45:      3039.15  440.995295  (-13.951908   1.921166  15.577185)
  46:      3054.36   11.358100  ( -0.036220   1.783989   2.859051)
  47:      3088.03    1.977842  (  0.333221   1.344303  -0.244247)
  48:      3126.19    7.306033  ( -0.425109  -1.967299   1.804176)
  49:      3140.91    0.503741  ( -0.228995   0.671160   0.029100)
  50:      3145.06    6.893282  (  2.614148   0.234262  -0.068056)
  51:      3147.19    5.619559  (  0.200536  -1.662404  -1.678022)
  52:      3179.50    1.835579  ( -1.166520  -0.277053  -0.630914)
  53:      3235.04    1.361662  (  0.947930   0.631821   0.252769)
  54:      3482.03   84.477061  (  8.767419   1.516209  -2.304462)
  55:      3540.86   82.324987  ( -4.023791   7.864545  -2.069549)
  56:      3830.91  115.314970  (  1.995868  -3.882546  -9.811081)

--------------------------
THERMOCHEMISTRY AT 298.15K
--------------------------

Temperature         ... 298.15 K
Pressure            ... 1.00 atm
Total Mass          ... 102.16 AMU

Throughout the following assumptions are being made:
  (1) The electronic state is orbitally nondegenerate
  (2) There are no thermally accessible electronically excited states
  (3) Hindered rotations indicated by low frequency modes) are not
      treated as such but are treated as vibrations and this may
      case some error
  (4) All equations used are the standard statistical mechanics
      equations for an ideal gas
  (5) All vibrations are strinctly harmonic

------------
INNER ENERGY
------------

The inner energy is: U= E(el) + E(ZPE) + E(vib) + E(rot) + E(trans)
    E(el)   - is the total energy from the electronic structure calculation
              = E(kin-el) + E(nuc-el) + E(el-el) + E(nuc-nuc)
    E(ZPE)  - the the zero temperature vibrational energy from the frequency calculation
    E(vib)  - the the finite temperature correction to E(ZPE) due to population
              of excietd vibrational states
    E(rot)  - is the rotational thermal energy
    E(trans)- is the translational thermal energy

Summary of contributions to the inner energy U:
Electronic energy                ...   -327.21163270 Eh
Zero point energy                ...      0.17534227 Eh     110.03 kcal/mol
Thermal vibrational correction   ...      0.00506414 Eh       3.18 kcal/mol
Thermal rotational correction    ...      0.00141627 Eh       0.89 kcal/mol
Thermal translational correction ...      0.00141627 Eh       0.89 kcal/mol
-----------------------------------------------------------------------
Total thermal energy                   -327.02839375 Eh

Summary of corrections to the electronic energy:
(perhaps to be used in another calculation)
Total thermal correction                  0.00789668 Eh       4.96 kcal/mol
Non-thermal (ZPE) correction              0.17534227 Eh     110.03 kcal/mol
-----------------------------------------------------------------------
Total correction                          0.18323895 Eh     114.98 kcal/mol

--------
ENTHALPY
--------

The enthalpy is H = U + kB*T
                kB is Boltzmann's constant
Total free energy                 ...   -327.02839375 Eh
Thermal Enthalpy correction       ...      0.00094421 Eh       0.59 kcal/mol
-----------------------------------------------------------------------
Total Enthalpy                    ...   -327.02744954 Eh

-------
ENTROPY
-------

The entropy contributions are T*S = T*(S(el)+S(vib)+S(rot)+S(trans)
     S(el)   - electronic entropy
     S(vib)  - vibrational entropy
     S(rot)  - rotational entropy
     S(trans)- translational entropy
The entropies will be listed as mutliplied by the temperature to get
units of energy

Electronic entropy                ...      0.00000000 Eh      0.00 kcal/mol
Vibrational entropy               ...      0.00812037 Eh      5.10 kcal/mol
Rotational entropy                ...      0.01201368 Eh      7.54 kcal/mol
Translational entropy             ...      0.01890147 Eh     11.86 kcal/mol
-----------------------------------------------------------------------
Final entropy term                ...      0.03903551 Eh     24.50 kcal/mol

CAUTION: The rotational entropy is not quite correctly treated here
         because it includes a symmetry number that is not yet correctly
         implemented in ORCA!
For a nonlinear molecule the correct rotational entropy is:
    S(rot) = R*(ln(qrot/sn)+1.5)
    R    = 8.31441 J/mol/K = 1.987191683e-3 kcal/mol/K
    qrot = 224701.6933716
    sn is the rotational symmetry number. We have assumed 3 here
       if it is different for your molecule then you should correct
       the printed rotational entropy by manually evaluating the equation
       as given above

For convenience we print out the resulting values for sn=1 - 12:
 sn= 1  qrot/sn=  224701.6934 T*S(rot)=     8.19 kcal/mol T*S(tot)=    25.15 kcal/mol
 sn= 2  qrot/sn=  112350.8467 T*S(rot)=     7.78 kcal/mol T*S(tot)=    24.74 kcal/mol
 sn= 3  qrot/sn=   74900.5645 T*S(rot)=     7.54 kcal/mol T*S(tot)=    24.50 kcal/mol
 sn= 4  qrot/sn=   56175.4233 T*S(rot)=     7.37 kcal/mol T*S(tot)=    24.32 kcal/mol
 sn= 5  qrot/sn=   44940.3387 T*S(rot)=     7.24 kcal/mol T*S(tot)=    24.19 kcal/mol
 sn= 6  qrot/sn=   37450.2822 T*S(rot)=     7.13 kcal/mol T*S(tot)=    24.08 kcal/mol
 sn= 7  qrot/sn=   32100.2419 T*S(rot)=     7.04 kcal/mol T*S(tot)=    23.99 kcal/mol
 sn= 8  qrot/sn=   28087.7117 T*S(rot)=     6.96 kcal/mol T*S(tot)=    23.91 kcal/mol
 sn= 9  qrot/sn=   24966.8548 T*S(rot)=     6.89 kcal/mol T*S(tot)=    23.84 kcal/mol
 sn=10  qrot/sn=   22470.1693 T*S(rot)=     6.83 kcal/mol T*S(tot)=    23.78 kcal/mol
 sn=11  qrot/sn=   20427.4267 T*S(rot)=     6.77 kcal/mol T*S(tot)=    23.73 kcal/mol
 sn=12  qrot/sn=   18725.1411 T*S(rot)=     6.72 kcal/mol T*S(tot)=    23.67 kcal/mol

-------------------
GIBBS FREE ENTHALPY
-------------------

The Gibbs free enthalpy is G = H - T*S

Total enthalpy                    ...   -327.02744954 Eh
Total entropy correction          ...     -0.03903551 Eh    -24.50 kcal/mol
-----------------------------------------------------------------------
Final Gibbs free enthalpy         ...   -327.06648506 Eh

For completeness - the Gibbs free enthalpy minus the electronic energy
G-E(el)                           ...      0.14514765 Eh     91.08 kcal/mol

                             ****ORCA TERMINATED NORMALLY****
TOTAL RUN TIME: 0 days 0 hours 40 minutes 12 seconds 245 msec
