                         Program Version 3.0.3 - RELEASE   -
|  1> ! NORI PBE0 def2-TZVP UseSym TightOPT Freq TightSCF Grid3 FinalGrid5 XYZFile
|  2> % pal
|  3>     nprocs 8
|  4> end
|  5> %method
|  6>     SymThresh 5.0e-2
|  7> end
|  8> % geom
|  9>     MaxIter 10
| 10> end
| 11> % maxcore 2000
| 12> % output
| 13>     printlevel mini
| 14>     print[ P_Basis ] 0
| 15>     print[ P_SCFInfo ] 1
| 16>     print[ P_SCFIterInfo ] 1
| 17>     print[ P_OrbEn ] 0
| 18>     print[ P_Cartesian ] 0
| 19> end
| 20> % elprop
| 21>     Dipole false
| 22> end
| 23> *xyz 1 1
| 24>  C        1.0876569062     0.2542252638     0.2605529609
| 25>  C        2.5816957720     0.0571572289     0.2452659476
| 26>  C        3.4754224259     0.7360529148     1.2903698301
| 27>  N        4.0619320002     2.0742119995     0.9284357677
| 28>  C        4.4167328885    -0.4645714353     1.2855777021
| 29>  C        3.2104439588    -1.2728225139     0.7434098441
| 30>  O        3.3995720512    -2.3246261118    -0.1260686692
| 31>  H        0.6117752240    -0.4426566758    -0.4314302194
| 32>  H        0.7950887287     1.2628253177    -0.0435177144
| 33>  H        0.6774908673     0.0654001995     1.2554756855
| 34>  H        2.9997789612     0.2563586664    -0.7528368424
| 35>  H        2.9688244857     0.8805261186     2.2458469592
| 36>  H        4.5633215135     2.0185690646     0.0394537116
| 37>  H        4.7231244228     2.3993393872     1.6380078707
| 38>  H        3.3331238551     2.7852663799     0.8306745191
| 39>  H        5.1835251076    -0.3706911876     0.5082748520
| 40>  H        4.8844090814    -0.7668520276     2.2208578951
| 41>  H        2.6224172273    -1.6682423519     1.5755345730
| 42>  H        3.9170345224    -2.0504802370    -0.8891146732
| 43> *
| 44>
| 45>                          ****END OF INPUT****
 Total Charge           Charge          ....    1
 Multiplicity           Mult            ....    1
 Number of Electrons    NEL             ....   56
FINAL SINGLE POINT ENERGY      -327.206405231087
FINAL SINGLE POINT ENERGY      -327.206406577495

CARTESIAN COORDINATES (ANGSTROEM)
---------------------------------
  C     -1.731943   -1.245750   -0.412607
  C     -0.394464   -0.629618   -0.090265
  C      0.209755    0.454070   -0.991853
  N      1.144004   -0.000234   -2.081062
  C      0.832497    1.136708    0.223030
  C     -0.254734    0.409719    1.054821
  O      0.001904   -0.001028    2.344400
  H     -2.075949   -1.851890    0.427454
  H     -1.691347   -1.900143   -1.287910
  H     -2.485087   -0.475914   -0.596688
  H      0.367750   -1.403481    0.083624
  H     -0.550420    1.062428   -1.484238
  H      1.893913   -0.576623   -1.693762
  H      1.577621    0.792897   -2.559733
  H      0.653252   -0.558838   -2.783488
  H      1.819455    0.721626    0.454388
  H      0.882613    2.223961    0.244015
  H     -1.157812    1.023493    1.106053
  H      0.795240   -0.543957    2.380779

FINAL SINGLE POINT ENERGY      -327.206407335011
                    ***********************HURRAY********************
 Multiplicity           Mult            ....    1
 Number of Electrons    NEL             ....   56
 Basis Dimension        Dim             ....  289
FINAL SINGLE POINT ENERGY      -327.206407604299

VIBRATIONAL FREQUENCIES
-----------------------

   0:         0.00 cm**-1
   1:         0.00 cm**-1
   2:         0.00 cm**-1
   3:         0.00 cm**-1
   4:         0.00 cm**-1
   5:         0.00 cm**-1
   6:       113.12 cm**-1
   7:       189.98 cm**-1
   8:       202.67 cm**-1
   9:       221.12 cm**-1
  10:       242.98 cm**-1
  11:       300.97 cm**-1
  12:       319.15 cm**-1
  13:       420.26 cm**-1
  14:       461.42 cm**-1
  15:       505.32 cm**-1
  16:       565.23 cm**-1
  17:       797.41 cm**-1
  18:       808.81 cm**-1
  19:       883.09 cm**-1
  20:       913.16 cm**-1
  21:       941.10 cm**-1
  22:       984.31 cm**-1
  23:      1012.75 cm**-1
  24:      1055.00 cm**-1
  25:      1093.32 cm**-1
  26:      1151.21 cm**-1
  27:      1158.64 cm**-1
  28:      1187.74 cm**-1
  29:      1202.38 cm**-1
  30:      1234.07 cm**-1
  31:      1237.12 cm**-1
  32:      1266.23 cm**-1
  33:      1297.15 cm**-1
  34:      1349.95 cm**-1
  35:      1378.00 cm**-1
  36:      1412.97 cm**-1
  37:      1418.13 cm**-1
  38:      1449.29 cm**-1
  39:      1479.41 cm**-1
  40:      1482.41 cm**-1
  41:      1488.57 cm**-1
  42:      1500.45 cm**-1
  43:      1655.14 cm**-1
  44:      1656.64 cm**-1
  45:      3013.64 cm**-1
  46:      3051.37 cm**-1
  47:      3061.07 cm**-1
  48:      3095.30 cm**-1
  49:      3120.33 cm**-1
  50:      3122.76 cm**-1
  51:      3141.20 cm**-1
  52:      3159.80 cm**-1
  53:      3413.94 cm**-1
  54:      3497.43 cm**-1
  55:      3503.27 cm**-1
  56:      3844.55 cm**-1

IR SPECTRUM
-----------

 Mode    freq (cm**-1)   T**2         TX         TY         TZ
-------------------------------------------------------------------
   6:       113.12    1.867582  ( -1.072440   0.024632  -0.846669)
   7:       189.98    2.396157  ( -1.132037  -1.040809   0.177107)
   8:       202.67    0.085784  (  0.099511  -0.077592   0.264312)
   9:       221.12    4.599242  (  1.925835   0.909950   0.249783)
  10:       242.98   12.168124  ( -2.039038  -2.824949   0.173531)
  11:       300.97   42.117914  ( -4.003863  -5.028376  -0.895787)
  12:       319.15   54.521439  ( -3.953952  -5.928834  -1.933038)
  13:       420.26   14.768494  (  0.678653   2.549724  -2.794070)
  14:       461.42   13.803695  (  1.973023   2.785281   1.467340)
  15:       505.32    4.906223  (  2.025377  -0.098071  -0.891321)
  16:       565.23    4.422947  (  0.483936  -0.853270  -1.860291)
  17:       797.41    3.055911  ( -0.017404   0.679134  -1.610709)
  18:       808.81    4.059146  ( -1.892703  -0.509319   0.466278)
  19:       883.09   15.019925  ( -1.350323  -3.007595  -2.037381)
  20:       913.16    1.947836  (  0.124003  -1.224456   0.658154)
  21:       941.10    4.313338  (  0.047464  -0.053556   2.075624)
  22:       984.31   20.701858  ( -0.527596  -3.261268   3.128519)
  23:      1012.75   18.632687  (  2.795875  -0.211354  -3.281935)
  24:      1055.00   10.405926  (  1.189447   0.766918   2.898789)
  25:      1093.32   65.054832  (  1.211009  -1.558687   7.820408)
  26:      1151.21    3.504421  (  1.202489   1.418309  -0.216430)
  27:      1158.64    3.229022  (  0.704402   1.455938  -0.782998)
  28:      1187.74   54.130781  (  0.549537  -3.405344   6.498648)
  29:      1202.38   28.866042  (  2.669771   0.514393   4.633980)
  30:      1234.07    4.854510  (  0.183051   1.015735  -1.946609)
  31:      1237.12   53.111838  ( -0.770603  -0.119977   7.245938)
  32:      1266.23   18.511902  (  0.311915   0.757288  -4.223876)
  33:      1297.15    1.449099  ( -0.943766  -0.284270   0.691082)
  34:      1349.95    0.801496  ( -0.380443   0.344504   0.733537)
  35:      1378.00    5.153544  ( -0.565092   0.110539   2.195904)
  36:      1412.97   42.830972  ( -1.546121  -1.077383   6.267354)
  37:      1418.13    8.038835  ( -1.948097  -0.367902  -2.026919)
  38:      1449.29   29.839281  ( -1.629886   0.821263  -5.148619)
  39:      1479.41    8.572059  (  0.199488   2.702676   1.108064)
  40:      1482.41   29.289704  ( -1.437728  -0.672926   5.173955)
  41:      1488.57    4.988620  (  0.345698   2.123697  -0.599186)
  42:      1500.45  138.093402  (  8.310214  -4.098732  -7.227320)
  43:      1655.14   35.342679  (  2.100058   5.537210  -0.521288)
  44:      1656.64   49.550933  (  4.919268  -1.827952   4.691516)
  45:      3013.64   14.734032  ( -3.646638   1.093274  -0.490726)
  46:      3051.37    8.760332  ( -1.694672  -0.973822  -2.222631)
  47:      3061.07    5.528241  ( -2.281454   0.553389   0.130262)
  48:      3095.30    8.794739  ( -2.570022   1.084756  -1.006494)
  49:      3120.33    3.177234  (  0.728113   0.537261   1.535720)
  50:      3122.76   11.307538  ( -1.730338   2.513103   1.413430)
  51:      3141.20    3.324281  ( -0.825684   1.232006  -1.060513)
  52:      3159.80    4.681033  (  0.008714   2.160287  -0.118822)
  53:      3413.94   40.737199  (  3.198449  -0.797659  -5.465424)
  54:      3497.43   91.903161  ( -5.301251  -7.946349  -0.809594)
  55:      3503.27   77.458064  ( -4.977050   4.200576  -5.919645)
  56:      3844.55   42.083637  (  4.126207  -3.203352   3.846633)

--------------------------
THERMOCHEMISTRY AT 298.15K
--------------------------

Temperature         ... 298.15 K
Pressure            ... 1.00 atm
Total Mass          ... 102.16 AMU

Throughout the following assumptions are being made:
  (1) The electronic state is orbitally nondegenerate
  (2) There are no thermally accessible electronically excited states
  (3) Hindered rotations indicated by low frequency modes) are not
      treated as such but are treated as vibrations and this may
      case some error
  (4) All equations used are the standard statistical mechanics
      equations for an ideal gas
  (5) All vibrations are strinctly harmonic

------------
INNER ENERGY
------------

The inner energy is: U= E(el) + E(ZPE) + E(vib) + E(rot) + E(trans)
    E(el)   - is the total energy from the electronic structure calculation
              = E(kin-el) + E(nuc-el) + E(el-el) + E(nuc-nuc)
    E(ZPE)  - the the zero temperature vibrational energy from the frequency calculation
    E(vib)  - the the finite temperature correction to E(ZPE) due to population
              of excietd vibrational states
    E(rot)  - is the rotational thermal energy
    E(trans)- is the translational thermal energy

Summary of contributions to the inner energy U:
Electronic energy                ...   -327.20640760 Eh
Zero point energy                ...      0.17555870 Eh     110.16 kcal/mol
Thermal vibrational correction   ...      0.00525886 Eh       3.30 kcal/mol
Thermal rotational correction    ...      0.00141627 Eh       0.89 kcal/mol
Thermal translational correction ...      0.00141627 Eh       0.89 kcal/mol
-----------------------------------------------------------------------
Total thermal energy                   -327.02275750 Eh

Summary of corrections to the electronic energy:
(perhaps to be used in another calculation)
Total thermal correction                  0.00809140 Eh       5.08 kcal/mol
Non-thermal (ZPE) correction              0.17555870 Eh     110.16 kcal/mol
-----------------------------------------------------------------------
Total correction                          0.18365010 Eh     115.24 kcal/mol

--------
ENTHALPY
--------

The enthalpy is H = U + kB*T
                kB is Boltzmann's constant
Total free energy                 ...   -327.02275750 Eh
Thermal Enthalpy correction       ...      0.00094421 Eh       0.59 kcal/mol
-----------------------------------------------------------------------
Total Enthalpy                    ...   -327.02181330 Eh

-------
ENTROPY
-------

The entropy contributions are T*S = T*(S(el)+S(vib)+S(rot)+S(trans)
     S(el)   - electronic entropy
     S(vib)  - vibrational entropy
     S(rot)  - rotational entropy
     S(trans)- translational entropy
The entropies will be listed as mutliplied by the temperature to get
units of energy

Electronic entropy                ...      0.00000000 Eh      0.00 kcal/mol
Vibrational entropy               ...      0.00875386 Eh      5.49 kcal/mol
Rotational entropy                ...      0.01215379 Eh      7.63 kcal/mol
Translational entropy             ...      0.01890147 Eh     11.86 kcal/mol
-----------------------------------------------------------------------
Final entropy term                ...      0.03980912 Eh     24.98 kcal/mol

CAUTION: The rotational entropy is not quite correctly treated here
         because it includes a symmetry number that is not yet correctly
         implemented in ORCA!
For a nonlinear molecule the correct rotational entropy is:
    S(rot) = R*(ln(qrot/sn)+1.5)
    R    = 8.31441 J/mol/K = 1.987191683e-3 kcal/mol/K
    qrot = 260648.1307531
    sn is the rotational symmetry number. We have assumed 3 here
       if it is different for your molecule then you should correct
       the printed rotational entropy by manually evaluating the equation
       as given above

For convenience we print out the resulting values for sn=1 - 12:
 sn= 1  qrot/sn=  260648.1308 T*S(rot)=     8.28 kcal/mol T*S(tot)=    25.63 kcal/mol
 sn= 2  qrot/sn=  130324.0654 T*S(rot)=     7.87 kcal/mol T*S(tot)=    25.22 kcal/mol
 sn= 3  qrot/sn=   86882.7103 T*S(rot)=     7.63 kcal/mol T*S(tot)=    24.98 kcal/mol
 sn= 4  qrot/sn=   65162.0327 T*S(rot)=     7.46 kcal/mol T*S(tot)=    24.81 kcal/mol
 sn= 5  qrot/sn=   52129.6262 T*S(rot)=     7.32 kcal/mol T*S(tot)=    24.68 kcal/mol
 sn= 6  qrot/sn=   43441.3551 T*S(rot)=     7.22 kcal/mol T*S(tot)=    24.57 kcal/mol
 sn= 7  qrot/sn=   37235.4473 T*S(rot)=     7.12 kcal/mol T*S(tot)=    24.48 kcal/mol
 sn= 8  qrot/sn=   32581.0163 T*S(rot)=     7.05 kcal/mol T*S(tot)=    24.40 kcal/mol
 sn= 9  qrot/sn=   28960.9034 T*S(rot)=     6.98 kcal/mol T*S(tot)=    24.33 kcal/mol
 sn=10  qrot/sn=   26064.8131 T*S(rot)=     6.91 kcal/mol T*S(tot)=    24.27 kcal/mol
 sn=11  qrot/sn=   23695.2846 T*S(rot)=     6.86 kcal/mol T*S(tot)=    24.21 kcal/mol
 sn=12  qrot/sn=   21720.6776 T*S(rot)=     6.81 kcal/mol T*S(tot)=    24.16 kcal/mol

-------------------
GIBBS FREE ENTHALPY
-------------------

The Gibbs free enthalpy is G = H - T*S

Total enthalpy                    ...   -327.02181330 Eh
Total entropy correction          ...     -0.03980912 Eh    -24.98 kcal/mol
-----------------------------------------------------------------------
Final Gibbs free enthalpy         ...   -327.06162241 Eh

For completeness - the Gibbs free enthalpy minus the electronic energy
G-E(el)                           ...      0.14478519 Eh     90.85 kcal/mol

                             ****ORCA TERMINATED NORMALLY****
TOTAL RUN TIME: 0 days 0 hours 38 minutes 3 seconds 309 msec
