                         Program Version 3.0.3 - RELEASE   -
|  1> ! NORI PBE0 def2-TZVP UseSym TightOPT Freq TightSCF Grid3 FinalGrid5 XYZFile
|  2> % pal
|  3>     nprocs 8
|  4> end
|  5> %method
|  6>     SymThresh 5.0e-2
|  7> end
|  8> % geom
|  9>     MaxIter 10
| 10> end
| 11> % maxcore 2000
| 12> % output
| 13>     printlevel mini
| 14>     print[ P_Basis ] 0
| 15>     print[ P_SCFInfo ] 1
| 16>     print[ P_SCFIterInfo ] 1
| 17>     print[ P_OrbEn ] 0
| 18>     print[ P_Cartesian ] 0
| 19> end
| 20> % elprop
| 21>     Dipole false
| 22> end
| 23> *xyz 1 1
| 24>  C        1.0008824160    -0.0783105158     0.0427369393
| 25>  C        2.5172005133    -0.0403653431     0.0635614187
| 26>  C        3.1275322352     1.0609268431     0.9097698819
| 27>  N        4.5156958799     0.5446251758     1.2392061486
| 28>  C        4.3860698204    -0.9316096666     1.4410676574
| 29>  C        3.1473769098    -1.3096527538     0.6212811605
| 30>  O        2.7667455562    -2.4266673152     0.4859614247
| 31>  H        0.6657090254    -0.9519049848    -0.5160690412
| 32>  H        0.5919901184     0.8128064785    -0.4349150480
| 33>  H        0.5952824329    -0.1492532982     1.0541341830
| 34>  H        2.8938639778     0.0471607949    -0.9666849527
| 35>  H        2.6020371984     1.1785605408     1.8592658273
| 36>  H        3.2177143082     2.0315966477     0.4255043323
| 37>  H        4.9093813068     1.0159084673     2.0538081562
| 38>  H        5.1447940566     0.7365021930     0.4580001878
| 39>  H        5.2854332493    -1.4546955538     1.1199818477
| 40>  H        4.2072309954    -1.1337877097     2.4984998766
| 41> *
| 42>
| 43>                          ****END OF INPUT****
 Total Charge           Charge          ....    1
 Multiplicity           Mult            ....    1
 Number of Electrons    NEL             ....   54
FINAL SINGLE POINT ENERGY      -326.018476557509

CARTESIAN COORDINATES (ANGSTROEM)
---------------------------------
  C     -2.207769    0.033328    0.027036
  C     -0.791580   -0.437221   -0.246241
  C     -0.157125    0.111363   -1.510476
  N      1.333711   -0.000127   -1.251613
  C      1.539869    0.305722    0.197898
  C      0.196617   -0.049158    0.845517
  O     -0.000464    0.001261    2.015690
  H     -2.535965   -0.342502    0.995947
  H     -2.897074   -0.331937   -0.734948
  H     -2.261678    1.123793    0.052677
  H     -0.773538   -1.536963   -0.282521
  H     -0.375012    1.172897   -1.643465
  H     -0.397088   -0.423159   -2.427917
  H      1.869134    0.619259   -1.860091
  H      1.644554   -0.951029   -1.455812
  H      2.373442   -0.262902    0.607028
  H      1.737404    1.372721    0.314045

FINAL SINGLE POINT ENERGY      -326.018477267391
                    ***********************HURRAY********************
 Multiplicity           Mult            ....    1
 Number of Electrons    NEL             ....   54
 Basis Dimension        Dim             ....  277
FINAL SINGLE POINT ENERGY      -326.018477867734

VIBRATIONAL FREQUENCIES
-----------------------

   0:         0.00 cm**-1
   1:         0.00 cm**-1
   2:         0.00 cm**-1
   3:         0.00 cm**-1
   4:         0.00 cm**-1
   5:         0.00 cm**-1
   6:        86.64 cm**-1
   7:       188.21 cm**-1
   8:       200.15 cm**-1
   9:       241.13 cm**-1
  10:       345.27 cm**-1
  11:       454.70 cm**-1
  12:       556.36 cm**-1
  13:       571.05 cm**-1
  14:       621.39 cm**-1
  15:       720.45 cm**-1
  16:       843.88 cm**-1
  17:       878.64 cm**-1
  18:       913.48 cm**-1
  19:       934.41 cm**-1
  20:       969.36 cm**-1
  21:       989.15 cm**-1
  22:      1047.04 cm**-1
  23:      1071.94 cm**-1
  24:      1157.79 cm**-1
  25:      1171.58 cm**-1
  26:      1198.90 cm**-1
  27:      1234.76 cm**-1
  28:      1281.47 cm**-1
  29:      1324.02 cm**-1
  30:      1328.60 cm**-1
  31:      1347.54 cm**-1
  32:      1387.04 cm**-1
  33:      1398.02 cm**-1
  34:      1420.78 cm**-1
  35:      1458.58 cm**-1
  36:      1486.13 cm**-1
  37:      1489.44 cm**-1
  38:      1501.53 cm**-1
  39:      1656.69 cm**-1
  40:      1905.13 cm**-1
  41:      3016.68 cm**-1
  42:      3068.68 cm**-1
  43:      3098.91 cm**-1
  44:      3107.63 cm**-1
  45:      3148.28 cm**-1
  46:      3164.55 cm**-1
  47:      3171.74 cm**-1
  48:      3177.35 cm**-1
  49:      3459.31 cm**-1
  50:      3514.30 cm**-1

IR SPECTRUM
-----------

 Mode    freq (cm**-1)   T**2         TX         TY         TZ
-------------------------------------------------------------------
   6:        86.64    2.707661  ( -0.548722   1.548111   0.099586)
   7:       188.21    2.339733  ( -0.900648  -1.227836   0.144863)
   8:       200.15    0.155594  ( -0.254186  -0.265059  -0.143970)
   9:       241.13    5.476489  ( -2.077501   0.296971  -1.035512)
  10:       345.27    0.565382  ( -0.681031  -0.247717   0.200538)
  11:       454.70    3.505759  (  1.797741   0.410017  -0.325229)
  12:       556.36    2.315793  (  0.835711   0.689976  -1.068323)
  13:       571.05    5.028741  ( -0.153137   0.627307   2.147505)
  14:       621.39    4.189448  (  0.223739  -1.016856   1.762213)
  15:       720.45    1.829783  ( -0.309072   0.416276  -1.249389)
  16:       843.88   14.283227  ( -1.623503  -3.261948  -1.003574)
  17:       878.64    2.962980  (  1.648888  -0.491220   0.053411)
  18:       913.48    3.011068  (  0.838977   0.985541  -1.155809)
  19:       934.41   15.125575  (  3.588625   1.381275  -0.582604)
  20:       969.36    8.704824  ( -1.806557  -1.606124   1.691609)
  21:       989.15    2.778866  (  0.479855   0.358750   1.555604)
  22:      1047.04   11.461715  (  3.118172   0.934183   0.930603)
  23:      1071.94    9.622779  (  2.928624   0.437803   0.924266)
  24:      1157.79    1.560554  (  1.081843  -0.044452   0.623052)
  25:      1171.58   38.979047  (  6.024023   1.317969   0.976296)
  26:      1198.90    4.557418  ( -1.528246  -0.143977  -1.483628)
  27:      1234.76    7.976535  ( -2.118191   0.233357  -1.853469)
  28:      1281.47   17.513781  ( -3.381427  -2.029958  -1.399643)
  29:      1324.02   17.803103  (  3.848182   0.412961   1.680495)
  30:      1328.60    2.934814  ( -0.986839   0.835949  -1.123455)
  31:      1347.54    3.628739  ( -0.327574  -0.083602   1.874685)
  32:      1387.04   21.834126  ( -3.429490  -0.152818  -3.170075)
  33:      1398.02    5.879052  (  1.494051  -0.304110   1.885307)
  34:      1420.78    7.037694  ( -1.850041   0.647254   1.787765)
  35:      1458.58   20.964577  (  4.115611   1.787703   0.911286)
  36:      1486.13    8.687014  (  0.280064  -0.286731   2.919994)
  37:      1489.44   13.122524  ( -1.969592  -2.943113  -0.762441)
  38:      1501.53   16.178466  ( -0.521335  -3.061213   2.556492)
  39:      1656.69   71.173730  ( -5.925078   2.364714   5.520445)
  40:      1905.13  177.430771  ( -1.822526   0.120342  13.194495)
  41:      3016.68    5.143062  ( -2.128813   0.147075  -0.767844)
  42:      3068.68    4.521563  (  1.432749  -1.268599   0.927065)
  43:      3098.91    1.077295  (  0.127022   0.883061  -0.530437)
  44:      3107.63    6.830715  (  2.404581   1.021165   0.076968)
  45:      3148.28    4.245743  (  0.708448   1.840627   0.596604)
  46:      3164.55    0.375807  ( -0.442631   0.175655  -0.386043)
  47:      3171.74    0.019125  (  0.071352   0.092704   0.073757)
  48:      3177.35    4.627527  ( -1.101645   1.816041  -0.340440)
  49:      3459.31   77.798516  (  6.156843  -2.569165  -5.769852)
  50:      3514.30   90.564727  ( -2.111495  -8.737542   3.124368)

--------------------------
THERMOCHEMISTRY AT 298.15K
--------------------------

Temperature         ... 298.15 K
Pressure            ... 1.00 atm
Total Mass          ... 100.14 AMU

Throughout the following assumptions are being made:
  (1) The electronic state is orbitally nondegenerate
  (2) There are no thermally accessible electronically excited states
  (3) Hindered rotations indicated by low frequency modes) are not
      treated as such but are treated as vibrations and this may
      case some error
  (4) All equations used are the standard statistical mechanics
      equations for an ideal gas
  (5) All vibrations are strinctly harmonic

------------
INNER ENERGY
------------

The inner energy is: U= E(el) + E(ZPE) + E(vib) + E(rot) + E(trans)
    E(el)   - is the total energy from the electronic structure calculation
              = E(kin-el) + E(nuc-el) + E(el-el) + E(nuc-nuc)
    E(ZPE)  - the the zero temperature vibrational energy from the frequency calculation
    E(vib)  - the the finite temperature correction to E(ZPE) due to population
              of excietd vibrational states
    E(rot)  - is the rotational thermal energy
    E(trans)- is the translational thermal energy

Summary of contributions to the inner energy U:
Electronic energy                ...   -326.01847787 Eh
Zero point energy                ...      0.15334044 Eh      96.22 kcal/mol
Thermal vibrational correction   ...      0.00416202 Eh       2.61 kcal/mol
Thermal rotational correction    ...      0.00141627 Eh       0.89 kcal/mol
Thermal translational correction ...      0.00141627 Eh       0.89 kcal/mol
-----------------------------------------------------------------------
Total thermal energy                   -325.85814286 Eh

Summary of corrections to the electronic energy:
(perhaps to be used in another calculation)
Total thermal correction                  0.00699457 Eh       4.39 kcal/mol
Non-thermal (ZPE) correction              0.15334044 Eh      96.22 kcal/mol
-----------------------------------------------------------------------
Total correction                          0.16033501 Eh     100.61 kcal/mol

--------
ENTHALPY
--------

The enthalpy is H = U + kB*T
                kB is Boltzmann's constant
Total free energy                 ...   -325.85814286 Eh
Thermal Enthalpy correction       ...      0.00094421 Eh       0.59 kcal/mol
-----------------------------------------------------------------------
Total Enthalpy                    ...   -325.85719865 Eh

-------
ENTROPY
-------

The entropy contributions are T*S = T*(S(el)+S(vib)+S(rot)+S(trans)
     S(el)   - electronic entropy
     S(vib)  - vibrational entropy
     S(rot)  - rotational entropy
     S(trans)- translational entropy
The entropies will be listed as mutliplied by the temperature to get
units of energy

Electronic entropy                ...      0.00000000 Eh      0.00 kcal/mol
Vibrational entropy               ...      0.00709077 Eh      4.45 kcal/mol
Rotational entropy                ...      0.01194941 Eh      7.50 kcal/mol
Translational entropy             ...      0.01887324 Eh     11.84 kcal/mol
-----------------------------------------------------------------------
Final entropy term                ...      0.03791341 Eh     23.79 kcal/mol

CAUTION: The rotational entropy is not quite correctly treated here
         because it includes a symmetry number that is not yet correctly
         implemented in ORCA!
For a nonlinear molecule the correct rotational entropy is:
    S(rot) = R*(ln(qrot/sn)+1.5)
    R    = 8.31441 J/mol/K = 1.987191683e-3 kcal/mol/K
    qrot = 209914.2979143
    sn is the rotational symmetry number. We have assumed 3 here
       if it is different for your molecule then you should correct
       the printed rotational entropy by manually evaluating the equation
       as given above

For convenience we print out the resulting values for sn=1 - 12:
 sn= 1  qrot/sn=  209914.2979 T*S(rot)=     8.15 kcal/mol T*S(tot)=    24.44 kcal/mol
 sn= 2  qrot/sn=  104957.1490 T*S(rot)=     7.74 kcal/mol T*S(tot)=    24.03 kcal/mol
 sn= 3  qrot/sn=   69971.4326 T*S(rot)=     7.50 kcal/mol T*S(tot)=    23.79 kcal/mol
 sn= 4  qrot/sn=   52478.5745 T*S(rot)=     7.33 kcal/mol T*S(tot)=    23.62 kcal/mol
 sn= 5  qrot/sn=   41982.8596 T*S(rot)=     7.20 kcal/mol T*S(tot)=    23.49 kcal/mol
 sn= 6  qrot/sn=   34985.7163 T*S(rot)=     7.09 kcal/mol T*S(tot)=    23.38 kcal/mol
 sn= 7  qrot/sn=   29987.7568 T*S(rot)=     7.00 kcal/mol T*S(tot)=    23.29 kcal/mol
 sn= 8  qrot/sn=   26239.2872 T*S(rot)=     6.92 kcal/mol T*S(tot)=    23.21 kcal/mol
 sn= 9  qrot/sn=   23323.8109 T*S(rot)=     6.85 kcal/mol T*S(tot)=    23.14 kcal/mol
 sn=10  qrot/sn=   20991.4298 T*S(rot)=     6.79 kcal/mol T*S(tot)=    23.08 kcal/mol
 sn=11  qrot/sn=   19083.1180 T*S(rot)=     6.73 kcal/mol T*S(tot)=    23.02 kcal/mol
 sn=12  qrot/sn=   17492.8582 T*S(rot)=     6.68 kcal/mol T*S(tot)=    22.97 kcal/mol

-------------------
GIBBS FREE ENTHALPY
-------------------

The Gibbs free enthalpy is G = H - T*S

Total enthalpy                    ...   -325.85719865 Eh
Total entropy correction          ...     -0.03791341 Eh    -23.79 kcal/mol
-----------------------------------------------------------------------
Final Gibbs free enthalpy         ...   -325.89511206 Eh

For completeness - the Gibbs free enthalpy minus the electronic energy
G-E(el)                           ...      0.12336581 Eh     77.41 kcal/mol

                             ****ORCA TERMINATED NORMALLY****
TOTAL RUN TIME: 0 days 0 hours 32 minutes 11 seconds 491 msec
