                         Program Version 3.0.3 - RELEASE   -
|  1> ! NORI PBE0 def2-TZVP UseSym TightOPT Freq TightSCF Grid3 FinalGrid5 XYZFile
|  2> % pal
|  3>     nprocs 8
|  4> end
|  5> %method
|  6>     SymThresh 5.0e-2
|  7> end
|  8> % geom
|  9>     MaxIter 10
| 10> end
| 11> % maxcore 2000
| 12> % output
| 13>     printlevel mini
| 14>     print[ P_Basis ] 0
| 15>     print[ P_SCFInfo ] 1
| 16>     print[ P_SCFIterInfo ] 1
| 17>     print[ P_OrbEn ] 0
| 18>     print[ P_Cartesian ] 0
| 19> end
| 20> % elprop
| 21>     Dipole false
| 22> end
| 23> *xyz 1 1
| 24>  C        0.8478945365     0.0432584018     0.0786907816
| 25>  C        2.3574406760    -0.0082501719    -0.0842532820
| 26>  C        2.8991226808    -1.3954920328    -0.4065016960
| 27>  N        2.5565091939    -1.7543411819    -1.8237187913
| 28>  C        3.0501967567    -0.7133266612    -2.7855691387
| 29>  C        2.5059975060     0.6334431474    -2.3575204022
| 30>  O        2.8569901971     0.9192204902    -1.0304259294
| 31>  H        0.5428633296     1.0700896387     0.2807242318
| 32>  H        0.5394814062    -0.5725882072     0.9256450940
| 33>  H        0.2887011682    -0.2930283545    -0.7991278233
| 34>  H        2.8161838544     0.2869359714     0.8622496284
| 35>  H        3.9877501802    -1.4082191891    -0.3414658527
| 36>  H        2.4853901159    -2.1646014111     0.2461930308
| 37>  H        2.9518961719    -2.6659490576    -2.0573128091
| 38>  H        1.5421409641    -1.8448368148    -1.9142033763
| 39>  H        4.1396926059    -0.7328941466    -2.7335819101
| 40>  H        2.7254519623    -0.9927483754    -3.7885881265
| 41>  H        1.4190051317     0.6747808361    -2.5104516269
| 42>  H        2.9512515626     1.4092371185    -2.9809920021
| 43> *
| 44>
| 45>                          ****END OF INPUT****
 Total Charge           Charge          ....    1
 Multiplicity           Mult            ....    1
 Number of Electrons    NEL             ....   56
FINAL SINGLE POINT ENERGY      -327.221605946542
FINAL SINGLE POINT ENERGY      -327.221611722060
FINAL SINGLE POINT ENERGY      -327.221615818122

CARTESIAN COORDINATES (ANGSTROEM)
---------------------------------
  C     -2.071833   -0.068114    0.019627
  C     -0.784426   -0.757981    0.438480
  C      0.083837   -1.201094   -0.732128
  N      0.715089    0.002378   -1.370188
  C      1.489034    0.806124   -0.365937
  C      0.567579    1.154329    0.784220
  O     -0.000983    0.000544    1.341592
  H     -2.616086    0.250387    0.908935
  H     -2.707026   -0.762385   -0.534009
  H     -1.924835    0.817986   -0.605313
  H     -1.042807   -1.664695    0.990432
  H      0.903911   -1.832585   -0.389213
  H     -0.488478   -1.727974   -1.496210
  H      1.324120   -0.287279   -2.136392
  H     -0.015417    0.587614   -1.782003
  H      2.314469    0.175299   -0.033242
  H      1.882572    1.692206   -0.865420
  H     -0.198388    1.871338    0.459146
  H      1.150222    1.636319    1.570073

FINAL SINGLE POINT ENERGY      -327.221616359935
                    ***********************HURRAY********************
 Multiplicity           Mult            ....    1
 Number of Electrons    NEL             ....   56
 Basis Dimension        Dim             ....  289
FINAL SINGLE POINT ENERGY      -327.221616724097

VIBRATIONAL FREQUENCIES
-----------------------

   0:         0.00 cm**-1
   1:         0.00 cm**-1
   2:         0.00 cm**-1
   3:         0.00 cm**-1
   4:         0.00 cm**-1
   5:         0.00 cm**-1
   6:       158.88 cm**-1
   7:       204.85 cm**-1
   8:       233.21 cm**-1
   9:       333.36 cm**-1
  10:       372.06 cm**-1
  11:       413.62 cm**-1
  12:       461.95 cm**-1
  13:       530.40 cm**-1
  14:       644.64 cm**-1
  15:       787.12 cm**-1
  16:       837.57 cm**-1
  17:       863.47 cm**-1
  18:       878.07 cm**-1
  19:       918.59 cm**-1
  20:       950.08 cm**-1
  21:       983.10 cm**-1
  22:      1047.80 cm**-1
  23:      1064.99 cm**-1
  24:      1096.61 cm**-1
  25:      1114.90 cm**-1
  26:      1179.44 cm**-1
  27:      1184.23 cm**-1
  28:      1226.38 cm**-1
  29:      1259.82 cm**-1
  30:      1320.45 cm**-1
  31:      1339.29 cm**-1
  32:      1366.08 cm**-1
  33:      1373.69 cm**-1
  34:      1404.71 cm**-1
  35:      1409.12 cm**-1
  36:      1415.39 cm**-1
  37:      1420.40 cm**-1
  38:      1437.43 cm**-1
  39:      1474.73 cm**-1
  40:      1476.89 cm**-1
  41:      1492.08 cm**-1
  42:      1497.17 cm**-1
  43:      1500.21 cm**-1
  44:      1645.26 cm**-1
  45:      3026.57 cm**-1
  46:      3054.56 cm**-1
  47:      3098.11 cm**-1
  48:      3098.68 cm**-1
  49:      3103.86 cm**-1
  50:      3128.13 cm**-1
  51:      3136.84 cm**-1
  52:      3157.23 cm**-1
  53:      3162.71 cm**-1
  54:      3164.82 cm**-1
  55:      3438.80 cm**-1
  56:      3496.15 cm**-1

IR SPECTRUM
-----------

 Mode    freq (cm**-1)   T**2         TX         TY         TZ
-------------------------------------------------------------------
   6:       158.88    4.458814  (  2.096429  -0.162852  -0.193076)
   7:       204.85    0.092210  (  0.232533   0.195281   0.001847)
   8:       233.21    1.474814  ( -0.934946   0.286564   0.720119)
   9:       333.36    3.305127  (  1.756124  -0.367101  -0.293929)
  10:       372.06    0.922234  ( -0.926278   0.251338   0.032737)
  11:       413.62   21.351753  ( -3.200379   1.202081   3.108750)
  12:       461.95    4.708639  (  1.328744  -0.883773   1.470382)
  13:       530.40    1.814367  (  1.029559  -0.106038  -0.862051)
  14:       644.64    2.762615  (  1.526295  -0.263189   0.603135)
  15:       787.12    2.419157  ( -1.335267   0.255990  -0.755440)
  16:       837.57    1.494831  ( -0.985475  -0.206967  -0.693423)
  17:       863.47   16.894097  ( -1.393246   0.663473   3.809562)
  18:       878.07    6.212958  (  0.034071  -0.446950   2.451945)
  19:       918.59    6.412187  ( -0.890997   2.359011   0.231041)
  20:       950.08    9.022183  ( -0.531363   0.906183   2.814013)
  21:       983.10    6.631703  ( -2.574073  -0.043456   0.062969)
  22:      1047.80   13.898551  ( -3.508968  -0.858854   0.920904)
  23:      1064.99    4.003627  ( -1.402424  -1.007564  -1.010766)
  24:      1096.61   11.498020  ( -2.725484   2.007604   0.198198)
  25:      1114.90   19.599981  ( -2.599654  -3.191101   1.630537)
  26:      1179.44  108.260385  ( -5.810881  -8.271520  -2.464956)
  27:      1184.23    4.885955  ( -0.410843  -1.973325   0.907276)
  28:      1226.38    7.415744  (  1.473779   1.840132   1.362950)
  29:      1259.82   10.630006  ( -2.605643  -1.927072  -0.356402)
  30:      1320.45   14.023593  (  2.860971   2.365922   0.490765)
  31:      1339.29    4.920872  ( -1.597071   1.539401  -0.021875)
  32:      1366.08    1.645438  (  0.860212   0.431275  -0.848220)
  33:      1373.69    1.037414  (  0.839938  -0.546846   0.181324)
  34:      1404.71   10.120095  ( -2.772646   1.541430  -0.237745)
  35:      1409.12   22.658583  (  3.870702   2.690726  -0.660488)
  36:      1415.39   26.346614  (  2.904270   4.232179   0.022284)
  37:      1420.40   14.452963  (  2.869242   0.244818   2.482031)
  38:      1437.43    3.635247  ( -0.667227  -1.735718  -0.421114)
  39:      1474.73   10.203639  (  0.654531   2.408151   1.994000)
  40:      1476.89    5.210265  (  1.546241  -0.144821  -1.672851)
  41:      1492.08   14.270052  (  3.513668   0.086874  -1.384428)
  42:      1497.17   21.712348  ( -1.572183   4.296613   0.883010)
  43:      1500.21    0.688935  ( -0.545393   0.350230   0.518478)
  44:      1645.26   79.374765  ( -0.106950  -2.737972   8.477431)
  45:      3026.57   14.549734  ( -1.727382   3.356877  -0.545214)
  46:      3054.56   16.445140  ( -0.325738  -3.020333   2.686377)
  47:      3098.11    0.146171  ( -0.240023   0.242193   0.172925)
  48:      3098.68    0.599724  ( -0.751988  -0.004174   0.184989)
  49:      3103.86    1.255518  (  0.356881  -0.621733  -0.861163)
  50:      3128.13   13.892440  (  1.639930   3.221285  -0.909063)
  51:      3136.84    0.742457  ( -0.838382   0.027182   0.197062)
  52:      3157.23    0.586632  (  0.002007  -0.193079  -0.741180)
  53:      3162.71    0.512673  (  0.053899   0.700812   0.136494)
  54:      3164.82    0.643532  ( -0.780049  -0.187230  -0.000854)
  55:      3438.80   39.653629  ( -1.199370   1.543860  -5.985953)
  56:      3496.15   84.267854  (  7.206209  -3.782642  -4.246178)

--------------------------
THERMOCHEMISTRY AT 298.15K
--------------------------

Temperature         ... 298.15 K
Pressure            ... 1.00 atm
Total Mass          ... 102.16 AMU

Throughout the following assumptions are being made:
  (1) The electronic state is orbitally nondegenerate
  (2) There are no thermally accessible electronically excited states
  (3) Hindered rotations indicated by low frequency modes) are not
      treated as such but are treated as vibrations and this may
      case some error
  (4) All equations used are the standard statistical mechanics
      equations for an ideal gas
  (5) All vibrations are strinctly harmonic

------------
INNER ENERGY
------------

The inner energy is: U= E(el) + E(ZPE) + E(vib) + E(rot) + E(trans)
    E(el)   - is the total energy from the electronic structure calculation
              = E(kin-el) + E(nuc-el) + E(el-el) + E(nuc-nuc)
    E(ZPE)  - the the zero temperature vibrational energy from the frequency calculation
    E(vib)  - the the finite temperature correction to E(ZPE) due to population
              of excietd vibrational states
    E(rot)  - is the rotational thermal energy
    E(trans)- is the translational thermal energy

Summary of contributions to the inner energy U:
Electronic energy                ...   -327.22161672 Eh
Zero point energy                ...      0.17857306 Eh     112.06 kcal/mol
Thermal vibrational correction   ...      0.00397674 Eh       2.50 kcal/mol
Thermal rotational correction    ...      0.00141627 Eh       0.89 kcal/mol
Thermal translational correction ...      0.00141627 Eh       0.89 kcal/mol
-----------------------------------------------------------------------
Total thermal energy                   -327.03623438 Eh

Summary of corrections to the electronic energy:
(perhaps to be used in another calculation)
Total thermal correction                  0.00680928 Eh       4.27 kcal/mol
Non-thermal (ZPE) correction              0.17857306 Eh     112.06 kcal/mol
-----------------------------------------------------------------------
Total correction                          0.18538235 Eh     116.33 kcal/mol

--------
ENTHALPY
--------

The enthalpy is H = U + kB*T
                kB is Boltzmann's constant
Total free energy                 ...   -327.03623438 Eh
Thermal Enthalpy correction       ...      0.00094421 Eh       0.59 kcal/mol
-----------------------------------------------------------------------
Total Enthalpy                    ...   -327.03529017 Eh

-------
ENTROPY
-------

The entropy contributions are T*S = T*(S(el)+S(vib)+S(rot)+S(trans)
     S(el)   - electronic entropy
     S(vib)  - vibrational entropy
     S(rot)  - rotational entropy
     S(trans)- translational entropy
The entropies will be listed as mutliplied by the temperature to get
units of energy

Electronic entropy                ...      0.00000000 Eh      0.00 kcal/mol
Vibrational entropy               ...      0.00626530 Eh      3.93 kcal/mol
Rotational entropy                ...      0.01186899 Eh      7.45 kcal/mol
Translational entropy             ...      0.01890147 Eh     11.86 kcal/mol
-----------------------------------------------------------------------
Final entropy term                ...      0.03703575 Eh     23.24 kcal/mol

CAUTION: The rotational entropy is not quite correctly treated here
         because it includes a symmetry number that is not yet correctly
         implemented in ORCA!
For a nonlinear molecule the correct rotational entropy is:
    S(rot) = R*(ln(qrot/sn)+1.5)
    R    = 8.31441 J/mol/K = 1.987191683e-3 kcal/mol/K
    qrot = 192775.2742758
    sn is the rotational symmetry number. We have assumed 3 here
       if it is different for your molecule then you should correct
       the printed rotational entropy by manually evaluating the equation
       as given above

For convenience we print out the resulting values for sn=1 - 12:
 sn= 1  qrot/sn=  192775.2743 T*S(rot)=     8.10 kcal/mol T*S(tot)=    23.89 kcal/mol
 sn= 2  qrot/sn=   96387.6371 T*S(rot)=     7.69 kcal/mol T*S(tot)=    23.48 kcal/mol
 sn= 3  qrot/sn=   64258.4248 T*S(rot)=     7.45 kcal/mol T*S(tot)=    23.24 kcal/mol
 sn= 4  qrot/sn=   48193.8186 T*S(rot)=     7.28 kcal/mol T*S(tot)=    23.07 kcal/mol
 sn= 5  qrot/sn=   38555.0549 T*S(rot)=     7.15 kcal/mol T*S(tot)=    22.94 kcal/mol
 sn= 6  qrot/sn=   32129.2124 T*S(rot)=     7.04 kcal/mol T*S(tot)=    22.83 kcal/mol
 sn= 7  qrot/sn=   27539.3249 T*S(rot)=     6.95 kcal/mol T*S(tot)=    22.74 kcal/mol
 sn= 8  qrot/sn=   24096.9093 T*S(rot)=     6.87 kcal/mol T*S(tot)=    22.66 kcal/mol
 sn= 9  qrot/sn=   21419.4749 T*S(rot)=     6.80 kcal/mol T*S(tot)=    22.59 kcal/mol
 sn=10  qrot/sn=   19277.5274 T*S(rot)=     6.73 kcal/mol T*S(tot)=    22.53 kcal/mol
 sn=11  qrot/sn=   17525.0249 T*S(rot)=     6.68 kcal/mol T*S(tot)=    22.47 kcal/mol
 sn=12  qrot/sn=   16064.6062 T*S(rot)=     6.63 kcal/mol T*S(tot)=    22.42 kcal/mol

-------------------
GIBBS FREE ENTHALPY
-------------------

The Gibbs free enthalpy is G = H - T*S

Total enthalpy                    ...   -327.03529017 Eh
Total entropy correction          ...     -0.03703575 Eh    -23.24 kcal/mol
-----------------------------------------------------------------------
Final Gibbs free enthalpy         ...   -327.07232592 Eh

For completeness - the Gibbs free enthalpy minus the electronic energy
G-E(el)                           ...      0.14929080 Eh     93.68 kcal/mol

                             ****ORCA TERMINATED NORMALLY****
TOTAL RUN TIME: 0 days 0 hours 42 minutes 54 seconds 659 msec
