                         Program Version 3.0.3 - RELEASE   -
|  1> ! NORI PBE0 def2-TZVP UseSym TightOPT Freq TightSCF Grid3 FinalGrid5 XYZFile
|  2> % pal
|  3>     nprocs 8
|  4> end
|  5> %method
|  6>     SymThresh 5.0e-2
|  7> end
|  8> % geom
|  9>     MaxIter 10
| 10> end
| 11> % maxcore 2000
| 12> % output
| 13>     printlevel mini
| 14>     print[ P_Basis ] 0
| 15>     print[ P_SCFInfo ] 1
| 16>     print[ P_SCFIterInfo ] 1
| 17>     print[ P_OrbEn ] 0
| 18>     print[ P_Cartesian ] 0
| 19> end
| 20> % elprop
| 21>     Dipole false
| 22> end
| 23> *xyz 1 1
| 24>  C        1.0559260871    -0.0096566020     0.0263807035
| 25>  C        2.3733573006    -0.0798382664    -0.0760769003
| 26>  C        3.1426291006    -1.3592425050    -0.0154362404
| 27>  N        4.1266168138    -1.4006935061    -1.1566234960
| 28>  C        4.9750786483    -0.1651453375    -1.1693490667
| 29>  C        4.0675824690     1.0432494980    -1.2093501521
| 30>  O        3.1542461574     1.0414067374    -0.1329852316
| 31>  H        0.5565084351     0.9507686612     0.0409557292
| 32>  H        0.4577999534    -0.9042691857     0.1383831114
| 33>  H        3.7415459939    -1.4159458077     0.8974778858
| 34>  H        2.4965279612    -2.2324584532    -0.0855267333
| 35>  H        4.7120572838    -2.2345877887    -1.0873172981
| 36>  H        3.6110415396    -1.4695545877    -2.0379657914
| 37>  H        5.5717387344    -0.1855299622    -0.2562675068
| 38>  H        5.6339127570    -0.2063245006    -2.0376863510
| 39>  H        3.5250437996     1.0898119873    -2.1636514103
| 40>  H        4.6694969651     1.9472796189    -1.1189012518
| 41> *
| 42>
| 43>                          ****END OF INPUT****
 Total Charge           Charge          ....    1
 Multiplicity           Mult            ....    1
 Number of Electrons    NEL             ....   54
FINAL SINGLE POINT ENERGY      -325.991818566815

CARTESIAN COORDINATES (ANGSTROEM)
---------------------------------
  C     -2.252124    0.000057    0.588493
  C     -0.972461   -0.217528    0.331260
  C     -0.474550   -0.828641   -0.937961
  N      0.665569    0.000046   -1.473290
  C      1.717455    0.195464   -0.422996
  C      1.068577    0.797285    0.802986
  O     -0.000023    0.000312    1.267865
  H     -2.560774    0.386166    1.551522
  H     -3.015146   -0.240014   -0.140099
  H     -0.061777   -1.825239   -0.760141
  H     -1.248995   -0.882865   -1.700925
  H      1.066239   -0.444119   -2.301076
  H      0.304591    0.911231   -1.767863
  H      2.134740   -0.789797   -0.210306
  H      2.496211    0.842296   -0.828692
  H      0.715453    1.816640    0.594341
  H      1.802335    0.852154    1.606972

FINAL SINGLE POINT ENERGY      -325.991819294279
                    ***********************HURRAY********************
 Multiplicity           Mult            ....    1
 Number of Electrons    NEL             ....   54
 Basis Dimension        Dim             ....  277
FINAL SINGLE POINT ENERGY      -325.991819475900

VIBRATIONAL FREQUENCIES
-----------------------

   0:         0.00 cm**-1
   1:         0.00 cm**-1
   2:         0.00 cm**-1
   3:         0.00 cm**-1
   4:         0.00 cm**-1
   5:         0.00 cm**-1
   6:       130.70 cm**-1
   7:       207.44 cm**-1
   8:       321.12 cm**-1
   9:       382.75 cm**-1
  10:       447.04 cm**-1
  11:       451.50 cm**-1
  12:       531.50 cm**-1
  13:       653.60 cm**-1
  14:       768.50 cm**-1
  15:       805.78 cm**-1
  16:       849.13 cm**-1
  17:       882.42 cm**-1
  18:       886.73 cm**-1
  19:       950.18 cm**-1
  20:       964.11 cm**-1
  21:       986.83 cm**-1
  22:      1000.43 cm**-1
  23:      1054.31 cm**-1
  24:      1136.47 cm**-1
  25:      1151.11 cm**-1
  26:      1205.16 cm**-1
  27:      1235.43 cm**-1
  28:      1288.30 cm**-1
  29:      1322.83 cm**-1
  30:      1333.86 cm**-1
  31:      1391.04 cm**-1
  32:      1408.90 cm**-1
  33:      1421.94 cm**-1
  34:      1429.01 cm**-1
  35:      1443.70 cm**-1
  36:      1469.79 cm**-1
  37:      1488.49 cm**-1
  38:      1492.41 cm**-1
  39:      1644.17 cm**-1
  40:      1750.59 cm**-1
  41:      3024.40 cm**-1
  42:      3085.17 cm**-1
  43:      3100.08 cm**-1
  44:      3146.71 cm**-1
  45:      3163.81 cm**-1
  46:      3169.78 cm**-1
  47:      3186.33 cm**-1
  48:      3284.14 cm**-1
  49:      3428.49 cm**-1
  50:      3490.96 cm**-1

IR SPECTRUM
-----------

 Mode    freq (cm**-1)   T**2         TX         TY         TZ
-------------------------------------------------------------------
   6:       130.70    5.784020  (  1.847474  -1.539604   0.021920)
   7:       207.44    0.193403  ( -0.142469   0.277828  -0.309706)
   8:       321.12    6.911929  (  1.533156  -2.098738  -0.395804)
   9:       382.75    4.100149  (  0.123670  -0.089766   2.019108)
  10:       447.04    2.078125  ( -0.332703   0.660996   1.237141)
  11:       451.50    6.970072  ( -1.321529   1.509878   1.715780)
  12:       531.50   10.196353  ( -2.009994  -0.553657   2.418623)
  13:       653.60    4.908201  ( -1.084422  -1.551629   1.150946)
  14:       768.50    1.439291  ( -0.198439   0.488483  -1.077635)
  15:       805.78    7.549996  (  2.583128  -0.869106  -0.349426)
  16:       849.13    3.409468  (  1.576951  -0.351005   0.894142)
  17:       882.42    8.062318  ( -0.118883  -0.215637   2.828725)
  18:       886.73   13.397739  ( -0.687060  -0.789595   3.507453)
  19:       950.18   28.034609  ( -2.211835  -4.796609  -0.367338)
  20:       964.11   30.840269  ( -1.792210   4.624084  -2.499220)
  21:       986.83   10.536440  (  2.095261  -1.922226  -1.565684)
  22:      1000.43    9.719849  (  2.693886  -0.323766  -1.535579)
  23:      1054.31    7.664822  (  2.580865  -0.520923  -0.855918)
  24:      1136.47    0.070788  (  0.214129  -0.098816  -0.123176)
  25:      1151.11  123.661522  ( -9.876251  -5.106553   0.210493)
  26:      1205.16    5.299162  ( -1.571612   0.075052  -1.680346)
  27:      1235.43   35.831673  ( -5.547921  -1.907494  -1.188995)
  28:      1288.30   36.747461  ( -5.569362  -1.477866  -1.882970)
  29:      1322.83   56.486165  ( -7.428949  -0.685347  -0.909496)
  30:      1333.86   12.709002  ( -2.094872  -2.614182  -1.219247)
  31:      1391.04    1.275507  (  1.128391   0.047329  -0.000676)
  32:      1408.90   50.933797  (  6.605130   2.601665   0.733068)
  33:      1421.94    4.133884  (  1.729987  -0.552072   0.914464)
  34:      1429.01    0.807945  (  0.591039  -0.331055   0.590779)
  35:      1443.70    6.597933  ( -1.336232   1.492714   1.607552)
  36:      1469.79    9.238171  (  1.936744   1.906900   1.360488)
  37:      1488.49   30.304025  (  2.063639  -4.188814  -2.915349)
  38:      1492.41    2.788796  ( -1.431422  -0.805331  -0.302107)
  39:      1644.17   78.177697  ( -0.294140  -3.550082   8.092472)
  40:      1750.59   47.637379  (  6.846517  -0.293511   0.822458)
  41:      3024.40   19.418269  (  1.260067   4.111115  -0.963969)
  42:      3085.17    1.498291  ( -0.982950   0.320095   0.655469)
  43:      3100.08    0.300454  (  0.232805  -0.478959  -0.129826)
  44:      3146.71    1.185091  ( -0.934384  -0.008627   0.558519)
  45:      3163.81    0.236303  ( -0.027731  -0.291454  -0.388057)
  46:      3169.78    0.472941  (  0.440604   0.264645  -0.456916)
  47:      3186.33    6.748374  ( -2.277870   0.573686   1.109309)
  48:      3284.14    1.668681  (  0.192310  -0.430934  -1.202495)
  49:      3428.49   46.147868  (  0.064022   3.154614  -6.015993)
  50:      3490.96   77.387599  (  4.110550  -6.258432  -4.617684)

--------------------------
THERMOCHEMISTRY AT 298.15K
--------------------------

Temperature         ... 298.15 K
Pressure            ... 1.00 atm
Total Mass          ... 100.14 AMU

Throughout the following assumptions are being made:
  (1) The electronic state is orbitally nondegenerate
  (2) There are no thermally accessible electronically excited states
  (3) Hindered rotations indicated by low frequency modes) are not
      treated as such but are treated as vibrations and this may
      case some error
  (4) All equations used are the standard statistical mechanics
      equations for an ideal gas
  (5) All vibrations are strinctly harmonic

------------
INNER ENERGY
------------

The inner energy is: U= E(el) + E(ZPE) + E(vib) + E(rot) + E(trans)
    E(el)   - is the total energy from the electronic structure calculation
              = E(kin-el) + E(nuc-el) + E(el-el) + E(nuc-nuc)
    E(ZPE)  - the the zero temperature vibrational energy from the frequency calculation
    E(vib)  - the the finite temperature correction to E(ZPE) due to population
              of excietd vibrational states
    E(rot)  - is the rotational thermal energy
    E(trans)- is the translational thermal energy

Summary of contributions to the inner energy U:
Electronic energy                ...   -325.99181948 Eh
Zero point energy                ...      0.15484054 Eh      97.16 kcal/mol
Thermal vibrational correction   ...      0.00350745 Eh       2.20 kcal/mol
Thermal rotational correction    ...      0.00141627 Eh       0.89 kcal/mol
Thermal translational correction ...      0.00141627 Eh       0.89 kcal/mol
-----------------------------------------------------------------------
Total thermal energy                   -325.83063895 Eh

Summary of corrections to the electronic energy:
(perhaps to be used in another calculation)
Total thermal correction                  0.00633999 Eh       3.98 kcal/mol
Non-thermal (ZPE) correction              0.15484054 Eh      97.16 kcal/mol
-----------------------------------------------------------------------
Total correction                          0.16118053 Eh     101.14 kcal/mol

--------
ENTHALPY
--------

The enthalpy is H = U + kB*T
                kB is Boltzmann's constant
Total free energy                 ...   -325.83063895 Eh
Thermal Enthalpy correction       ...      0.00094421 Eh       0.59 kcal/mol
-----------------------------------------------------------------------
Total Enthalpy                    ...   -325.82969474 Eh

-------
ENTROPY
-------

The entropy contributions are T*S = T*(S(el)+S(vib)+S(rot)+S(trans)
     S(el)   - electronic entropy
     S(vib)  - vibrational entropy
     S(rot)  - rotational entropy
     S(trans)- translational entropy
The entropies will be listed as mutliplied by the temperature to get
units of energy

Electronic entropy                ...      0.00000000 Eh      0.00 kcal/mol
Vibrational entropy               ...      0.00554215 Eh      3.48 kcal/mol
Rotational entropy                ...      0.01184618 Eh      7.43 kcal/mol
Translational entropy             ...      0.01887324 Eh     11.84 kcal/mol
-----------------------------------------------------------------------
Final entropy term                ...      0.03626156 Eh     22.75 kcal/mol

CAUTION: The rotational entropy is not quite correctly treated here
         because it includes a symmetry number that is not yet correctly
         implemented in ORCA!
For a nonlinear molecule the correct rotational entropy is:
    S(rot) = R*(ln(qrot/sn)+1.5)
    R    = 8.31441 J/mol/K = 1.987191683e-3 kcal/mol/K
    qrot = 188174.0762946
    sn is the rotational symmetry number. We have assumed 3 here
       if it is different for your molecule then you should correct
       the printed rotational entropy by manually evaluating the equation
       as given above

For convenience we print out the resulting values for sn=1 - 12:
 sn= 1  qrot/sn=  188174.0763 T*S(rot)=     8.08 kcal/mol T*S(tot)=    23.41 kcal/mol
 sn= 2  qrot/sn=   94087.0381 T*S(rot)=     7.67 kcal/mol T*S(tot)=    22.99 kcal/mol
 sn= 3  qrot/sn=   62724.6921 T*S(rot)=     7.43 kcal/mol T*S(tot)=    22.75 kcal/mol
 sn= 4  qrot/sn=   47043.5191 T*S(rot)=     7.26 kcal/mol T*S(tot)=    22.58 kcal/mol
 sn= 5  qrot/sn=   37634.8153 T*S(rot)=     7.13 kcal/mol T*S(tot)=    22.45 kcal/mol
 sn= 6  qrot/sn=   31362.3460 T*S(rot)=     7.02 kcal/mol T*S(tot)=    22.34 kcal/mol
 sn= 7  qrot/sn=   26882.0109 T*S(rot)=     6.93 kcal/mol T*S(tot)=    22.25 kcal/mol
 sn= 8  qrot/sn=   23521.7595 T*S(rot)=     6.85 kcal/mol T*S(tot)=    22.17 kcal/mol
 sn= 9  qrot/sn=   20908.2307 T*S(rot)=     6.78 kcal/mol T*S(tot)=    22.10 kcal/mol
 sn=10  qrot/sn=   18817.4076 T*S(rot)=     6.72 kcal/mol T*S(tot)=    22.04 kcal/mol
 sn=11  qrot/sn=   17106.7342 T*S(rot)=     6.66 kcal/mol T*S(tot)=    21.98 kcal/mol
 sn=12  qrot/sn=   15681.1730 T*S(rot)=     6.61 kcal/mol T*S(tot)=    21.93 kcal/mol

-------------------
GIBBS FREE ENTHALPY
-------------------

The Gibbs free enthalpy is G = H - T*S

Total enthalpy                    ...   -325.82969474 Eh
Total entropy correction          ...     -0.03626156 Eh    -22.75 kcal/mol
-----------------------------------------------------------------------
Final Gibbs free enthalpy         ...   -325.86595630 Eh

For completeness - the Gibbs free enthalpy minus the electronic energy
G-E(el)                           ...      0.12586318 Eh     78.98 kcal/mol

                             ****ORCA TERMINATED NORMALLY****
TOTAL RUN TIME: 0 days 0 hours 33 minutes 58 seconds 482 msec
