                         Program Version 3.0.3 - RELEASE   -
|  1> ! NORI PBE0 def2-TZVP UseSym TightOPT Freq TightSCF Grid3 FinalGrid5 XYZFile
|  2> % pal
|  3>     nprocs 8
|  4> end
|  5> %method
|  6>     SymThresh 5.0e-2
|  7> end
|  8> % geom
|  9>     MaxIter 10
| 10> end
| 11> % maxcore 2000
| 12> % output
| 13>     printlevel mini
| 14>     print[ P_Basis ] 0
| 15>     print[ P_SCFInfo ] 1
| 16>     print[ P_SCFIterInfo ] 1
| 17>     print[ P_OrbEn ] 0
| 18>     print[ P_Cartesian ] 0
| 19> end
| 20> % elprop
| 21>     Dipole false
| 22> end
| 23> *xyz 1 1
| 24>  C        1.1090040614    -0.2959482479     0.1475255513
| 25>  C        2.5133751172     0.1635742097    -0.1474479444
| 26>  C        2.6621685286     0.5062149026    -1.6295110415
| 27>  N        4.1160988665     0.4161408163    -1.9661192826
| 28>  C        3.1237283725     1.1268938280     0.8864653088
| 29>  C        3.9346469977    -0.0847458305     1.3411810272
| 30>  O        3.5131962864    -0.8421716386     0.1717910830
| 31>  H        0.8618215885    -1.1879077782    -0.4315398182
| 32>  H        0.3903554425     0.4914035003    -0.0967583949
| 33>  H        1.0005126599    -0.5336173374     1.2061823800
| 34>  H        2.1526136647    -0.2377878959    -2.2426573180
| 35>  H        2.2809279867     1.4966642529    -1.8737345299
| 36>  H        4.4564831696    -0.3197051700    -1.3049790005
| 37>  H        4.6218567587     1.2819804501    -1.7821311757
| 38>  H        4.2885767442     0.1442173868    -2.9326467271
| 39>  H        2.4247433757     1.5577011843     1.6002966094
| 40>  H        3.7302474815     1.9338044367     0.4677219789
| 41>  H        5.0199649579     0.0164132472     1.3877528289
| 42>  H        3.5748779397    -0.5635443165     2.2522784652
| 43> *
| 44>
| 45>                          ****END OF INPUT****
 Total Charge           Charge          ....    1
 Multiplicity           Mult            ....    1
 Number of Electrons    NEL             ....   56
FINAL SINGLE POINT ENERGY      -327.206012537306
FINAL SINGLE POINT ENERGY      -327.206014872445

CARTESIAN COORDINATES (ANGSTROEM)
---------------------------------
  C     -1.437582   -1.345455   -0.328175
  C     -0.360062   -0.297338   -0.224259
  C      0.907603   -0.762199   -0.941409
  N      2.056524   -0.003214   -0.358200
  C     -0.827357    1.153587   -0.438856
  C     -0.685012    1.283986    1.076569
  O      0.000632    0.002131    1.151527
  H     -1.113419   -2.281854    0.130305
  H     -1.686593   -1.534980   -1.375951
  H     -2.343882   -1.011485    0.178019
  H      1.093376   -1.816815   -0.735072
  H      0.863905   -0.607970   -2.018646
  H      1.741821    0.163426    0.625627
  H      2.208794    0.897312   -0.810919
  H      2.932368   -0.523178   -0.377322
  H     -1.823951    1.270251   -0.859055
  H     -0.137697    1.783761   -1.005021
  H     -0.067794    2.096163    1.462989
  H     -1.622752    1.244790    1.632272

FINAL SINGLE POINT ENERGY      -327.206015737217
                    ***********************HURRAY********************
 Multiplicity           Mult            ....    1
 Number of Electrons    NEL             ....   56
 Basis Dimension        Dim             ....  289
FINAL SINGLE POINT ENERGY      -327.206016087818

VIBRATIONAL FREQUENCIES
-----------------------

   0:         0.00 cm**-1
   1:         0.00 cm**-1
   2:         0.00 cm**-1
   3:         0.00 cm**-1
   4:         0.00 cm**-1
   5:         0.00 cm**-1
   6:       117.29 cm**-1
   7:       131.01 cm**-1
   8:       233.81 cm**-1
   9:       260.37 cm**-1
  10:       284.31 cm**-1
  11:       327.64 cm**-1
  12:       385.06 cm**-1
  13:       397.99 cm**-1
  14:       542.29 cm**-1
  15:       639.81 cm**-1
  16:       770.14 cm**-1
  17:       829.66 cm**-1
  18:       877.02 cm**-1
  19:       906.00 cm**-1
  20:       942.75 cm**-1
  21:       970.77 cm**-1
  22:       989.74 cm**-1
  23:       998.72 cm**-1
  24:      1020.29 cm**-1
  25:      1064.59 cm**-1
  26:      1081.46 cm**-1
  27:      1169.05 cm**-1
  28:      1172.74 cm**-1
  29:      1211.80 cm**-1
  30:      1247.23 cm**-1
  31:      1265.42 cm**-1
  32:      1290.04 cm**-1
  33:      1330.41 cm**-1
  34:      1358.41 cm**-1
  35:      1395.97 cm**-1
  36:      1414.54 cm**-1
  37:      1447.86 cm**-1
  38:      1472.68 cm**-1
  39:      1483.95 cm**-1
  40:      1488.99 cm**-1
  41:      1494.75 cm**-1
  42:      1529.64 cm**-1
  43:      1635.57 cm**-1
  44:      1678.45 cm**-1
  45:      3058.10 cm**-1
  46:      3083.63 cm**-1
  47:      3087.31 cm**-1
  48:      3098.95 cm**-1
  49:      3109.95 cm**-1
  50:      3136.73 cm**-1
  51:      3143.18 cm**-1
  52:      3153.17 cm**-1
  53:      3166.03 cm**-1
  54:      3173.54 cm**-1
  55:      3486.85 cm**-1
  56:      3546.21 cm**-1

IR SPECTRUM
-----------

 Mode    freq (cm**-1)   T**2         TX         TY         TZ
-------------------------------------------------------------------
   6:       117.29    7.353239  (  0.886318   1.322679  -2.195040)
   7:       131.01    3.289588  (  0.075697  -1.795287  -0.246580)
   8:       233.81    1.851558  ( -1.175312   0.271715   0.629580)
   9:       260.37   28.748471  (  4.631679  -1.409371  -2.304277)
  10:       284.31   12.129715  ( -3.273182  -0.037578   1.189362)
  11:       327.64    2.834458  (  0.655231  -0.178788  -1.540508)
  12:       385.06   32.517029  (  5.092538   0.314476  -2.546408)
  13:       397.99   25.306797  ( -4.988861  -0.553049  -0.334962)
  14:       542.29    3.099874  (  1.022929  -1.156580   0.846058)
  15:       639.81    0.292886  ( -0.509306   0.120732   0.137541)
  16:       770.14    1.728818  (  0.793403   0.361207   0.984307)
  17:       829.66   10.452487  (  2.777968   1.142683   1.195684)
  18:       877.02   12.116317  ( -2.771733   1.186833  -1.739322)
  19:       906.00   22.622798  ( -0.816708   0.773697   4.621383)
  20:       942.75    2.599732  ( -1.420118   0.403109  -0.648460)
  21:       970.77   15.170884  (  1.387506  -0.502766  -3.604571)
  22:       989.74   30.317371  (  4.268854  -3.110090  -1.556149)
  23:       998.72   67.722285  (  1.689266  -7.461714  -3.031747)
  24:      1020.29   48.512092  (  4.569512  -4.581230  -2.577592)
  25:      1064.59   19.548644  (  1.816631   0.199507  -4.026002)
  26:      1081.46   37.099129  ( -4.167000   1.817056   4.053831)
  27:      1169.05   23.749009  ( -4.627074  -0.351397  -1.488527)
  28:      1172.74    1.540056  (  0.013206  -0.064966  -1.239218)
  29:      1211.80    3.398201  ( -0.172506  -0.657044  -1.713690)
  30:      1247.23    1.407932  (  0.238017   1.160406  -0.068834)
  31:      1265.42    9.556091  (  2.921238   0.844598  -0.555982)
  32:      1290.04   25.177077  (  0.352886  -3.310489  -3.754092)
  33:      1330.41    4.212674  (  0.070794   1.396925  -1.502086)
  34:      1358.41   15.331102  (  3.237317  -0.155909   2.196947)
  35:      1395.97   12.319086  (  3.211869   1.404265  -0.176144)
  36:      1414.54   18.879889  ( -3.296921  -2.749622  -0.670657)
  37:      1447.86  161.296613  (-11.842112  -3.210712  -3.279073)
  38:      1472.68    2.600785  ( -1.028238   0.760902  -0.982109)
  39:      1483.95   17.761297  ( -1.853304   1.737490  -3.362691)
  40:      1488.99   20.835746  ( -3.544139   2.393691   1.595327)
  41:      1494.75    3.567614  ( -0.941174  -0.619797   1.515802)
  42:      1529.64    6.114508  ( -2.228945   0.892253   0.591775)
  43:      1635.57   39.373634  (  2.304842   4.415960  -3.815840)
  44:      1678.45   37.765290  (  4.790437  -3.671527  -1.156238)
  45:      3058.10    1.082282  (  0.256622   0.942984   0.356661)
  46:      3083.63    6.844563  ( -0.927032  -1.283125   2.082970)
  47:      3087.31   71.388694  (  3.809828  -4.662900  -5.927163)
  48:      3098.95  154.859337  (  8.655206  -1.072581  -8.876729)
  49:      3109.95   64.006936  (  5.550462  -0.374772  -5.749682)
  50:      3136.73    3.512035  (  0.026175  -0.715554   1.731858)
  51:      3143.18    5.410773  (  1.781954   1.479678  -0.214399)
  52:      3153.17    3.615735  ( -1.092078   1.442268   0.585631)
  53:      3166.03    6.403076  ( -2.467311  -0.524736   0.200260)
  54:      3173.54    1.875729  ( -0.883394   0.423348   0.957142)
  55:      3486.85   97.085955  (  8.807380   2.059360  -3.908330)
  56:      3546.21   98.895077  (  5.706540  -7.871797   2.089328)

--------------------------
THERMOCHEMISTRY AT 298.15K
--------------------------

Temperature         ... 298.15 K
Pressure            ... 1.00 atm
Total Mass          ... 102.16 AMU

Throughout the following assumptions are being made:
  (1) The electronic state is orbitally nondegenerate
  (2) There are no thermally accessible electronically excited states
  (3) Hindered rotations indicated by low frequency modes) are not
      treated as such but are treated as vibrations and this may
      case some error
  (4) All equations used are the standard statistical mechanics
      equations for an ideal gas
  (5) All vibrations are strinctly harmonic

------------
INNER ENERGY
------------

The inner energy is: U= E(el) + E(ZPE) + E(vib) + E(rot) + E(trans)
    E(el)   - is the total energy from the electronic structure calculation
              = E(kin-el) + E(nuc-el) + E(el-el) + E(nuc-nuc)
    E(ZPE)  - the the zero temperature vibrational energy from the frequency calculation
    E(vib)  - the the finite temperature correction to E(ZPE) due to population
              of excietd vibrational states
    E(rot)  - is the rotational thermal energy
    E(trans)- is the translational thermal energy

Summary of contributions to the inner energy U:
Electronic energy                ...   -327.20601609 Eh
Zero point energy                ...      0.17565107 Eh     110.22 kcal/mol
Thermal vibrational correction   ...      0.00484057 Eh       3.04 kcal/mol
Thermal rotational correction    ...      0.00141627 Eh       0.89 kcal/mol
Thermal translational correction ...      0.00141627 Eh       0.89 kcal/mol
-----------------------------------------------------------------------
Total thermal energy                   -327.02269191 Eh

Summary of corrections to the electronic energy:
(perhaps to be used in another calculation)
Total thermal correction                  0.00767311 Eh       4.81 kcal/mol
Non-thermal (ZPE) correction              0.17565107 Eh     110.22 kcal/mol
-----------------------------------------------------------------------
Total correction                          0.18332418 Eh     115.04 kcal/mol

--------
ENTHALPY
--------

The enthalpy is H = U + kB*T
                kB is Boltzmann's constant
Total free energy                 ...   -327.02269191 Eh
Thermal Enthalpy correction       ...      0.00094421 Eh       0.59 kcal/mol
-----------------------------------------------------------------------
Total Enthalpy                    ...   -327.02174770 Eh

-------
ENTROPY
-------

The entropy contributions are T*S = T*(S(el)+S(vib)+S(rot)+S(trans)
     S(el)   - electronic entropy
     S(vib)  - vibrational entropy
     S(rot)  - rotational entropy
     S(trans)- translational entropy
The entropies will be listed as mutliplied by the temperature to get
units of energy

Electronic entropy                ...      0.00000000 Eh      0.00 kcal/mol
Vibrational entropy               ...      0.00809691 Eh      5.08 kcal/mol
Rotational entropy                ...      0.01193856 Eh      7.49 kcal/mol
Translational entropy             ...      0.01890147 Eh     11.86 kcal/mol
-----------------------------------------------------------------------
Final entropy term                ...      0.03893693 Eh     24.43 kcal/mol

CAUTION: The rotational entropy is not quite correctly treated here
         because it includes a symmetry number that is not yet correctly
         implemented in ORCA!
For a nonlinear molecule the correct rotational entropy is:
    S(rot) = R*(ln(qrot/sn)+1.5)
    R    = 8.31441 J/mol/K = 1.987191683e-3 kcal/mol/K
    qrot = 207516.1650254
    sn is the rotational symmetry number. We have assumed 3 here
       if it is different for your molecule then you should correct
       the printed rotational entropy by manually evaluating the equation
       as given above

For convenience we print out the resulting values for sn=1 - 12:
 sn= 1  qrot/sn=  207516.1650 T*S(rot)=     8.14 kcal/mol T*S(tot)=    25.08 kcal/mol
 sn= 2  qrot/sn=  103758.0825 T*S(rot)=     7.73 kcal/mol T*S(tot)=    24.67 kcal/mol
 sn= 3  qrot/sn=   69172.0550 T*S(rot)=     7.49 kcal/mol T*S(tot)=    24.43 kcal/mol
 sn= 4  qrot/sn=   51879.0413 T*S(rot)=     7.32 kcal/mol T*S(tot)=    24.26 kcal/mol
 sn= 5  qrot/sn=   41503.2330 T*S(rot)=     7.19 kcal/mol T*S(tot)=    24.13 kcal/mol
 sn= 6  qrot/sn=   34586.0275 T*S(rot)=     7.08 kcal/mol T*S(tot)=    24.02 kcal/mol
 sn= 7  qrot/sn=   29645.1664 T*S(rot)=     6.99 kcal/mol T*S(tot)=    23.93 kcal/mol
 sn= 8  qrot/sn=   25939.5206 T*S(rot)=     6.91 kcal/mol T*S(tot)=    23.85 kcal/mol
 sn= 9  qrot/sn=   23057.3517 T*S(rot)=     6.84 kcal/mol T*S(tot)=    23.78 kcal/mol
 sn=10  qrot/sn=   20751.6165 T*S(rot)=     6.78 kcal/mol T*S(tot)=    23.72 kcal/mol
 sn=11  qrot/sn=   18865.1059 T*S(rot)=     6.72 kcal/mol T*S(tot)=    23.66 kcal/mol
 sn=12  qrot/sn=   17293.0138 T*S(rot)=     6.67 kcal/mol T*S(tot)=    23.61 kcal/mol

-------------------
GIBBS FREE ENTHALPY
-------------------

The Gibbs free enthalpy is G = H - T*S

Total enthalpy                    ...   -327.02174770 Eh
Total entropy correction          ...     -0.03893693 Eh    -24.43 kcal/mol
-----------------------------------------------------------------------
Final Gibbs free enthalpy         ...   -327.06068463 Eh

For completeness - the Gibbs free enthalpy minus the electronic energy
G-E(el)                           ...      0.14533145 Eh     91.20 kcal/mol

                             ****ORCA TERMINATED NORMALLY****
TOTAL RUN TIME: 0 days 0 hours 40 minutes 18 seconds 367 msec
