                         Program Version 3.0.3 - RELEASE   -
|  1> ! NORI PBE0 def2-TZVP UseSym TightOPT Freq TightSCF Grid3 FinalGrid5 XYZFile
|  2> % pal
|  3>     nprocs 8
|  4> end
|  5> %method
|  6>     SymThresh 5.0e-2
|  7> end
|  8> % geom
|  9>     MaxIter 10
| 10> end
| 11> % maxcore 2000
| 12> % output
| 13>     printlevel mini
| 14>     print[ P_Basis ] 0
| 15>     print[ P_SCFInfo ] 1
| 16>     print[ P_SCFIterInfo ] 1
| 17>     print[ P_OrbEn ] 0
| 18>     print[ P_Cartesian ] 0
| 19> end
| 20> % elprop
| 21>     Dipole false
| 22> end
| 23> *xyz 1 1
| 24>  C        1.0486653231     0.2543527114     0.1341478457
| 25>  C        2.5174043423     0.1375365281    -0.1849779238
| 26>  C        2.9334539938    -1.1729552653    -0.8806482769
| 27>  N        3.9324337531    -0.7160491183    -1.8541569978
| 28>  C        3.8594454019     0.5804606565    -2.0059140450
| 29>  N        2.9811531196     1.1174142253    -1.1940440363
| 30>  O        3.0352058778     2.4449125189    -0.9089889327
| 31>  H        0.8227273525     1.2218760446     0.5854680240
| 32>  H        0.7716719058    -0.5105734263     0.8617908832
| 33>  H        0.4337726511     0.1195802712    -0.7579742586
| 34>  H        3.1213200671     0.3120638768     0.7126848249
| 35>  H        3.3611736122    -1.9031445537    -0.1960050185
| 36>  H        2.0881477254    -1.6230988962    -1.4087837917
| 37>  H        4.4380049343    -1.3225437298    -2.4808377188
| 38>  H        4.4490943682     1.1630838071    -2.7029731671
| 39>  H        2.1860955719     2.8224543496    -1.1820374107
| 40> *
| 41>
| 42>                          ****END OF INPUT****
 Total Charge           Charge          ....    1
 Multiplicity           Mult            ....    1
 Number of Electrons    NEL             ....   54
FINAL SINGLE POINT ENERGY      -342.020520460693

CARTESIAN COORDINATES (ANGSTROEM)
---------------------------------
  C     -2.130462    0.177156   -0.263806
  C     -0.756237   -0.442725   -0.282102
  C      0.042613   -0.224731   -1.581753
  N      1.405934   -0.000182   -1.086252
  C      1.386966    0.259008    0.195070
  N      0.178023    0.164921    0.693515
  O      0.000459    0.000558    2.030637
  H     -2.618407    0.016939    0.698937
  H     -2.755164   -0.298201   -1.021993
  H     -2.088613    1.247832   -0.474025
  H     -0.811522   -1.508241   -0.031462
  H      0.007483   -1.080477   -2.253411
  H     -0.304759    0.666546   -2.112109
  H      2.208163    0.160172   -1.675111
  H      2.252120    0.512797    0.794986
  H     -0.534646    0.748816    2.333696

FINAL SINGLE POINT ENERGY      -342.020520962066
                    ***********************HURRAY********************
 Multiplicity           Mult            ....    1
 Number of Electrons    NEL             ....   54
 Basis Dimension        Dim             ....  271
FINAL SINGLE POINT ENERGY      -342.020521358584

VIBRATIONAL FREQUENCIES
-----------------------

   0:         0.00 cm**-1
   1:         0.00 cm**-1
   2:         0.00 cm**-1
   3:         0.00 cm**-1
   4:         0.00 cm**-1
   5:         0.00 cm**-1
   6:       115.51 cm**-1
   7:       200.66 cm**-1
   8:       236.38 cm**-1
   9:       287.53 cm**-1
  10:       355.44 cm**-1
  11:       416.86 cm**-1
  12:       428.25 cm**-1
  13:       496.72 cm**-1
  14:       587.18 cm**-1
  15:       600.54 cm**-1
  16:       761.72 cm**-1
  17:       823.82 cm**-1
  18:       917.23 cm**-1
  19:       951.05 cm**-1
  20:       992.41 cm**-1
  21:      1001.01 cm**-1
  22:      1076.77 cm**-1
  23:      1137.70 cm**-1
  24:      1157.60 cm**-1
  25:      1186.98 cm**-1
  26:      1245.92 cm**-1
  27:      1258.92 cm**-1
  28:      1310.04 cm**-1
  29:      1340.41 cm**-1
  30:      1363.60 cm**-1
  31:      1391.39 cm**-1
  32:      1417.66 cm**-1
  33:      1441.53 cm**-1
  34:      1482.62 cm**-1
  35:      1493.04 cm**-1
  36:      1504.07 cm**-1
  37:      1588.90 cm**-1
  38:      1696.63 cm**-1
  39:      3057.96 cm**-1
  40:      3065.29 cm**-1
  41:      3076.58 cm**-1
  42:      3149.52 cm**-1
  43:      3150.60 cm**-1
  44:      3160.55 cm**-1
  45:      3253.80 cm**-1
  46:      3650.29 cm**-1
  47:      3761.05 cm**-1

IR SPECTRUM
-----------

 Mode    freq (cm**-1)   T**2         TX         TY         TZ
-------------------------------------------------------------------
   6:       115.51    0.781768  (  0.785735  -0.360723  -0.185115)
   7:       200.66    5.055252  ( -1.091043   1.899020  -0.508529)
   8:       236.38    2.365576  (  1.370504   0.581801   0.385750)
   9:       287.53    1.672169  (  0.752715  -1.023579   0.240570)
  10:       355.44   99.512002  (  9.791320   1.614739   1.017192)
  11:       416.86   18.285028  (  2.822831   3.199109   0.286976)
  12:       428.25   78.513472  (  2.774402   8.202589   1.879815)
  13:       496.72   62.611687  (  3.549301  -7.050967  -0.545906)
  14:       587.18   26.484213  ( -2.568670   4.451217   0.269847)
  15:       600.54    5.699314  ( -0.859467   2.143999   0.603241)
  16:       761.72   13.597220  (  1.172717  -0.977926  -3.356429)
  17:       823.82    0.645665  (  0.067328  -0.079919   0.796709)
  18:       917.23    1.963212  ( -0.481913   1.085465   0.743463)
  19:       951.05    0.293999  ( -0.011896   0.030456  -0.541230)
  20:       992.41   17.094960  ( -3.737292  -1.066202   1.410966)
  21:      1001.01    7.770046  (  0.322428   1.534808  -2.304441)
  22:      1076.77   24.292292  ( -0.609931   1.989432   4.467934)
  23:      1137.70    2.112081  (  0.381640  -0.853635  -1.112537)
  24:      1157.60    2.331981  ( -1.101573   0.434303  -0.964313)
  25:      1186.98    2.157622  (  0.724807  -1.237318   0.318308)
  26:      1245.92   25.460673  ( -2.818116   1.352401   3.961049)
  27:      1258.92  109.637399  (  6.110183   0.894513  -8.455939)
  28:      1310.04   11.924229  ( -2.741251   0.572329   2.020448)
  29:      1340.41   13.361725  (  2.400914  -0.008618   2.756313)
  30:      1363.60    4.626081  ( -1.177603   0.170980  -1.791675)
  31:      1391.39    5.239410  (  1.627629   0.106331  -1.605904)
  32:      1417.66   21.727824  (  3.209660  -1.069422   3.206593)
  33:      1441.53   77.255334  ( -0.457781   1.090625   8.709553)
  34:      1482.62   10.723638  (  0.960427   0.728948  -3.044643)
  35:      1493.04    8.570756  (  1.064814   2.715360   0.252483)
  36:      1504.07    4.852104  ( -0.679703  -1.848514   0.986460)
  37:      1588.90   31.249075  (  3.539070   1.380143   4.101129)
  38:      1696.63  150.748992  (  7.060720  -0.899700 -10.004287)
  39:      3057.96    0.610235  (  0.191500   0.756879   0.026394)
  40:      3065.29    1.789398  ( -0.300079   1.246712   0.380868)
  41:      3076.58    4.331095  ( -0.962541   1.459124  -1.129410)
  42:      3149.52    2.361751  ( -0.163935  -1.515834   0.192677)
  43:      3150.60    2.112649  (  0.521163   0.708817  -1.156986)
  44:      3160.55    0.125722  ( -0.201238  -0.245329   0.158237)
  45:      3253.80   19.769731  (  3.736464   0.935805   2.220999)
  46:      3650.29  208.441170  (-10.731639  -1.089500   9.596149)
  47:      3761.05  120.543141  ( -5.157440   6.505792   7.184610)

--------------------------
THERMOCHEMISTRY AT 298.15K
--------------------------

Temperature         ... 298.15 K
Pressure            ... 1.00 atm
Total Mass          ... 101.13 AMU

Throughout the following assumptions are being made:
  (1) The electronic state is orbitally nondegenerate
  (2) There are no thermally accessible electronically excited states
  (3) Hindered rotations indicated by low frequency modes) are not
      treated as such but are treated as vibrations and this may
      case some error
  (4) All equations used are the standard statistical mechanics
      equations for an ideal gas
  (5) All vibrations are strinctly harmonic

------------
INNER ENERGY
------------

The inner energy is: U= E(el) + E(ZPE) + E(vib) + E(rot) + E(trans)
    E(el)   - is the total energy from the electronic structure calculation
              = E(kin-el) + E(nuc-el) + E(el-el) + E(nuc-nuc)
    E(ZPE)  - the the zero temperature vibrational energy from the frequency calculation
    E(vib)  - the the finite temperature correction to E(ZPE) due to population
              of excietd vibrational states
    E(rot)  - is the rotational thermal energy
    E(trans)- is the translational thermal energy

Summary of contributions to the inner energy U:
Electronic energy                ...   -342.02052136 Eh
Zero point energy                ...      0.14031633 Eh      88.05 kcal/mol
Thermal vibrational correction   ...      0.00420766 Eh       2.64 kcal/mol
Thermal rotational correction    ...      0.00141627 Eh       0.89 kcal/mol
Thermal translational correction ...      0.00141627 Eh       0.89 kcal/mol
-----------------------------------------------------------------------
Total thermal energy                   -341.87316482 Eh

Summary of corrections to the electronic energy:
(perhaps to be used in another calculation)
Total thermal correction                  0.00704020 Eh       4.42 kcal/mol
Non-thermal (ZPE) correction              0.14031633 Eh      88.05 kcal/mol
-----------------------------------------------------------------------
Total correction                          0.14735654 Eh      92.47 kcal/mol

--------
ENTHALPY
--------

The enthalpy is H = U + kB*T
                kB is Boltzmann's constant
Total free energy                 ...   -341.87316482 Eh
Thermal Enthalpy correction       ...      0.00094421 Eh       0.59 kcal/mol
-----------------------------------------------------------------------
Total Enthalpy                    ...   -341.87222061 Eh

-------
ENTROPY
-------

The entropy contributions are T*S = T*(S(el)+S(vib)+S(rot)+S(trans)
     S(el)   - electronic entropy
     S(vib)  - vibrational entropy
     S(rot)  - rotational entropy
     S(trans)- translational entropy
The entropies will be listed as mutliplied by the temperature to get
units of energy

Electronic entropy                ...      0.00000000 Eh      0.00 kcal/mol
Vibrational entropy               ...      0.00685689 Eh      4.30 kcal/mol
Rotational entropy                ...      0.01188912 Eh      7.46 kcal/mol
Translational entropy             ...      0.01888714 Eh     11.85 kcal/mol
-----------------------------------------------------------------------
Final entropy term                ...      0.03763315 Eh     23.62 kcal/mol

CAUTION: The rotational entropy is not quite correctly treated here
         because it includes a symmetry number that is not yet correctly
         implemented in ORCA!
For a nonlinear molecule the correct rotational entropy is:
    S(rot) = R*(ln(qrot/sn)+1.5)
    R    = 8.31441 J/mol/K = 1.987191683e-3 kcal/mol/K
    qrot = 196930.5426811
    sn is the rotational symmetry number. We have assumed 3 here
       if it is different for your molecule then you should correct
       the printed rotational entropy by manually evaluating the equation
       as given above

For convenience we print out the resulting values for sn=1 - 12:
 sn= 1  qrot/sn=  196930.5427 T*S(rot)=     8.11 kcal/mol T*S(tot)=    24.27 kcal/mol
 sn= 2  qrot/sn=   98465.2713 T*S(rot)=     7.70 kcal/mol T*S(tot)=    23.86 kcal/mol
 sn= 3  qrot/sn=   65643.5142 T*S(rot)=     7.46 kcal/mol T*S(tot)=    23.62 kcal/mol
 sn= 4  qrot/sn=   49232.6357 T*S(rot)=     7.29 kcal/mol T*S(tot)=    23.44 kcal/mol
 sn= 5  qrot/sn=   39386.1085 T*S(rot)=     7.16 kcal/mol T*S(tot)=    23.31 kcal/mol
 sn= 6  qrot/sn=   32821.7571 T*S(rot)=     7.05 kcal/mol T*S(tot)=    23.20 kcal/mol
 sn= 7  qrot/sn=   28132.9347 T*S(rot)=     6.96 kcal/mol T*S(tot)=    23.11 kcal/mol
 sn= 8  qrot/sn=   24616.3178 T*S(rot)=     6.88 kcal/mol T*S(tot)=    23.03 kcal/mol
 sn= 9  qrot/sn=   21881.1714 T*S(rot)=     6.81 kcal/mol T*S(tot)=    22.96 kcal/mol
 sn=10  qrot/sn=   19693.0543 T*S(rot)=     6.75 kcal/mol T*S(tot)=    22.90 kcal/mol
 sn=11  qrot/sn=   17902.7766 T*S(rot)=     6.69 kcal/mol T*S(tot)=    22.85 kcal/mol
 sn=12  qrot/sn=   16410.8786 T*S(rot)=     6.64 kcal/mol T*S(tot)=    22.79 kcal/mol

-------------------
GIBBS FREE ENTHALPY
-------------------

The Gibbs free enthalpy is G = H - T*S

Total enthalpy                    ...   -341.87222061 Eh
Total entropy correction          ...     -0.03763315 Eh    -23.62 kcal/mol
-----------------------------------------------------------------------
Final Gibbs free enthalpy         ...   -341.90985377 Eh

For completeness - the Gibbs free enthalpy minus the electronic energy
G-E(el)                           ...      0.11066759 Eh     69.44 kcal/mol

                             ****ORCA TERMINATED NORMALLY****
TOTAL RUN TIME: 0 days 0 hours 26 minutes 32 seconds 441 msec
