                         Program Version 3.0.3 - RELEASE   -
|  1> ! NORI PBE0 def2-TZVP UseSym TightOPT Freq TightSCF Grid3 FinalGrid5 XYZFile
|  2> % pal
|  3>     nprocs 8
|  4> end
|  5> %method
|  6>     SymThresh 5.0e-2
|  7> end
|  8> % geom
|  9>     MaxIter 10
| 10> end
| 11> % maxcore 2000
| 12> % output
| 13>     printlevel mini
| 14>     print[ P_Basis ] 0
| 15>     print[ P_SCFInfo ] 1
| 16>     print[ P_SCFIterInfo ] 1
| 17>     print[ P_OrbEn ] 0
| 18>     print[ P_Cartesian ] 0
| 19> end
| 20> % elprop
| 21>     Dipole false
| 22> end
| 23> *xyz 1 1
| 24>  C        0.8503691624     0.0680822805     0.0878059119
| 25>  C        2.3582509198     0.1085343676     0.0075263424
| 26>  C        2.7962124386     0.1593560498    -1.4462149791
| 27>  N        4.2949681112     0.1901631640    -1.5893143576
| 28>  C        3.1337716140     1.1210944930     0.8683921572
| 29>  O        4.1284043773     0.1234396120     1.1619869670
| 30>  C        3.1842677724    -0.9063854310     0.8175898521
| 31>  H        0.4456423050    -0.8128497370    -0.4173922122
| 32>  H        0.3998046378     0.9531480903    -0.3691526335
| 33>  H        0.5301970967     0.0314031271     1.1298222812
| 34>  H        2.4510727126    -0.7178555382    -1.9973981731
| 35>  H        2.4195931625     1.0563268179    -1.9422306731
| 36>  H        4.7202961898    -0.6418282021    -1.1745856414
| 37>  H        4.6953531514     0.9852724917    -1.0860412625
| 38>  H        4.5757583608     0.2462392161    -2.5692733021
| 39>  H        2.5872236779     1.4229580789     1.7669714568
| 40>  H        3.5532891925     2.0228932768     0.4036786720
| 41>  H        3.6472252440    -1.7628437980     0.3106634713
| 42>  H        2.6525498733    -1.2770683596     1.6990961227
| 43> *
| 44>
| 45>                          ****END OF INPUT****
 Total Charge           Charge          ....    1
 Multiplicity           Mult            ....    1
 Number of Electrons    NEL             ....   56
FINAL SINGLE POINT ENERGY      -327.191291303307
FINAL SINGLE POINT ENERGY      -327.191294866285

CARTESIAN COORDINATES (ANGSTROEM)
---------------------------------
  C     -1.663114   -0.004437   -1.379713
  C     -0.505920   -0.000053   -0.408285
  C      0.807618    0.007737   -1.172654
  N      2.001191   -0.001728   -0.254116
  C     -0.494811    1.014872    0.748293
  O     -0.004570    0.001828    1.645717
  C     -0.486577   -1.015043    0.748362
  H     -1.642007   -0.887609   -2.023103
  H     -1.649812    0.879551   -2.022190
  H     -2.610012   -0.008776   -0.838511
  H      0.902247   -0.872578   -1.811378
  H      0.900569    0.902141   -1.791740
  H      2.001714   -0.835187    0.337398
  H      1.975637    0.792839    0.388649
  H      2.876314    0.026881   -0.778999
  H     -1.497421    1.350767    1.028965
  H      0.159442    1.894115    0.694254
  H      0.173472   -1.889936    0.695718
  H     -1.487148   -1.357536    1.028460

FINAL SINGLE POINT ENERGY      -327.191295767316
                    ***********************HURRAY********************
 Multiplicity           Mult            ....    1
 Number of Electrons    NEL             ....   56
 Basis Dimension        Dim             ....  289
FINAL SINGLE POINT ENERGY      -327.191296148965

VIBRATIONAL FREQUENCIES
-----------------------

   0:         0.00 cm**-1
   1:         0.00 cm**-1
   2:         0.00 cm**-1
   3:         0.00 cm**-1
   4:         0.00 cm**-1
   5:         0.00 cm**-1
   6:       -93.14 cm**-1 ***imaginary mode***
   7:       190.07 cm**-1
   8:       198.72 cm**-1
   9:       207.17 cm**-1
  10:       266.31 cm**-1
  11:       307.11 cm**-1
  12:       369.37 cm**-1
  13:       381.41 cm**-1
  14:       472.91 cm**-1
  15:       632.48 cm**-1
  16:       823.95 cm**-1
  17:       835.68 cm**-1
  18:       890.85 cm**-1
  19:       895.01 cm**-1
  20:       957.10 cm**-1
  21:       964.60 cm**-1
  22:      1002.02 cm**-1
  23:      1016.36 cm**-1
  24:      1031.56 cm**-1
  25:      1074.77 cm**-1
  26:      1079.42 cm**-1
  27:      1143.59 cm**-1
  28:      1192.84 cm**-1
  29:      1226.08 cm**-1
  30:      1258.43 cm**-1
  31:      1294.34 cm**-1
  32:      1299.99 cm**-1
  33:      1351.73 cm**-1
  34:      1370.06 cm**-1
  35:      1414.08 cm**-1
  36:      1425.76 cm**-1
  37:      1483.20 cm**-1
  38:      1488.56 cm**-1
  39:      1494.21 cm**-1
  40:      1510.35 cm**-1
  41:      1516.05 cm**-1
  42:      1549.70 cm**-1
  43:      1635.03 cm**-1
  44:      1642.85 cm**-1
  45:      3026.16 cm**-1
  46:      3033.16 cm**-1
  47:      3056.41 cm**-1
  48:      3088.78 cm**-1
  49:      3094.73 cm**-1
  50:      3095.66 cm**-1
  51:      3128.40 cm**-1
  52:      3147.08 cm**-1
  53:      3147.85 cm**-1
  54:      3429.98 cm**-1
  55:      3498.51 cm**-1
  56:      3520.22 cm**-1

IR SPECTRUM
-----------

 Mode    freq (cm**-1)   T**2         TX         TY         TZ
-------------------------------------------------------------------
   7:       190.07    3.065324  ( -0.378463   1.674323   0.344576)
   8:       198.72   29.600332  (  4.138105   0.145099  -3.529216)
   9:       207.17    0.757447  ( -0.091096   0.862887   0.067631)
  10:       266.31    3.884409  ( -1.096956   0.000432   1.637405)
  11:       307.11    0.931008  ( -0.014063   0.964699  -0.012925)
  12:       369.37   11.422877  ( -3.379667  -0.010229  -0.024926)
  13:       381.41    0.030574  (  0.079160  -0.155714   0.007823)
  14:       472.91    6.162559  ( -2.449344  -0.003987   0.404049)
  15:       632.48    0.681304  ( -0.366342   0.005053  -0.739643)
  16:       823.95   15.969023  ( -0.929465  -0.076428   3.885779)
  17:       835.68    9.118218  (  0.004172   3.017157   0.122331)
  18:       890.85   15.224538  ( -2.788489   0.013239  -2.729230)
  19:       895.01    0.617167  ( -0.123717  -0.763334  -0.138497)
  20:       957.10    0.524985  ( -0.723120   0.045551   0.002610)
  21:       964.60    0.782406  ( -0.037603  -0.883648  -0.012562)
  22:      1002.02   16.799279  (  4.072074   0.000929  -0.466359)
  23:      1016.36   10.627319  ( -2.069196  -0.028697  -2.518913)
  24:      1031.56   77.583406  ( -0.053983   8.807955   0.020666)
  25:      1074.77   26.249695  (  2.581927   0.082793  -4.424533)
  26:      1079.42    0.294594  ( -0.018822   0.530812   0.111704)
  27:      1143.59    0.581877  ( -0.025259   0.762211  -0.016532)
  28:      1192.84    7.533691  ( -2.457142  -0.016278  -1.223062)
  29:      1226.08    3.190917  ( -0.058841  -1.785177  -0.024434)
  30:      1258.43    4.508368  (  2.111693  -0.007715   0.221500)
  31:      1294.34    0.067806  ( -0.016886  -0.259780   0.005921)
  32:      1299.99    0.066501  ( -0.249213  -0.039475  -0.053252)
  33:      1351.73    6.524787  (  0.004927   2.554129   0.034480)
  34:      1370.06    0.763108  ( -0.685620  -0.021708   0.540890)
  35:      1414.08    3.254059  (  0.705093   0.008166   1.660372)
  36:      1425.76    6.422201  (  2.452170   0.008180   0.639529)
  37:      1483.20    0.133981  ( -0.285017   0.016894  -0.229042)
  38:      1488.56   12.345505  (  0.019303  -3.513544   0.011719)
  39:      1494.21   27.548356  ( -3.896827  -0.032223   3.515971)
  40:      1510.35  141.093987  (-10.794271   0.110947  -4.956348)
  41:      1516.05    1.118046  (  0.287741   1.016080   0.053227)
  42:      1549.70   25.038887  ( -3.744956  -0.091283  -3.317508)
  43:      1635.03   43.024518  ( -3.957069  -3.670853   3.727058)
  44:      1642.85   52.369997  ( -2.185643   6.544520   2.182251)
  45:      3026.16   62.557877  ( -0.080138   7.908944  -0.007353)
  46:      3033.16    8.783881  ( -2.896266   0.031335   0.628125)
  47:      3056.41    3.901800  ( -0.465355  -0.005457  -1.919691)
  48:      3088.78    4.327396  (  1.195607   0.002085  -1.702326)
  49:      3094.73    1.508852  ( -1.221746   0.126891  -0.009418)
  50:      3095.66   23.883654  (  4.886908   0.031640  -0.028021)
  51:      3128.40    5.550885  (  0.001725  -2.356031  -0.001454)
  52:      3147.08    4.163520  (  1.214008   0.016496  -1.639949)
  53:      3147.85    0.951167  (  0.044873  -0.972662  -0.055520)
  54:      3429.98   33.222572  (  4.327765   0.164501   3.803415)
  55:      3498.51   78.507571  ( -0.607411   8.823659   0.530727)
  56:      3520.22  114.014417  (  7.444240   0.636003  -7.628447)

--------------------------
THERMOCHEMISTRY AT 298.15K
--------------------------

Temperature         ... 298.15 K
Pressure            ... 1.00 atm
Total Mass          ... 102.16 AMU

Throughout the following assumptions are being made:
  (1) The electronic state is orbitally nondegenerate
  (2) There are no thermally accessible electronically excited states
  (3) Hindered rotations indicated by low frequency modes) are not
      treated as such but are treated as vibrations and this may
      case some error
  (4) All equations used are the standard statistical mechanics
      equations for an ideal gas
  (5) All vibrations are strinctly harmonic

------------
INNER ENERGY
------------

The inner energy is: U= E(el) + E(ZPE) + E(vib) + E(rot) + E(trans)
    E(el)   - is the total energy from the electronic structure calculation
              = E(kin-el) + E(nuc-el) + E(el-el) + E(nuc-nuc)
    E(ZPE)  - the the zero temperature vibrational energy from the frequency calculation
    E(vib)  - the the finite temperature correction to E(ZPE) due to population
              of excietd vibrational states
    E(rot)  - is the rotational thermal energy
    E(trans)- is the translational thermal energy

Summary of contributions to the inner energy U:
Electronic energy                ...   -327.19129615 Eh
Zero point energy                ...      0.17578484 Eh     110.31 kcal/mol
Thermal vibrational correction   ...      0.00427056 Eh       2.68 kcal/mol
Thermal rotational correction    ...      0.00141627 Eh       0.89 kcal/mol
Thermal translational correction ...      0.00141627 Eh       0.89 kcal/mol
-----------------------------------------------------------------------
Total thermal energy                   -327.00840821 Eh

Summary of corrections to the electronic energy:
(perhaps to be used in another calculation)
Total thermal correction                  0.00710310 Eh       4.46 kcal/mol
Non-thermal (ZPE) correction              0.17578484 Eh     110.31 kcal/mol
-----------------------------------------------------------------------
Total correction                          0.18288794 Eh     114.76 kcal/mol

--------
ENTHALPY
--------

The enthalpy is H = U + kB*T
                kB is Boltzmann's constant
Total free energy                 ...   -327.00840821 Eh
Thermal Enthalpy correction       ...      0.00094421 Eh       0.59 kcal/mol
-----------------------------------------------------------------------
Total Enthalpy                    ...   -327.00746400 Eh

-------
ENTROPY
-------

The entropy contributions are T*S = T*(S(el)+S(vib)+S(rot)+S(trans)
     S(el)   - electronic entropy
     S(vib)  - vibrational entropy
     S(rot)  - rotational entropy
     S(trans)- translational entropy
The entropies will be listed as mutliplied by the temperature to get
units of energy

Electronic entropy                ...      0.00000000 Eh      0.00 kcal/mol
Vibrational entropy               ...      0.00681012 Eh      4.27 kcal/mol
Rotational entropy                ...      0.01194283 Eh      7.49 kcal/mol
Translational entropy             ...      0.01890147 Eh     11.86 kcal/mol
-----------------------------------------------------------------------
Final entropy term                ...      0.03765442 Eh     23.63 kcal/mol

CAUTION: The rotational entropy is not quite correctly treated here
         because it includes a symmetry number that is not yet correctly
         implemented in ORCA!
For a nonlinear molecule the correct rotational entropy is:
    S(rot) = R*(ln(qrot/sn)+1.5)
    R    = 8.31441 J/mol/K = 1.987191683e-3 kcal/mol/K
    qrot = 208457.4702161
    sn is the rotational symmetry number. We have assumed 3 here
       if it is different for your molecule then you should correct
       the printed rotational entropy by manually evaluating the equation
       as given above

For convenience we print out the resulting values for sn=1 - 12:
 sn= 1  qrot/sn=  208457.4702 T*S(rot)=     8.15 kcal/mol T*S(tot)=    24.28 kcal/mol
 sn= 2  qrot/sn=  104228.7351 T*S(rot)=     7.73 kcal/mol T*S(tot)=    23.87 kcal/mol
 sn= 3  qrot/sn=   69485.8234 T*S(rot)=     7.49 kcal/mol T*S(tot)=    23.63 kcal/mol
 sn= 4  qrot/sn=   52114.3676 T*S(rot)=     7.32 kcal/mol T*S(tot)=    23.46 kcal/mol
 sn= 5  qrot/sn=   41691.4940 T*S(rot)=     7.19 kcal/mol T*S(tot)=    23.33 kcal/mol
 sn= 6  qrot/sn=   34742.9117 T*S(rot)=     7.08 kcal/mol T*S(tot)=    23.22 kcal/mol
 sn= 7  qrot/sn=   29779.6386 T*S(rot)=     6.99 kcal/mol T*S(tot)=    23.13 kcal/mol
 sn= 8  qrot/sn=   26057.1838 T*S(rot)=     6.91 kcal/mol T*S(tot)=    23.05 kcal/mol
 sn= 9  qrot/sn=   23161.9411 T*S(rot)=     6.84 kcal/mol T*S(tot)=    22.98 kcal/mol
 sn=10  qrot/sn=   20845.7470 T*S(rot)=     6.78 kcal/mol T*S(tot)=    22.92 kcal/mol
 sn=11  qrot/sn=   18950.6791 T*S(rot)=     6.72 kcal/mol T*S(tot)=    22.86 kcal/mol
 sn=12  qrot/sn=   17371.4559 T*S(rot)=     6.67 kcal/mol T*S(tot)=    22.81 kcal/mol

-------------------
GIBBS FREE ENTHALPY
-------------------

The Gibbs free enthalpy is G = H - T*S

Total enthalpy                    ...   -327.00746400 Eh
Total entropy correction          ...     -0.03765442 Eh    -23.63 kcal/mol
-----------------------------------------------------------------------
Final Gibbs free enthalpy         ...   -327.04511841 Eh

For completeness - the Gibbs free enthalpy minus the electronic energy
G-E(el)                           ...      0.14617774 Eh     91.73 kcal/mol

                             ****ORCA TERMINATED NORMALLY****
TOTAL RUN TIME: 0 days 0 hours 42 minutes 7 seconds 968 msec
