                         Program Version 3.0.3 - RELEASE   -
|  1> ! NORI PBE0 def2-TZVP UseSym TightOPT Freq TightSCF Grid3 FinalGrid5 XYZFile
|  2> % pal
|  3>     nprocs 8
|  4> end
|  5> %method
|  6>     SymThresh 5.0e-2
|  7> end
|  8> % geom
|  9>     MaxIter 10
| 10> end
| 11> % maxcore 2000
| 12> % output
| 13>     printlevel mini
| 14>     print[ P_Basis ] 0
| 15>     print[ P_SCFInfo ] 1
| 16>     print[ P_SCFIterInfo ] 1
| 17>     print[ P_OrbEn ] 0
| 18>     print[ P_Cartesian ] 0
| 19> end
| 20> % elprop
| 21>     Dipole false
| 22> end
| 23> *xyz 1 1
| 24>  C        0.9899173305     0.0366083828    -0.3791493418
| 25>  C        2.3593565342    -0.0503652314     0.2495451121
| 26>  C        2.7367193539    -1.4416990140     0.8018401964
| 27>  N        3.4051445302    -1.0925006096     2.0601595722
| 28>  O        3.6578098515    -2.0326954174     3.0097061511
| 29>  C        3.1090026128     0.1367005345     2.4157778317
| 30>  N        2.4899006767     0.7818942943     1.4659606199
| 31>  H        0.9455851491    -0.6146646380    -1.2536479757
| 32>  H        0.7776163262     1.0521277985    -0.7181922621
| 33>  H        0.2132459412    -0.2707730454     0.3233046265
| 34>  H        3.1260981442     0.2841733233    -0.4562759815
| 35>  H        3.4068092383    -1.9908312116     0.1423027116
| 36>  H        1.8603935051    -2.0564847676     1.0301227991
| 37>  H        4.5433273782    -2.3802932252     2.8264740373
| 38>  H        3.3558258171     0.5370223236     3.3913088251
| 39>  H        2.2908176108     1.7698705032     1.4981930779
| 40> *
| 41>
| 42>                          ****END OF INPUT****
 Total Charge           Charge          ....    1
 Multiplicity           Mult            ....    1
 Number of Electrons    NEL             ....   54
FINAL SINGLE POINT ENERGY      -342.020482444902

CARTESIAN COORDINATES (ANGSTROEM)
---------------------------------
  C     -0.978553   -0.608089   -2.254678
  C      0.108023   -0.425498   -1.223201
  C     -0.197679   -1.036522    0.161075
  N      0.313538   -0.000150    1.064704
  O     -0.000045   -0.000254    2.388001
  C      0.463897    1.137651    0.425837
  N      0.331128    0.992447   -0.863766
  H     -1.114616   -1.671427   -2.459757
  H     -0.710109   -0.126363   -3.196716
  H     -1.927422   -0.197126   -1.905362
  H      1.058907   -0.819208   -1.595861
  H      0.310723   -1.984955    0.326234
  H     -1.270384   -1.158377    0.340312
  H      0.695378   -0.503114    2.837464
  H      0.666354    2.070930    0.936665
  H      0.533727    1.719357   -1.532622

FINAL SINGLE POINT ENERGY      -342.020482863732
                    ***********************HURRAY********************
 Multiplicity           Mult            ....    1
 Number of Electrons    NEL             ....   54
 Basis Dimension        Dim             ....  271
FINAL SINGLE POINT ENERGY      -342.020483059692

VIBRATIONAL FREQUENCIES
-----------------------

   0:         0.00 cm**-1
   1:         0.00 cm**-1
   2:         0.00 cm**-1
   3:         0.00 cm**-1
   4:         0.00 cm**-1
   5:         0.00 cm**-1
   6:        92.02 cm**-1
   7:       227.32 cm**-1
   8:       238.61 cm**-1
   9:       287.47 cm**-1
  10:       362.03 cm**-1
  11:       403.88 cm**-1
  12:       432.18 cm**-1
  13:       494.74 cm**-1
  14:       570.46 cm**-1
  15:       608.62 cm**-1
  16:       764.04 cm**-1
  17:       852.52 cm**-1
  18:       918.84 cm**-1
  19:       939.36 cm**-1
  20:       972.56 cm**-1
  21:      1000.71 cm**-1
  22:      1082.60 cm**-1
  23:      1142.42 cm**-1
  24:      1152.92 cm**-1
  25:      1197.55 cm**-1
  26:      1222.88 cm**-1
  27:      1265.86 cm**-1
  28:      1307.73 cm**-1
  29:      1346.19 cm**-1
  30:      1355.50 cm**-1
  31:      1388.42 cm**-1
  32:      1420.45 cm**-1
  33:      1440.18 cm**-1
  34:      1483.81 cm**-1
  35:      1487.76 cm**-1
  36:      1505.49 cm**-1
  37:      1586.78 cm**-1
  38:      1696.35 cm**-1
  39:      3063.73 cm**-1
  40:      3067.02 cm**-1
  41:      3076.11 cm**-1
  42:      3146.96 cm**-1
  43:      3151.34 cm**-1
  44:      3158.68 cm**-1
  45:      3252.78 cm**-1
  46:      3646.20 cm**-1
  47:      3757.97 cm**-1

IR SPECTRUM
-----------

 Mode    freq (cm**-1)   T**2         TX         TY         TZ
-------------------------------------------------------------------
   6:        92.02    0.378164  ( -0.313279  -0.353719  -0.393577)
   7:       227.32    2.722472  (  1.643156   0.076333   0.129171)
   8:       238.61    1.454447  ( -1.068268   0.558113   0.041943)
   9:       287.47    6.754567  (  2.323546  -0.950127   0.673022)
  10:       362.03   72.755318  (  0.123168   8.474095  -0.964292)
  11:       403.88   93.360526  (  7.538647   5.943799   1.095711)
  12:       432.18    4.838191  (  2.173840  -0.146114   0.302096)
  13:       494.74   58.541831  (  7.348601  -0.544926   2.059841)
  14:       570.46   37.995910  (  5.669108  -2.277616   0.818283)
  15:       608.62    2.980725  ( -1.191826   1.110405  -0.572079)
  16:       764.04    9.292224  (  0.117070  -0.591837   2.988017)
  17:       852.52    1.842447  (  0.806370   0.993594   0.452755)
  18:       918.84   18.191843  ( -1.244441  -0.408614  -4.059094)
  19:       939.36    0.973472  ( -0.061976   0.973626  -0.147249)
  20:       972.56    9.334437  (  0.248160   0.534234   2.997907)
  21:      1000.71    9.494331  ( -2.130974  -1.143361   1.909452)
  22:      1082.60    4.952487  (  0.207025  -2.189068   0.342944)
  23:      1142.42    6.663953  (  0.701443  -2.470603  -0.260868)
  24:      1152.92    3.856376  ( -0.533058  -1.578668   1.039246)
  25:      1197.55    0.253804  (  0.247773   0.111568   0.424223)
  26:      1222.88   14.937204  (  1.990600  -2.348995   2.336009)
  27:      1265.86  112.031279  ( -0.968245  -3.814793   9.825535)
  28:      1307.73   35.897179  (  0.083775  -1.495556   5.801161)
  29:      1346.19    7.079267  ( -1.046191  -1.863426  -1.585054)
  30:      1355.50    7.407838  ( -1.432936  -2.205343   0.700711)
  31:      1388.42    1.296771  ( -0.567508   0.451536  -0.877964)
  32:      1420.45   17.822496  (  2.468915   1.167313   3.219369)
  33:      1440.18   91.215545  (  0.876299  -2.077846  -9.280636)
  34:      1483.81    8.008053  (  1.246571   1.511741  -2.041752)
  35:      1487.76    9.405740  ( -1.943413   2.331556   0.439011)
  36:      1505.49    3.288438  ( -1.383761  -0.202345   1.154426)
  37:      1586.78   35.798299  (  1.520973   4.311354   3.859685)
  38:      1696.35  157.014459  (  0.249179  -4.796913  11.573331)
  39:      3063.73    0.322315  ( -0.200715   0.188101  -0.496635)
  40:      3067.02    1.795678  ( -0.804342   1.071519   0.023665)
  41:      3076.11    3.072969  ( -1.733127  -0.204802   0.165219)
  42:      3146.96    1.982695  ( -0.540383  -0.735293   1.072393)
  43:      3151.34    2.567334  (  1.303055  -0.530250  -0.766953)
  44:      3158.68    0.468390  (  0.495305  -0.393925  -0.260551)
  45:      3252.78   19.682604  (  0.797041   3.935934   1.885670)
  46:      3646.20  185.217065  (  2.129344   8.955161 -10.024372)
  47:      3757.97  138.203732  (  6.048389  -4.631796   8.953613)

--------------------------
THERMOCHEMISTRY AT 298.15K
--------------------------

Temperature         ... 298.15 K
Pressure            ... 1.00 atm
Total Mass          ... 101.13 AMU

Throughout the following assumptions are being made:
  (1) The electronic state is orbitally nondegenerate
  (2) There are no thermally accessible electronically excited states
  (3) Hindered rotations indicated by low frequency modes) are not
      treated as such but are treated as vibrations and this may
      case some error
  (4) All equations used are the standard statistical mechanics
      equations for an ideal gas
  (5) All vibrations are strinctly harmonic

------------
INNER ENERGY
------------

The inner energy is: U= E(el) + E(ZPE) + E(vib) + E(rot) + E(trans)
    E(el)   - is the total energy from the electronic structure calculation
              = E(kin-el) + E(nuc-el) + E(el-el) + E(nuc-nuc)
    E(ZPE)  - the the zero temperature vibrational energy from the frequency calculation
    E(vib)  - the the finite temperature correction to E(ZPE) due to population
              of excietd vibrational states
    E(rot)  - is the rotational thermal energy
    E(trans)- is the translational thermal energy

Summary of contributions to the inner energy U:
Electronic energy                ...   -342.02048306 Eh
Zero point energy                ...      0.14026471 Eh      88.02 kcal/mol
Thermal vibrational correction   ...      0.00421383 Eh       2.64 kcal/mol
Thermal rotational correction    ...      0.00141627 Eh       0.89 kcal/mol
Thermal translational correction ...      0.00141627 Eh       0.89 kcal/mol
-----------------------------------------------------------------------
Total thermal energy                   -341.87317198 Eh

Summary of corrections to the electronic energy:
(perhaps to be used in another calculation)
Total thermal correction                  0.00704637 Eh       4.42 kcal/mol
Non-thermal (ZPE) correction              0.14026471 Eh      88.02 kcal/mol
-----------------------------------------------------------------------
Total correction                          0.14731108 Eh      92.44 kcal/mol

--------
ENTHALPY
--------

The enthalpy is H = U + kB*T
                kB is Boltzmann's constant
Total free energy                 ...   -341.87317198 Eh
Thermal Enthalpy correction       ...      0.00094421 Eh       0.59 kcal/mol
-----------------------------------------------------------------------
Total Enthalpy                    ...   -341.87222777 Eh

-------
ENTROPY
-------

The entropy contributions are T*S = T*(S(el)+S(vib)+S(rot)+S(trans)
     S(el)   - electronic entropy
     S(vib)  - vibrational entropy
     S(rot)  - rotational entropy
     S(trans)- translational entropy
The entropies will be listed as mutliplied by the temperature to get
units of energy

Electronic entropy                ...      0.00000000 Eh      0.00 kcal/mol
Vibrational entropy               ...      0.00695950 Eh      4.37 kcal/mol
Rotational entropy                ...      0.01189133 Eh      7.46 kcal/mol
Translational entropy             ...      0.01888714 Eh     11.85 kcal/mol
-----------------------------------------------------------------------
Final entropy term                ...      0.03773797 Eh     23.68 kcal/mol

CAUTION: The rotational entropy is not quite correctly treated here
         because it includes a symmetry number that is not yet correctly
         implemented in ORCA!
For a nonlinear molecule the correct rotational entropy is:
    S(rot) = R*(ln(qrot/sn)+1.5)
    R    = 8.31441 J/mol/K = 1.987191683e-3 kcal/mol/K
    qrot = 197392.7677091
    sn is the rotational symmetry number. We have assumed 3 here
       if it is different for your molecule then you should correct
       the printed rotational entropy by manually evaluating the equation
       as given above

For convenience we print out the resulting values for sn=1 - 12:
 sn= 1  qrot/sn=  197392.7677 T*S(rot)=     8.11 kcal/mol T*S(tot)=    24.33 kcal/mol
 sn= 2  qrot/sn=   98696.3839 T*S(rot)=     7.70 kcal/mol T*S(tot)=    23.92 kcal/mol
 sn= 3  qrot/sn=   65797.5892 T*S(rot)=     7.46 kcal/mol T*S(tot)=    23.68 kcal/mol
 sn= 4  qrot/sn=   49348.1919 T*S(rot)=     7.29 kcal/mol T*S(tot)=    23.51 kcal/mol
 sn= 5  qrot/sn=   39478.5535 T*S(rot)=     7.16 kcal/mol T*S(tot)=    23.38 kcal/mol
 sn= 6  qrot/sn=   32898.7946 T*S(rot)=     7.05 kcal/mol T*S(tot)=    23.27 kcal/mol
 sn= 7  qrot/sn=   28198.9668 T*S(rot)=     6.96 kcal/mol T*S(tot)=    23.18 kcal/mol
 sn= 8  qrot/sn=   24674.0960 T*S(rot)=     6.88 kcal/mol T*S(tot)=    23.10 kcal/mol
 sn= 9  qrot/sn=   21932.5297 T*S(rot)=     6.81 kcal/mol T*S(tot)=    23.03 kcal/mol
 sn=10  qrot/sn=   19739.2768 T*S(rot)=     6.75 kcal/mol T*S(tot)=    22.97 kcal/mol
 sn=11  qrot/sn=   17944.7971 T*S(rot)=     6.69 kcal/mol T*S(tot)=    22.91 kcal/mol
 sn=12  qrot/sn=   16449.3973 T*S(rot)=     6.64 kcal/mol T*S(tot)=    22.86 kcal/mol

-------------------
GIBBS FREE ENTHALPY
-------------------

The Gibbs free enthalpy is G = H - T*S

Total enthalpy                    ...   -341.87222777 Eh
Total entropy correction          ...     -0.03773797 Eh    -23.68 kcal/mol
-----------------------------------------------------------------------
Final Gibbs free enthalpy         ...   -341.90996574 Eh

For completeness - the Gibbs free enthalpy minus the electronic energy
G-E(el)                           ...      0.11051731 Eh     69.35 kcal/mol

                             ****ORCA TERMINATED NORMALLY****
TOTAL RUN TIME: 0 days 0 hours 25 minutes 37 seconds 430 msec
