                         Program Version 3.0.3 - RELEASE   -
|  1> ! NORI PBE0 def2-TZVP UseSym TightOPT Freq TightSCF Grid3 FinalGrid5 XYZFile
|  2> % pal
|  3>     nprocs 8
|  4> end
|  5> %method
|  6>     SymThresh 5.0e-2
|  7> end
|  8> % geom
|  9>     MaxIter 10
| 10> end
| 11> % maxcore 2000
| 12> % output
| 13>     printlevel mini
| 14>     print[ P_Basis ] 0
| 15>     print[ P_SCFInfo ] 1
| 16>     print[ P_SCFIterInfo ] 1
| 17>     print[ P_OrbEn ] 0
| 18>     print[ P_Cartesian ] 0
| 19> end
| 20> % elprop
| 21>     Dipole false
| 22> end
| 23> *xyz 1 1
| 24>  C        0.9931963459     0.0519818998    -0.2582542814
| 25>  C        2.4126980705    -0.3027725480     0.0645942598
| 26>  C        3.3079470140    -0.9139435594    -0.9170881570
| 27>  O        3.4361520266     0.4606884717    -0.5614638866
| 28>  C        2.7196514851    -0.4955005372     1.5195101301
| 29>  C        4.0959808817    -0.4413664980     2.0282133419
| 30>  N        3.2297552725     0.7479711305     2.1784484752
| 31>  H        0.8918457129     0.2472872462    -1.3252022787
| 32>  H        0.6729801456     0.9465530015     0.2825559234
| 33>  H        0.3218043257    -0.7679459507     0.0083070314
| 34>  H        4.1224803881    -1.5597363307    -0.5998121086
| 35>  H        2.9267759626    -1.0923398706    -1.9172145510
| 36>  H        1.9785694583    -1.0088682037     2.1221403150
| 37>  H        4.9051124571    -0.2815638159     1.3269173940
| 38>  H        4.3402155790    -0.9353549873     2.9590654339
| 39>  H        2.8977612215     1.0113578568     3.0991092538
| 40>  H        3.4307836528     1.5182726949     1.5443637047
| 41> *
| 42>
| 43>                          ****END OF INPUT****
 Total Charge           Charge          ....    1
 Multiplicity           Mult            ....    1
 Number of Electrons    NEL             ....   54
FINAL SINGLE POINT ENERGY      -325.959495707865
FINAL SINGLE POINT ENERGY      -325.959497330416

CARTESIAN COORDINATES (ANGSTROEM)
---------------------------------
  C     -1.145079   -1.738814    0.005276
  C     -0.634011   -0.338496    0.155842
  C     -1.243473    0.621045    1.075832
  O      0.000689   -0.003050    1.383300
  C      0.152766    0.196444   -1.003363
  C      1.038748    1.358212   -0.858305
  N      1.629052    0.001685   -0.848511
  H     -1.631907   -2.057769    0.926100
  H     -0.333113   -2.438764   -0.209507
  H     -1.871868   -1.797476   -0.808162
  H     -1.196680    1.687952    0.875380
  H     -2.081347    0.290365    1.681196
  H     -0.195265   -0.051639   -2.000022
  H      1.103319    1.847477    0.105292
  H      1.291339    1.948335   -1.729215
  H      2.189282   -0.305175   -1.635650
  H      1.923669   -0.340403    0.063736

FINAL SINGLE POINT ENERGY      -325.959497736486
                    ***********************HURRAY********************
 Multiplicity           Mult            ....    1
 Number of Electrons    NEL             ....   54
 Basis Dimension        Dim             ....  277
FINAL SINGLE POINT ENERGY      -325.959497794227

VIBRATIONAL FREQUENCIES
-----------------------

   0:         0.00 cm**-1
   1:         0.00 cm**-1
   2:         0.00 cm**-1
   3:         0.00 cm**-1
   4:         0.00 cm**-1
   5:         0.00 cm**-1
   6:        95.26 cm**-1
   7:       196.97 cm**-1
   8:       219.52 cm**-1
   9:       242.73 cm**-1
  10:       348.35 cm**-1
  11:       378.85 cm**-1
  12:       487.84 cm**-1
  13:       538.70 cm**-1
  14:       696.61 cm**-1
  15:       809.91 cm**-1
  16:       833.58 cm**-1
  17:       889.31 cm**-1
  18:       893.92 cm**-1
  19:       918.95 cm**-1
  20:       937.08 cm**-1
  21:       961.58 cm**-1
  22:      1026.36 cm**-1
  23:      1045.37 cm**-1
  24:      1090.50 cm**-1
  25:      1132.45 cm**-1
  26:      1136.95 cm**-1
  27:      1170.58 cm**-1
  28:      1184.12 cm**-1
  29:      1189.30 cm**-1
  30:      1247.77 cm**-1
  31:      1254.76 cm**-1
  32:      1279.58 cm**-1
  33:      1401.32 cm**-1
  34:      1423.31 cm**-1
  35:      1435.15 cm**-1
  36:      1477.46 cm**-1
  37:      1480.68 cm**-1
  38:      1486.26 cm**-1
  39:      1532.48 cm**-1
  40:      1606.60 cm**-1
  41:      3059.21 cm**-1
  42:      3125.89 cm**-1
  43:      3130.94 cm**-1
  44:      3164.83 cm**-1
  45:      3175.64 cm**-1
  46:      3203.97 cm**-1
  47:      3224.78 cm**-1
  48:      3280.30 cm**-1
  49:      3485.85 cm**-1
  50:      3607.81 cm**-1

IR SPECTRUM
-----------

 Mode    freq (cm**-1)   T**2         TX         TY         TZ
-------------------------------------------------------------------
   6:        95.26    4.776295  (  0.126676  -1.454399  -1.626337)
   7:       196.97    2.191965  (  0.716904   0.916628  -0.915318)
   8:       219.52    3.075445  ( -1.091109  -0.755974   1.146050)
   9:       242.73   16.550893  (  2.370099   0.966209  -3.162272)
  10:       348.35    1.069642  (  0.782692   0.348371   0.579374)
  11:       378.85    8.707084  (  1.751094   2.371279  -0.133374)
  12:       487.84    3.458137  (  1.434738   1.015061   0.607714)
  13:       538.70    9.261859  (  1.373465  -0.501068   2.669154)
  14:       696.61    2.938910  (  0.958238  -1.302953  -0.568334)
  15:       809.91   11.902639  ( -2.504789   2.094587   1.114171)
  16:       833.58    1.770025  (  0.384942  -0.254256   1.247878)
  17:       889.31   17.771623  ( -2.750510  -2.275801  -2.242108)
  18:       893.92   13.421696  (  2.113861  -1.286494  -2.701522)
  19:       918.95    6.221879  (  0.081055  -0.125457   2.489894)
  20:       937.08    1.993196  (  1.334285   0.096822  -0.451115)
  21:       961.58   37.826256  ( -5.478993   2.336317  -1.532486)
  22:      1026.36   19.849635  (  0.820945   3.742620   2.273429)
  23:      1045.37   74.022524  (  6.663271   5.393868   0.727697)
  24:      1090.50   15.287596  (  0.116582  -2.831912   2.693377)
  25:      1132.45   15.007408  ( -3.248817  -1.900268   0.917374)
  26:      1136.95    7.975437  ( -2.506186   0.823473  -1.008148)
  27:      1170.58    2.352418  ( -1.307514  -0.299594  -0.743687)
  28:      1184.12    3.209727  ( -1.555656  -0.754698  -0.469141)
  29:      1189.30    2.146339  ( -0.607571   0.671689  -1.151534)
  30:      1247.77   12.435538  ( -2.753729  -1.580756   1.534185)
  31:      1254.76    0.912061  (  0.613459   0.614703   0.397328)
  32:      1279.58    6.213667  ( -0.054510  -1.454201   2.023856)
  33:      1401.32    7.341554  ( -0.963117   1.757417  -1.823580)
  34:      1423.31    1.004340  (  0.842894  -0.220534   0.495211)
  35:      1435.15   28.477866  (  3.474246   3.833176   1.309291)
  36:      1477.46   16.114274  (  2.442398  -3.150935   0.469652)
  37:      1480.68    3.661087  ( -1.057189  -1.156237  -1.098433)
  38:      1486.26    9.082719  ( -1.424855  -0.340314   2.633761)
  39:      1532.48    7.476814  (  2.086904   0.984715   1.466963)
  40:      1606.60   74.871713  ( -7.548344   4.227471  -0.150653)
  41:      3059.21    3.890439  ( -0.897845   1.303912   1.176490)
  42:      3125.89    5.320291  (  1.132465  -1.955101   0.464106)
  43:      3130.94    4.699696  (  1.779503  -1.209646   0.264240)
  44:      3164.83    0.958589  ( -0.461431   0.481769   0.716638)
  45:      3175.64    3.021821  (  0.429716   1.590078   0.555712)
  46:      3203.97    1.460854  ( -0.808356  -0.135473  -0.888291)
  47:      3224.78    1.733100  ( -0.406781  -1.229384   0.237155)
  48:      3280.30    9.160007  (  0.260248   0.297486  -3.000630)
  49:      3485.85   92.957978  (  7.271964  -5.591992   2.967514)
  50:      3607.81  149.713085  (  4.535995  -0.853445 -11.331790)

--------------------------
THERMOCHEMISTRY AT 298.15K
--------------------------

Temperature         ... 298.15 K
Pressure            ... 1.00 atm
Total Mass          ... 100.14 AMU

Throughout the following assumptions are being made:
  (1) The electronic state is orbitally nondegenerate
  (2) There are no thermally accessible electronically excited states
  (3) Hindered rotations indicated by low frequency modes) are not
      treated as such but are treated as vibrations and this may
      case some error
  (4) All equations used are the standard statistical mechanics
      equations for an ideal gas
  (5) All vibrations are strinctly harmonic

------------
INNER ENERGY
------------

The inner energy is: U= E(el) + E(ZPE) + E(vib) + E(rot) + E(trans)
    E(el)   - is the total energy from the electronic structure calculation
              = E(kin-el) + E(nuc-el) + E(el-el) + E(nuc-nuc)
    E(ZPE)  - the the zero temperature vibrational energy from the frequency calculation
    E(vib)  - the the finite temperature correction to E(ZPE) due to population
              of excietd vibrational states
    E(rot)  - is the rotational thermal energy
    E(trans)- is the translational thermal energy

Summary of contributions to the inner energy U:
Electronic energy                ...   -325.95949779 Eh
Zero point energy                ...      0.15151948 Eh      95.08 kcal/mol
Thermal vibrational correction   ...      0.00424224 Eh       2.66 kcal/mol
Thermal rotational correction    ...      0.00141627 Eh       0.89 kcal/mol
Thermal translational correction ...      0.00141627 Eh       0.89 kcal/mol
-----------------------------------------------------------------------
Total thermal energy                   -325.80090354 Eh

Summary of corrections to the electronic energy:
(perhaps to be used in another calculation)
Total thermal correction                  0.00707478 Eh       4.44 kcal/mol
Non-thermal (ZPE) correction              0.15151948 Eh      95.08 kcal/mol
-----------------------------------------------------------------------
Total correction                          0.15859426 Eh      99.52 kcal/mol

--------
ENTHALPY
--------

The enthalpy is H = U + kB*T
                kB is Boltzmann's constant
Total free energy                 ...   -325.80090354 Eh
Thermal Enthalpy correction       ...      0.00094421 Eh       0.59 kcal/mol
-----------------------------------------------------------------------
Total Enthalpy                    ...   -325.79995933 Eh

-------
ENTROPY
-------

The entropy contributions are T*S = T*(S(el)+S(vib)+S(rot)+S(trans)
     S(el)   - electronic entropy
     S(vib)  - vibrational entropy
     S(rot)  - rotational entropy
     S(trans)- translational entropy
The entropies will be listed as mutliplied by the temperature to get
units of energy

Electronic entropy                ...      0.00000000 Eh      0.00 kcal/mol
Vibrational entropy               ...      0.00709919 Eh      4.45 kcal/mol
Rotational entropy                ...      0.01186108 Eh      7.44 kcal/mol
Translational entropy             ...      0.01887324 Eh     11.84 kcal/mol
-----------------------------------------------------------------------
Final entropy term                ...      0.03783350 Eh     23.74 kcal/mol

CAUTION: The rotational entropy is not quite correctly treated here
         because it includes a symmetry number that is not yet correctly
         implemented in ORCA!
For a nonlinear molecule the correct rotational entropy is:
    S(rot) = R*(ln(qrot/sn)+1.5)
    R    = 8.31441 J/mol/K = 1.987191683e-3 kcal/mol/K
    qrot = 191166.9619450
    sn is the rotational symmetry number. We have assumed 3 here
       if it is different for your molecule then you should correct
       the printed rotational entropy by manually evaluating the equation
       as given above

For convenience we print out the resulting values for sn=1 - 12:
 sn= 1  qrot/sn=  191166.9619 T*S(rot)=     8.09 kcal/mol T*S(tot)=    24.39 kcal/mol
 sn= 2  qrot/sn=   95583.4810 T*S(rot)=     7.68 kcal/mol T*S(tot)=    23.98 kcal/mol
 sn= 3  qrot/sn=   63722.3206 T*S(rot)=     7.44 kcal/mol T*S(tot)=    23.74 kcal/mol
 sn= 4  qrot/sn=   47791.7405 T*S(rot)=     7.27 kcal/mol T*S(tot)=    23.57 kcal/mol
 sn= 5  qrot/sn=   38233.3924 T*S(rot)=     7.14 kcal/mol T*S(tot)=    23.44 kcal/mol
 sn= 6  qrot/sn=   31861.1603 T*S(rot)=     7.03 kcal/mol T*S(tot)=    23.33 kcal/mol
 sn= 7  qrot/sn=   27309.5660 T*S(rot)=     6.94 kcal/mol T*S(tot)=    23.24 kcal/mol
 sn= 8  qrot/sn=   23895.8702 T*S(rot)=     6.86 kcal/mol T*S(tot)=    23.16 kcal/mol
 sn= 9  qrot/sn=   21240.7735 T*S(rot)=     6.79 kcal/mol T*S(tot)=    23.09 kcal/mol
 sn=10  qrot/sn=   19116.6962 T*S(rot)=     6.73 kcal/mol T*S(tot)=    23.03 kcal/mol
 sn=11  qrot/sn=   17378.8147 T*S(rot)=     6.67 kcal/mol T*S(tot)=    22.97 kcal/mol
 sn=12  qrot/sn=   15930.5802 T*S(rot)=     6.62 kcal/mol T*S(tot)=    22.92 kcal/mol

-------------------
GIBBS FREE ENTHALPY
-------------------

The Gibbs free enthalpy is G = H - T*S

Total enthalpy                    ...   -325.79995933 Eh
Total entropy correction          ...     -0.03783350 Eh    -23.74 kcal/mol
-----------------------------------------------------------------------
Final Gibbs free enthalpy         ...   -325.83779283 Eh

For completeness - the Gibbs free enthalpy minus the electronic energy
G-E(el)                           ...      0.12170497 Eh     76.37 kcal/mol

                             ****ORCA TERMINATED NORMALLY****
TOTAL RUN TIME: 0 days 0 hours 31 minutes 27 seconds 842 msec
