                         Program Version 3.0.3 - RELEASE   -
|  1> ! NORI PBE0 def2-TZVP UseSym TightOPT Freq TightSCF Grid3 FinalGrid5 XYZFile
|  2> % pal
|  3>     nprocs 8
|  4> end
|  5> %method
|  6>     SymThresh 5.0e-2
|  7> end
|  8> % geom
|  9>     MaxIter 10
| 10> end
| 11> % maxcore 2000
| 12> % output
| 13>     printlevel mini
| 14>     print[ P_Basis ] 0
| 15>     print[ P_SCFInfo ] 1
| 16>     print[ P_SCFIterInfo ] 1
| 17>     print[ P_OrbEn ] 0
| 18>     print[ P_Cartesian ] 0
| 19> end
| 20> % elprop
| 21>     Dipole false
| 22> end
| 23> *xyz 1 1
| 24>  C        0.7631094559     0.1643236495     0.2457089744
| 25>  C        2.2571992613    -0.0000502679     0.1011910650
| 26>  C        3.1660709917     1.0011576206     0.8331964399
| 27>  O        3.8607673585    -0.0706682271     1.5154022240
| 28>  C        2.9697950262    -1.0344970251     0.9942375811
| 29>  C        3.7751027960    -2.1388511118     0.3410748280
| 30>  N        2.8597276988    -3.2041020675    -0.1948846112
| 31>  H        0.4223846869     1.0628564066    -0.2725801807
| 32>  H        0.4767873390     0.2576959845     1.2959566391
| 33>  H        0.2098925193    -0.6782764908    -0.1810840276
| 34>  H        2.5379729706    -0.1013240946    -0.9531841278
| 35>  H        2.6428155363     1.6452002054     1.5445323401
| 36>  H        3.8468211242     1.5971661631     0.2239985509
| 37>  H        2.3202684609    -1.4617979437     1.7778550910
| 38>  H        4.3636788058    -1.7625140519    -0.4960887884
| 39>  H        4.4417842460    -2.6138670741     1.0627301897
| 40>  H        2.2177310503    -2.8162906784    -0.8905942913
| 41>  H        2.2932934990    -3.6100275124     0.5539847781
| 42>  H        3.3797371732    -3.9633334844    -0.6390926742
| 43> *
| 44>
| 45>                          ****END OF INPUT****
 Total Charge           Charge          ....    1
 Multiplicity           Mult            ....    1
 Number of Electrons    NEL             ....   56
FINAL SINGLE POINT ENERGY      -327.189851066502
FINAL SINGLE POINT ENERGY      -327.189852479213
FINAL SINGLE POINT ENERGY      -327.189854142510
FINAL SINGLE POINT ENERGY      -327.189854655449

CARTESIAN COORDINATES (ANGSTROEM)
---------------------------------
  C     -1.912865   -0.653987   -1.062665
  C     -1.015092    0.247804   -0.249640
  C     -1.331706    0.421191    1.245062
  O      0.003027   -0.000949    1.615048
  C      0.315934   -0.324661    0.276676
  C      1.614024    0.361529   -0.096602
  N      2.015794   -0.005832   -1.498666
  H     -2.900304   -0.204363   -1.184293
  H     -2.046465   -1.621994   -0.573861
  H     -1.517910   -0.834967   -2.067117
  H     -0.879974    1.214778   -0.746546
  H     -2.083388   -0.273818    1.627823
  H     -1.545884    1.430654    1.598269
  H      0.415485   -1.413892    0.127325
  H      1.519178    1.447012   -0.058456
  H      2.421988    0.048339    0.566465
  H      1.300081    0.281655   -2.170372
  H      2.135767   -1.017495   -1.590978
  H      2.894919    0.439030   -1.769543

FINAL SINGLE POINT ENERGY      -327.189855281415
                    ***********************HURRAY********************
 Multiplicity           Mult            ....    1
 Number of Electrons    NEL             ....   56
 Basis Dimension        Dim             ....  289
FINAL SINGLE POINT ENERGY      -327.189855377266

VIBRATIONAL FREQUENCIES
-----------------------

   0:         0.00 cm**-1
   1:         0.00 cm**-1
   2:         0.00 cm**-1
   3:         0.00 cm**-1
   4:         0.00 cm**-1
   5:         0.00 cm**-1
   6:        58.14 cm**-1
   7:        73.92 cm**-1
   8:       181.28 cm**-1
   9:       208.25 cm**-1
  10:       225.83 cm**-1
  11:       286.60 cm**-1
  12:       329.59 cm**-1
  13:       420.66 cm**-1
  14:       477.60 cm**-1
  15:       723.65 cm**-1
  16:       785.19 cm**-1
  17:       880.21 cm**-1
  18:       908.31 cm**-1
  19:       924.81 cm**-1
  20:       931.26 cm**-1
  21:       989.16 cm**-1
  22:      1009.37 cm**-1
  23:      1035.01 cm**-1
  24:      1107.03 cm**-1
  25:      1144.09 cm**-1
  26:      1146.61 cm**-1
  27:      1147.89 cm**-1
  28:      1173.37 cm**-1
  29:      1208.05 cm**-1
  30:      1268.99 cm**-1
  31:      1285.77 cm**-1
  32:      1321.37 cm**-1
  33:      1341.21 cm**-1
  34:      1358.30 cm**-1
  35:      1397.00 cm**-1
  36:      1418.41 cm**-1
  37:      1424.89 cm**-1
  38:      1482.72 cm**-1
  39:      1489.72 cm**-1
  40:      1490.98 cm**-1
  41:      1505.57 cm**-1
  42:      1522.11 cm**-1
  43:      1658.43 cm**-1
  44:      1662.84 cm**-1
  45:      2962.17 cm**-1
  46:      3045.72 cm**-1
  47:      3050.58 cm**-1
  48:      3072.98 cm**-1
  49:      3101.25 cm**-1
  50:      3115.88 cm**-1
  51:      3136.15 cm**-1
  52:      3138.12 cm**-1
  53:      3165.35 cm**-1
  54:      3419.82 cm**-1
  55:      3496.46 cm**-1
  56:      3507.47 cm**-1

IR SPECTRUM
-----------

 Mode    freq (cm**-1)   T**2         TX         TY         TZ
-------------------------------------------------------------------
   6:        58.14    8.948103  ( -0.305508  -2.975653  -0.016096)
   7:        73.92   11.337196  (  3.224123   0.344485   0.907500)
   8:       181.28    1.579300  (  1.243032  -0.085296  -0.163999)
   9:       208.25    1.789933  (  1.155261  -0.624231  -0.256205)
  10:       225.83    0.249481  ( -0.425505   0.022980   0.260573)
  11:       286.60    1.497502  ( -1.122986  -0.351296   0.336147)
  12:       329.59    0.949590  (  0.566830   0.371052  -0.700439)
  13:       420.66   24.764330  (  3.438739   0.552483  -3.554457)
  14:       477.60    1.641051  (  0.586640   0.717869  -0.884064)
  15:       723.65    4.141335  (  0.488661  -0.151088  -1.969700)
  16:       785.19    3.324006  (  1.666801  -0.066798  -0.735742)
  17:       880.21   16.980643  (  0.661052  -3.308954   2.365264)
  18:       908.31    7.900360  ( -0.970427  -0.246770  -2.626354)
  19:       924.81    2.106589  (  0.002729  -1.369986   0.479291)
  20:       931.26   27.396410  (  4.958859   0.324287  -1.643462)
  21:       989.16   36.165989  (  5.434063   0.659575   2.490364)
  22:      1009.37   10.797492  ( -3.059642   1.192493   0.118500)
  23:      1035.01   28.124458  (  4.235366  -2.761377  -1.600290)
  24:      1107.03   48.410260  ( -5.503526   1.723129   3.892595)
  25:      1144.09    4.775483  (  1.579581   1.437805   0.461652)
  26:      1146.61   17.184545  ( -3.124798   0.913986   2.566088)
  27:      1147.89    3.868238  (  0.271800   0.413903  -1.903430)
  28:      1173.37    1.007979  (  0.763168   0.199423  -0.621115)
  29:      1208.05    0.557578  ( -0.462742   0.460496   0.362479)
  30:      1268.99    3.227320  ( -0.671698   1.596025   0.478378)
  31:      1285.77    0.998412  (  0.765842   0.524725  -0.369544)
  32:      1321.37    2.730515  (  0.023352   1.276710  -1.048800)
  33:      1341.21    5.064178  (  1.782402  -0.846459   1.082003)
  34:      1358.30   10.052818  (  2.963992  -0.484157  -1.016445)
  35:      1397.00    0.966249  ( -0.889720  -0.011468   0.417752)
  36:      1418.41    7.095240  (  1.661634   1.710174   1.187231)
  37:      1424.89    0.834524  ( -0.786312  -0.033889   0.463777)
  38:      1482.72    9.938779  ( -2.743122   1.267650  -0.898400)
  39:      1489.72   20.190369  (  2.968146   3.309749  -0.652719)
  40:      1490.98    5.971321  ( -0.335043  -0.434200   2.381289)
  41:      1505.57  156.960928  ( -4.754953   2.719428  11.267478)
  42:      1522.11    5.705523  (  0.784491   0.034814  -2.255856)
  43:      1658.43   52.179620  (  4.966507  -4.646827   2.433191)
  44:      1662.84   39.359992  (  4.230383   4.496663  -1.115291)
  45:      2962.17   45.787989  ( -2.680265   5.362913   3.137409)
  46:      3045.72   15.175522  ( -0.195711  -2.553288  -2.935633)
  47:      3050.58   15.018917  (  1.447669   2.927472  -2.086404)
  48:      3072.98   25.801101  ( -4.617030   0.400879   2.079285)
  49:      3101.25    0.655635  ( -0.433026  -0.624477   0.279558)
  50:      3115.88   18.527082  ( -2.238235  -0.494090   3.643249)
  51:      3136.15    3.788310  (  1.048478   1.445414   0.774457)
  52:      3138.12   14.383945  (  0.572564  -3.716790   0.491520)
  53:      3165.35    0.247094  (  0.071725  -0.386018  -0.304860)
  54:      3419.82   37.862823  ( -2.509563   1.589301   5.388788)
  55:      3496.46   88.118235  ( -4.797223   7.505745  -2.961196)
  56:      3507.47  118.489222  (  9.457887   5.377615  -0.344755)

--------------------------
THERMOCHEMISTRY AT 298.15K
--------------------------

Temperature         ... 298.15 K
Pressure            ... 1.00 atm
Total Mass          ... 102.16 AMU

Throughout the following assumptions are being made:
  (1) The electronic state is orbitally nondegenerate
  (2) There are no thermally accessible electronically excited states
  (3) Hindered rotations indicated by low frequency modes) are not
      treated as such but are treated as vibrations and this may
      case some error
  (4) All equations used are the standard statistical mechanics
      equations for an ideal gas
  (5) All vibrations are strinctly harmonic

------------
INNER ENERGY
------------

The inner energy is: U= E(el) + E(ZPE) + E(vib) + E(rot) + E(trans)
    E(el)   - is the total energy from the electronic structure calculation
              = E(kin-el) + E(nuc-el) + E(el-el) + E(nuc-nuc)
    E(ZPE)  - the the zero temperature vibrational energy from the frequency calculation
    E(vib)  - the the finite temperature correction to E(ZPE) due to population
              of excietd vibrational states
    E(rot)  - is the rotational thermal energy
    E(trans)- is the translational thermal energy

Summary of contributions to the inner energy U:
Electronic energy                ...   -327.18985538 Eh
Zero point energy                ...      0.17591129 Eh     110.39 kcal/mol
Thermal vibrational correction   ...      0.00534202 Eh       3.35 kcal/mol
Thermal rotational correction    ...      0.00141627 Eh       0.89 kcal/mol
Thermal translational correction ...      0.00141627 Eh       0.89 kcal/mol
-----------------------------------------------------------------------
Total thermal energy                   -327.00576952 Eh

Summary of corrections to the electronic energy:
(perhaps to be used in another calculation)
Total thermal correction                  0.00817457 Eh       5.13 kcal/mol
Non-thermal (ZPE) correction              0.17591129 Eh     110.39 kcal/mol
-----------------------------------------------------------------------
Total correction                          0.18408586 Eh     115.52 kcal/mol

--------
ENTHALPY
--------

The enthalpy is H = U + kB*T
                kB is Boltzmann's constant
Total free energy                 ...   -327.00576952 Eh
Thermal Enthalpy correction       ...      0.00094421 Eh       0.59 kcal/mol
-----------------------------------------------------------------------
Total Enthalpy                    ...   -327.00482531 Eh

-------
ENTROPY
-------

The entropy contributions are T*S = T*(S(el)+S(vib)+S(rot)+S(trans)
     S(el)   - electronic entropy
     S(vib)  - vibrational entropy
     S(rot)  - rotational entropy
     S(trans)- translational entropy
The entropies will be listed as mutliplied by the temperature to get
units of energy

Electronic entropy                ...      0.00000000 Eh      0.00 kcal/mol
Vibrational entropy               ...      0.01001178 Eh      6.28 kcal/mol
Rotational entropy                ...      0.01215551 Eh      7.63 kcal/mol
Translational entropy             ...      0.01890147 Eh     11.86 kcal/mol
-----------------------------------------------------------------------
Final entropy term                ...      0.04106877 Eh     25.77 kcal/mol

CAUTION: The rotational entropy is not quite correctly treated here
         because it includes a symmetry number that is not yet correctly
         implemented in ORCA!
For a nonlinear molecule the correct rotational entropy is:
    S(rot) = R*(ln(qrot/sn)+1.5)
    R    = 8.31441 J/mol/K = 1.987191683e-3 kcal/mol/K
    qrot = 261123.5347066
    sn is the rotational symmetry number. We have assumed 3 here
       if it is different for your molecule then you should correct
       the printed rotational entropy by manually evaluating the equation
       as given above

For convenience we print out the resulting values for sn=1 - 12:
 sn= 1  qrot/sn=  261123.5347 T*S(rot)=     8.28 kcal/mol T*S(tot)=    26.42 kcal/mol
 sn= 2  qrot/sn=  130561.7674 T*S(rot)=     7.87 kcal/mol T*S(tot)=    26.01 kcal/mol
 sn= 3  qrot/sn=   87041.1782 T*S(rot)=     7.63 kcal/mol T*S(tot)=    25.77 kcal/mol
 sn= 4  qrot/sn=   65280.8837 T*S(rot)=     7.46 kcal/mol T*S(tot)=    25.60 kcal/mol
 sn= 5  qrot/sn=   52224.7069 T*S(rot)=     7.33 kcal/mol T*S(tot)=    25.47 kcal/mol
 sn= 6  qrot/sn=   43520.5891 T*S(rot)=     7.22 kcal/mol T*S(tot)=    25.36 kcal/mol
 sn= 7  qrot/sn=   37303.3621 T*S(rot)=     7.13 kcal/mol T*S(tot)=    25.27 kcal/mol
 sn= 8  qrot/sn=   32640.4418 T*S(rot)=     7.05 kcal/mol T*S(tot)=    25.19 kcal/mol
 sn= 9  qrot/sn=   29013.7261 T*S(rot)=     6.98 kcal/mol T*S(tot)=    25.12 kcal/mol
 sn=10  qrot/sn=   26112.3535 T*S(rot)=     6.91 kcal/mol T*S(tot)=    25.06 kcal/mol
 sn=11  qrot/sn=   23738.5032 T*S(rot)=     6.86 kcal/mol T*S(tot)=    25.00 kcal/mol
 sn=12  qrot/sn=   21760.2946 T*S(rot)=     6.81 kcal/mol T*S(tot)=    24.95 kcal/mol

-------------------
GIBBS FREE ENTHALPY
-------------------

The Gibbs free enthalpy is G = H - T*S

Total enthalpy                    ...   -327.00482531 Eh
Total entropy correction          ...     -0.04106877 Eh    -25.77 kcal/mol
-----------------------------------------------------------------------
Final Gibbs free enthalpy         ...   -327.04589407 Eh

For completeness - the Gibbs free enthalpy minus the electronic energy
G-E(el)                           ...      0.14396130 Eh     90.34 kcal/mol

                             ****ORCA TERMINATED NORMALLY****
TOTAL RUN TIME: 0 days 0 hours 39 minutes 51 seconds 507 msec
