                         Program Version 3.0.3 - RELEASE   -
|  1> ! NORI PBE0 def2-TZVP UseSym TightOPT Freq TightSCF Grid3 FinalGrid5 XYZFile
|  2> % pal
|  3>     nprocs 8
|  4> end
|  5> %method
|  6>     SymThresh 5.0e-2
|  7> end
|  8> % geom
|  9>     MaxIter 10
| 10> end
| 11> % maxcore 2000
| 12> % output
| 13>     printlevel mini
| 14>     print[ P_Basis ] 0
| 15>     print[ P_SCFInfo ] 1
| 16>     print[ P_SCFIterInfo ] 1
| 17>     print[ P_OrbEn ] 0
| 18>     print[ P_Cartesian ] 0
| 19> end
| 20> % elprop
| 21>     Dipole false
| 22> end
| 23> *xyz 1 1
| 24>  C        1.6815458766     1.2581007608     0.5147562628
| 25>  C        2.8643269334     0.3281345567     0.4674226868
| 26>  C        2.5647606523    -1.1141082632     0.7583591983
| 27>  O        4.0554524884     0.8227283198     1.0745100349
| 28>  C        4.0767296023     0.6444250037    -0.3198245382
| 29>  C        4.2289574144     1.9137675191    -1.1111637702
| 30>  N        3.3860452297     1.8487636798    -2.3599137337
| 31>  H        0.9073659644     0.9462437731    -0.1935195527
| 32>  H        1.9488606629     2.3018667846     0.3382669294
| 33>  H        1.2288026868     1.2178405010     1.5079609807
| 34>  H        1.8492437514    -1.5190165367     0.0388993189
| 35>  H        2.1249331764    -1.2053703920     1.7538310168
| 36>  H        3.4730146543    -1.7165726995     0.7326401366
| 37>  H        4.6930718527    -0.1861813371    -0.6660786374
| 38>  H        3.8904128530     2.7753135857    -0.5388807612
| 39>  H        5.2578125664     2.0833048785    -1.4309379703
| 40>  H        2.4001750607     1.7435062403    -2.1070293373
| 41>  H        3.6434225059     1.0471893568    -2.9401597612
| 42>  H        3.4834460679     2.6913142685    -2.9308485030
| 43> *
| 44>
| 45>                          ****END OF INPUT****
 Total Charge           Charge          ....    1
 Multiplicity           Mult            ....    1
 Number of Electrons    NEL             ....   56
FINAL SINGLE POINT ENERGY      -327.193855053448
FINAL SINGLE POINT ENERGY      -327.193856211624
FINAL SINGLE POINT ENERGY      -327.193857292322

CARTESIAN COORDINATES (ANGSTROEM)
---------------------------------
  C     -1.095606    1.374760   -0.256268
  C     -0.849171    0.016438    0.343462
  C     -2.054992   -0.872701    0.444486
  O      0.000609   -0.002094    1.488205
  C      0.487005   -0.618106    0.321828
  C      1.698051    0.042488   -0.275114
  N      1.623548   -0.005454   -1.780898
  H     -1.513581    1.289958   -1.264310
  H     -0.203811    2.004098   -0.275292
  H     -1.837385    1.906215    0.343882
  H     -2.485918   -1.063049   -0.541168
  H     -2.819674   -0.388129    1.055328
  H     -1.802472   -1.825378    0.910344
  H      0.536630   -1.707039    0.366197
  H      1.757554    1.090137    0.012903
  H      2.625055   -0.455921    0.011172
  H      0.792322    0.495530   -2.104393
  H      1.553756   -0.968188   -2.117347
  H      2.444278    0.418856   -2.218172

FINAL SINGLE POINT ENERGY      -327.193857868200
                    ***********************HURRAY********************
 Multiplicity           Mult            ....    1
 Number of Electrons    NEL             ....   56
 Basis Dimension        Dim             ....  289
FINAL SINGLE POINT ENERGY      -327.193858835450

VIBRATIONAL FREQUENCIES
-----------------------

   0:         0.00 cm**-1
   1:         0.00 cm**-1
   2:         0.00 cm**-1
   3:         0.00 cm**-1
   4:         0.00 cm**-1
   5:         0.00 cm**-1
   6:        39.95 cm**-1
   7:       141.00 cm**-1
   8:       174.34 cm**-1
   9:       203.79 cm**-1
  10:       218.32 cm**-1
  11:       262.77 cm**-1
  12:       361.40 cm**-1
  13:       375.87 cm**-1
  14:       404.05 cm**-1
  15:       468.08 cm**-1
  16:       532.82 cm**-1
  17:       719.09 cm**-1
  18:       774.70 cm**-1
  19:       868.44 cm**-1
  20:       907.73 cm**-1
  21:       948.24 cm**-1
  22:       972.38 cm**-1
  23:       982.22 cm**-1
  24:      1001.38 cm**-1
  25:      1046.97 cm**-1
  26:      1101.39 cm**-1
  27:      1154.13 cm**-1
  28:      1157.81 cm**-1
  29:      1174.75 cm**-1
  30:      1279.98 cm**-1
  31:      1328.29 cm**-1
  32:      1343.33 cm**-1
  33:      1398.69 cm**-1
  34:      1413.63 cm**-1
  35:      1420.24 cm**-1
  36:      1457.94 cm**-1
  37:      1463.00 cm**-1
  38:      1477.27 cm**-1
  39:      1488.27 cm**-1
  40:      1500.10 cm**-1
  41:      1504.03 cm**-1
  42:      1524.69 cm**-1
  43:      1657.31 cm**-1
  44:      1661.40 cm**-1
  45:      3049.14 cm**-1
  46:      3062.56 cm**-1
  47:      3108.31 cm**-1
  48:      3111.76 cm**-1
  49:      3123.04 cm**-1
  50:      3136.64 cm**-1
  51:      3137.56 cm**-1
  52:      3155.43 cm**-1
  53:      3180.74 cm**-1
  54:      3417.79 cm**-1
  55:      3498.08 cm**-1
  56:      3506.54 cm**-1

IR SPECTRUM
-----------

 Mode    freq (cm**-1)   T**2         TX         TY         TZ
-------------------------------------------------------------------
   6:        39.95   10.999909  ( -2.603349   1.652098   1.221906)
   7:       141.00    7.508723  ( -2.320340  -1.454614  -0.094033)
   8:       174.34    0.095756  ( -0.253596   0.175647   0.024355)
   9:       203.79    0.399816  (  0.410913  -0.441597  -0.189628)
  10:       218.32    1.311076  (  0.604081   0.274034  -0.933311)
  11:       262.77    1.116139  ( -0.767924   0.725072  -0.026498)
  12:       361.40    0.255954  ( -0.437201  -0.096425  -0.235608)
  13:       375.87   12.501777  ( -1.660451   0.918862   2.983349)
  14:       404.05    4.962667  (  1.154073  -1.001500   1.621043)
  15:       468.08    7.043960  ( -1.769732  -1.094180   1.647659)
  16:       532.82   14.351899  ( -2.751221  -1.457316   2.158451)
  17:       719.09    6.126027  (  1.873630  -1.060167  -1.221303)
  18:       774.70   14.239086  (  0.056194   0.362285   3.755620)
  19:       868.44   22.435900  ( -3.158978   2.574683  -2.414077)
  20:       907.73   17.409989  ( -3.368471  -2.171183   1.161617)
  21:       948.24    1.237870  ( -0.197450   1.092665   0.070471)
  22:       972.38    4.653453  ( -0.359908   1.129322   1.802374)
  23:       982.22    4.375781  ( -1.052565  -0.233499  -1.792586)
  24:      1001.38   14.415421  ( -0.530232  -1.855579  -3.269725)
  25:      1046.97   11.280814  ( -2.919678  -0.749871   1.481212)
  26:      1101.39    5.113504  ( -2.126155   0.050637  -0.768380)
  27:      1154.13    1.393153  ( -1.092004  -0.094899   0.437806)
  28:      1157.81   25.992271  (  2.586040  -1.896273  -3.963435)
  29:      1174.75    1.963141  (  1.103038   0.517086  -0.692149)
  30:      1279.98   10.398762  ( -2.387004  -2.159483   0.193927)
  31:      1328.29   10.906957  ( -2.145236   2.460845  -0.499160)
  32:      1343.33   23.794408  (  4.715888  -0.942358   0.816558)
  33:      1398.69    4.811044  ( -0.863440   0.698467   1.891470)
  34:      1413.63   23.998703  ( -0.095777  -4.680246   1.443893)
  35:      1420.24   11.072571  ( -3.212671  -0.691202  -0.523027)
  36:      1457.94    5.514414  ( -1.920566   0.601066   1.210190)
  37:      1463.00   11.001186  ( -3.006820   1.235091   0.659373)
  38:      1477.27    1.431437  (  0.448742  -0.973878   0.530687)
  39:      1488.27   23.934602  ( -1.769148   0.152285   4.558676)
  40:      1500.10   34.824606  ( -4.560809  -3.316219  -1.739632)
  41:      1504.03  135.369767  (  0.027086  -0.275025 -11.631569)
  42:      1524.69    6.805098  ( -0.003791  -0.313694   2.589726)
  43:      1657.31   44.405160  ( -2.196448   6.284110  -0.301233)
  44:      1661.40   29.734801  ( -5.174811  -1.345662   1.070199)
  45:      3049.14   10.155851  (  1.287481   1.430209  -2.540226)
  46:      3062.56    2.973726  ( -1.270228  -0.506695  -1.050480)
  47:      3108.31    6.278119  (  0.070140  -2.409938  -0.682203)
  48:      3111.76    2.812438  (  0.557016  -1.202591  -1.027593)
  49:      3123.04    4.140375  ( -1.425471  -0.923300  -1.120681)
  50:      3136.64   10.011752  ( -2.300600  -1.604272  -1.464686)
  51:      3137.56    8.834648  (  2.436578   0.707310  -1.548370)
  52:      3155.43    5.467975  (  1.287558  -1.693960   0.969881)
  53:      3180.74    0.026854  (  0.115557   0.016856   0.114962)
  54:      3417.79   30.842411  ( -0.177874  -0.333331   5.540728)
  55:      3498.08  111.887099  ( -8.170535   6.406393   2.021778)
  56:      3506.54  100.884861  (  6.630717   7.495650  -0.856551)

--------------------------
THERMOCHEMISTRY AT 298.15K
--------------------------

Temperature         ... 298.15 K
Pressure            ... 1.00 atm
Total Mass          ... 102.16 AMU

Throughout the following assumptions are being made:
  (1) The electronic state is orbitally nondegenerate
  (2) There are no thermally accessible electronically excited states
  (3) Hindered rotations indicated by low frequency modes) are not
      treated as such but are treated as vibrations and this may
      case some error
  (4) All equations used are the standard statistical mechanics
      equations for an ideal gas
  (5) All vibrations are strinctly harmonic

------------
INNER ENERGY
------------

The inner energy is: U= E(el) + E(ZPE) + E(vib) + E(rot) + E(trans)
    E(el)   - is the total energy from the electronic structure calculation
              = E(kin-el) + E(nuc-el) + E(el-el) + E(nuc-nuc)
    E(ZPE)  - the the zero temperature vibrational energy from the frequency calculation
    E(vib)  - the the finite temperature correction to E(ZPE) due to population
              of excietd vibrational states
    E(rot)  - is the rotational thermal energy
    E(trans)- is the translational thermal energy

Summary of contributions to the inner energy U:
Electronic energy                ...   -327.19385884 Eh
Zero point energy                ...      0.17404612 Eh     109.22 kcal/mol
Thermal vibrational correction   ...      0.00578610 Eh       3.63 kcal/mol
Thermal rotational correction    ...      0.00141627 Eh       0.89 kcal/mol
Thermal translational correction ...      0.00141627 Eh       0.89 kcal/mol
-----------------------------------------------------------------------
Total thermal energy                   -327.01119407 Eh

Summary of corrections to the electronic energy:
(perhaps to be used in another calculation)
Total thermal correction                  0.00861865 Eh       5.41 kcal/mol
Non-thermal (ZPE) correction              0.17404612 Eh     109.22 kcal/mol
-----------------------------------------------------------------------
Total correction                          0.18266477 Eh     114.62 kcal/mol

--------
ENTHALPY
--------

The enthalpy is H = U + kB*T
                kB is Boltzmann's constant
Total free energy                 ...   -327.01119407 Eh
Thermal Enthalpy correction       ...      0.00094421 Eh       0.59 kcal/mol
-----------------------------------------------------------------------
Total Enthalpy                    ...   -327.01024986 Eh

-------
ENTROPY
-------

The entropy contributions are T*S = T*(S(el)+S(vib)+S(rot)+S(trans)
     S(el)   - electronic entropy
     S(vib)  - vibrational entropy
     S(rot)  - rotational entropy
     S(trans)- translational entropy
The entropies will be listed as mutliplied by the temperature to get
units of energy

Electronic entropy                ...      0.00000000 Eh      0.00 kcal/mol
Vibrational entropy               ...      0.01061005 Eh      6.66 kcal/mol
Rotational entropy                ...      0.01210066 Eh      7.59 kcal/mol
Translational entropy             ...      0.01890147 Eh     11.86 kcal/mol
-----------------------------------------------------------------------
Final entropy term                ...      0.04161217 Eh     26.11 kcal/mol

CAUTION: The rotational entropy is not quite correctly treated here
         because it includes a symmetry number that is not yet correctly
         implemented in ORCA!
For a nonlinear molecule the correct rotational entropy is:
    S(rot) = R*(ln(qrot/sn)+1.5)
    R    = 8.31441 J/mol/K = 1.987191683e-3 kcal/mol/K
    qrot = 246384.9596003
    sn is the rotational symmetry number. We have assumed 3 here
       if it is different for your molecule then you should correct
       the printed rotational entropy by manually evaluating the equation
       as given above

For convenience we print out the resulting values for sn=1 - 12:
 sn= 1  qrot/sn=  246384.9596 T*S(rot)=     8.24 kcal/mol T*S(tot)=    26.76 kcal/mol
 sn= 2  qrot/sn=  123192.4798 T*S(rot)=     7.83 kcal/mol T*S(tot)=    26.35 kcal/mol
 sn= 3  qrot/sn=   82128.3199 T*S(rot)=     7.59 kcal/mol T*S(tot)=    26.11 kcal/mol
 sn= 4  qrot/sn=   61596.2399 T*S(rot)=     7.42 kcal/mol T*S(tot)=    25.94 kcal/mol
 sn= 5  qrot/sn=   49276.9919 T*S(rot)=     7.29 kcal/mol T*S(tot)=    25.81 kcal/mol
 sn= 6  qrot/sn=   41064.1599 T*S(rot)=     7.18 kcal/mol T*S(tot)=    25.70 kcal/mol
 sn= 7  qrot/sn=   35197.8514 T*S(rot)=     7.09 kcal/mol T*S(tot)=    25.61 kcal/mol
 sn= 8  qrot/sn=   30798.1200 T*S(rot)=     7.01 kcal/mol T*S(tot)=    25.53 kcal/mol
 sn= 9  qrot/sn=   27376.1066 T*S(rot)=     6.94 kcal/mol T*S(tot)=    25.46 kcal/mol
 sn=10  qrot/sn=   24638.4960 T*S(rot)=     6.88 kcal/mol T*S(tot)=    25.40 kcal/mol
 sn=11  qrot/sn=   22398.6327 T*S(rot)=     6.82 kcal/mol T*S(tot)=    25.34 kcal/mol
 sn=12  qrot/sn=   20532.0800 T*S(rot)=     6.77 kcal/mol T*S(tot)=    25.29 kcal/mol

-------------------
GIBBS FREE ENTHALPY
-------------------

The Gibbs free enthalpy is G = H - T*S

Total enthalpy                    ...   -327.01024986 Eh
Total entropy correction          ...     -0.04161217 Eh    -26.11 kcal/mol
-----------------------------------------------------------------------
Final Gibbs free enthalpy         ...   -327.05186203 Eh

For completeness - the Gibbs free enthalpy minus the electronic energy
G-E(el)                           ...      0.14199680 Eh     89.10 kcal/mol

                             ****ORCA TERMINATED NORMALLY****
TOTAL RUN TIME: 0 days 0 hours 41 minutes 50 seconds 73 msec
