                         Program Version 3.0.3 - RELEASE   -
|  1> ! NORI PBE0 def2-TZVP UseSym TightOPT Freq TightSCF Grid3 FinalGrid5 XYZFile
|  2> % pal
|  3>     nprocs 8
|  4> end
|  5> %method
|  6>     SymThresh 5.0e-2
|  7> end
|  8> % geom
|  9>     MaxIter 10
| 10> end
| 11> % maxcore 2000
| 12> % output
| 13>     printlevel mini
| 14>     print[ P_Basis ] 0
| 15>     print[ P_SCFInfo ] 1
| 16>     print[ P_SCFIterInfo ] 1
| 17>     print[ P_OrbEn ] 0
| 18>     print[ P_Cartesian ] 0
| 19> end
| 20> % elprop
| 21>     Dipole false
| 22> end
| 23> *xyz 1 1
| 24>  C        0.8474473904     0.4555608540    -0.1425146012
| 25>  C        2.3347347531     0.2481907515    -0.1693843155
| 26>  C        2.9755960630    -0.6498943044    -1.1873682118
| 27>  O        2.2268536467    -1.2008583390    -2.2041759927
| 28>  C        3.1670642110     0.8300940815    -1.2998259120
| 29>  C        4.5044319355     1.4262835566    -1.0464751913
| 30>  N        4.3400401720     2.8009180482    -0.4241906709
| 31>  H        0.5820343550     1.4327851435     0.2676924631
| 32>  H        0.3680630052    -0.3019949478     0.4808320534
| 33>  H        0.4242553080     0.3804540147    -1.1447676684
| 34>  H        2.8203115202     0.2231572319     0.8052205963
| 35>  H        3.8323923632    -1.2374408403    -0.8608452376
| 36>  H        1.8435630118    -2.0324632973    -1.9074407285
| 37>  H        2.6002017353     1.2691185278    -2.1167547085
| 38>  H        5.0931072534     1.5699971929    -1.9542286416
| 39>  H        5.0906852999     0.8446483393    -0.3340354386
| 40>  H        3.8551787392     3.4303283831    -1.0669363419
| 41>  H        5.2341529907     3.2282298798    -0.1754199053
| 42>  H        3.7662962464     2.7281057240     0.4193384529
| 43> *
| 44>
| 45>                          ****END OF INPUT****
 Total Charge           Charge          ....    1
 Multiplicity           Mult            ....    1
 Number of Electrons    NEL             ....   56
FINAL SINGLE POINT ENERGY      -327.200643246871

CARTESIAN COORDINATES (ANGSTROEM)
---------------------------------
  C     -1.873571   -1.158912    0.286740
  C     -1.015921    0.043516    0.013298
  C     -0.138579    0.630383    1.080565
  O      0.000445   -0.000363    2.297489
  C      0.495411   -0.097275   -0.063249
  C      1.291359    0.652811   -1.069429
  N      1.137240   -0.000124   -2.430671
  H     -2.051411   -1.743828   -0.618615
  H     -2.847087   -0.852481    0.674910
  H     -1.408371   -1.810016    1.027590
  H     -1.452049    0.786220   -0.653185
  H     -0.035425    1.714362    1.096807
  H     -0.695237    0.294037    2.894171
  H      0.887368   -1.070830    0.219753
  H      2.361285    0.662421   -0.854478
  H      0.946544    1.680500   -1.190320
  H      1.505717   -0.953075   -2.415629
  H      1.619620    0.514922   -3.169661
  H      0.144867   -0.062663   -2.669776

FINAL SINGLE POINT ENERGY      -327.200644185628
                    ***********************HURRAY********************
 Multiplicity           Mult            ....    1
 Number of Electrons    NEL             ....   56
 Basis Dimension        Dim             ....  289
FINAL SINGLE POINT ENERGY      -327.200644955799

VIBRATIONAL FREQUENCIES
-----------------------

   0:         0.00 cm**-1
   1:         0.00 cm**-1
   2:         0.00 cm**-1
   3:         0.00 cm**-1
   4:         0.00 cm**-1
   5:         0.00 cm**-1
   6:        84.45 cm**-1
   7:       139.99 cm**-1
   8:       184.13 cm**-1
   9:       192.63 cm**-1
  10:       226.41 cm**-1
  11:       279.65 cm**-1
  12:       303.38 cm**-1
  13:       321.50 cm**-1
  14:       389.44 cm**-1
  15:       483.24 cm**-1
  16:       592.80 cm**-1
  17:       787.78 cm**-1
  18:       814.92 cm**-1
  19:       864.66 cm**-1
  20:       884.30 cm**-1
  21:       925.50 cm**-1
  22:       977.12 cm**-1
  23:      1007.93 cm**-1
  24:      1050.71 cm**-1
  25:      1087.35 cm**-1
  26:      1097.64 cm**-1
  27:      1129.63 cm**-1
  28:      1156.90 cm**-1
  29:      1196.80 cm**-1
  30:      1209.48 cm**-1
  31:      1244.35 cm**-1
  32:      1283.48 cm**-1
  33:      1326.82 cm**-1
  34:      1350.25 cm**-1
  35:      1383.45 cm**-1
  36:      1410.05 cm**-1
  37:      1426.12 cm**-1
  38:      1482.79 cm**-1
  39:      1486.82 cm**-1
  40:      1490.35 cm**-1
  41:      1493.88 cm**-1
  42:      1513.01 cm**-1
  43:      1650.54 cm**-1
  44:      1663.31 cm**-1
  45:      3060.68 cm**-1
  46:      3094.93 cm**-1
  47:      3117.01 cm**-1
  48:      3127.86 cm**-1
  49:      3128.92 cm**-1
  50:      3148.52 cm**-1
  51:      3152.42 cm**-1
  52:      3165.44 cm**-1
  53:      3419.81 cm**-1
  54:      3503.64 cm**-1
  55:      3513.46 cm**-1
  56:      3841.70 cm**-1

IR SPECTRUM
-----------

 Mode    freq (cm**-1)   T**2         TX         TY         TZ
-------------------------------------------------------------------
   6:        84.45    8.514941  ( -2.810207   0.785127  -0.035385)
   7:       139.99   10.024652  (  1.645177   2.227361  -1.535223)
   8:       184.13    3.225660  ( -0.946003  -1.336582  -0.737759)
   9:       192.63    0.300135  ( -0.144431   0.234150  -0.473760)
  10:       226.41    0.372223  (  0.004251  -0.231084  -0.564628)
  11:       279.65   17.152827  ( -2.598217  -2.540409  -1.987063)
  12:       303.38  127.429232  (  5.422747   7.890129   5.980711)
  13:       321.50   19.785816  ( -1.776840  -1.928380   3.593050)
  14:       389.44    6.708141  ( -1.242157  -1.948522   1.169807)
  15:       483.24    2.878086  ( -0.973061  -0.508456  -1.293333)
  16:       592.80    1.395328  ( -0.602121  -0.930914  -0.407649)
  17:       787.78   27.010769  (  4.383218  -0.252343  -2.781096)
  18:       814.92   13.863973  (  2.713443   0.367477  -2.523125)
  19:       864.66   21.451456  ( -0.439832   2.271244  -4.012412)
  20:       884.30    9.996003  ( -2.486273   0.456742   1.898903)
  21:       925.50    6.856881  (  0.351545  -1.454827  -2.148668)
  22:       977.12    5.038334  ( -0.560481  -1.890057  -1.073257)
  23:      1007.93   12.235457  (  0.542772   1.065059  -3.287325)
  24:      1050.71   19.985979  ( -0.614019  -1.244266   4.249796)
  25:      1087.35   13.113746  ( -0.016968   1.181674  -3.423026)
  26:      1097.64    9.081978  (  0.016972   1.911712   2.329602)
  27:      1129.63    4.553428  (  0.032159  -1.024354   1.871655)
  28:      1156.90   26.532261  ( -5.067246  -0.669505   0.637995)
  29:      1196.80    1.971587  ( -0.412383   1.323166  -0.225294)
  30:      1209.48    5.037911  ( -0.747190  -2.116421   0.019454)
  31:      1244.35   87.963124  ( -1.283023   1.762384  -9.122005)
  32:      1283.48   57.349857  (  2.365710  -4.219940   5.826267)
  33:      1326.82    6.063872  (  0.048625  -0.534678   2.403253)
  34:      1350.25    8.143222  (  2.794528  -0.467717  -0.339231)
  35:      1383.45    9.106010  (  1.878745   0.029481  -2.361241)
  36:      1410.05   10.557630  (  1.786799  -0.678992  -2.627537)
  37:      1426.12    5.978295  (  1.147688   1.803005  -1.187552)
  38:      1482.79   38.972062  ( -2.655285   2.415552   5.107507)
  39:      1486.82   27.435826  ( -0.301851  -1.224431  -5.083845)
  40:      1490.35   14.035842  ( -1.441862  -3.297899   1.039587)
  41:      1493.88  140.286451  (  1.244258   3.675270  11.190651)
  42:      1513.01   12.941506  (  0.639066   1.187516  -3.335102)
  43:      1650.54   48.224035  ( -4.663764   4.768796  -1.931818)
  44:      1663.31   33.743476  ( -4.618759  -2.646008   2.325766)
  45:      3060.68   13.533079  (  2.500662   2.529962   0.937582)
  46:      3094.93    3.362957  ( -1.267109  -0.883849   0.988030)
  47:      3117.01    1.500443  (  0.511211   1.078303   0.276350)
  48:      3127.86   17.404028  ( -0.014147   4.170982  -0.082069)
  49:      3128.92   14.016386  ( -1.005767  -1.380463   3.331537)
  50:      3148.52    0.669960  ( -0.778895   0.189585  -0.165349)
  51:      3152.42    5.602034  (  1.240849  -1.166782   1.643456)
  52:      3165.44    1.084078  (  0.784127  -0.684983   0.004526)
  53:      3419.81   32.460487  ( -0.203535  -1.964597  -5.344101)
  54:      3503.64   93.571430  ( -9.193850   2.515674   1.648013)
  55:      3513.46   92.460681  (  1.919008   8.427775  -4.213158)
  56:      3841.70   86.450614  ( -4.501323   1.648614   7.966855)

--------------------------
THERMOCHEMISTRY AT 298.15K
--------------------------

Temperature         ... 298.15 K
Pressure            ... 1.00 atm
Total Mass          ... 102.16 AMU

Throughout the following assumptions are being made:
  (1) The electronic state is orbitally nondegenerate
  (2) There are no thermally accessible electronically excited states
  (3) Hindered rotations indicated by low frequency modes) are not
      treated as such but are treated as vibrations and this may
      case some error
  (4) All equations used are the standard statistical mechanics
      equations for an ideal gas
  (5) All vibrations are strinctly harmonic

------------
INNER ENERGY
------------

The inner energy is: U= E(el) + E(ZPE) + E(vib) + E(rot) + E(trans)
    E(el)   - is the total energy from the electronic structure calculation
              = E(kin-el) + E(nuc-el) + E(el-el) + E(nuc-nuc)
    E(ZPE)  - the the zero temperature vibrational energy from the frequency calculation
    E(vib)  - the the finite temperature correction to E(ZPE) due to population
              of excietd vibrational states
    E(rot)  - is the rotational thermal energy
    E(trans)- is the translational thermal energy

Summary of contributions to the inner energy U:
Electronic energy                ...   -327.20064496 Eh
Zero point energy                ...      0.17511806 Eh     109.89 kcal/mol
Thermal vibrational correction   ...      0.00573587 Eh       3.60 kcal/mol
Thermal rotational correction    ...      0.00141627 Eh       0.89 kcal/mol
Thermal translational correction ...      0.00141627 Eh       0.89 kcal/mol
-----------------------------------------------------------------------
Total thermal energy                   -327.01695848 Eh

Summary of corrections to the electronic energy:
(perhaps to be used in another calculation)
Total thermal correction                  0.00856842 Eh       5.38 kcal/mol
Non-thermal (ZPE) correction              0.17511806 Eh     109.89 kcal/mol
-----------------------------------------------------------------------
Total correction                          0.18368647 Eh     115.26 kcal/mol

--------
ENTHALPY
--------

The enthalpy is H = U + kB*T
                kB is Boltzmann's constant
Total free energy                 ...   -327.01695848 Eh
Thermal Enthalpy correction       ...      0.00094421 Eh       0.59 kcal/mol
-----------------------------------------------------------------------
Total Enthalpy                    ...   -327.01601427 Eh

-------
ENTROPY
-------

The entropy contributions are T*S = T*(S(el)+S(vib)+S(rot)+S(trans)
     S(el)   - electronic entropy
     S(vib)  - vibrational entropy
     S(rot)  - rotational entropy
     S(trans)- translational entropy
The entropies will be listed as mutliplied by the temperature to get
units of energy

Electronic entropy                ...      0.00000000 Eh      0.00 kcal/mol
Vibrational entropy               ...      0.01000416 Eh      6.28 kcal/mol
Rotational entropy                ...      0.01224063 Eh      7.68 kcal/mol
Translational entropy             ...      0.01890147 Eh     11.86 kcal/mol
-----------------------------------------------------------------------
Final entropy term                ...      0.04114626 Eh     25.82 kcal/mol

CAUTION: The rotational entropy is not quite correctly treated here
         because it includes a symmetry number that is not yet correctly
         implemented in ORCA!
For a nonlinear molecule the correct rotational entropy is:
    S(rot) = R*(ln(qrot/sn)+1.5)
    R    = 8.31441 J/mol/K = 1.987191683e-3 kcal/mol/K
    qrot = 285757.8204075
    sn is the rotational symmetry number. We have assumed 3 here
       if it is different for your molecule then you should correct
       the printed rotational entropy by manually evaluating the equation
       as given above

For convenience we print out the resulting values for sn=1 - 12:
 sn= 1  qrot/sn=  285757.8204 T*S(rot)=     8.33 kcal/mol T*S(tot)=    26.47 kcal/mol
 sn= 2  qrot/sn=  142878.9102 T*S(rot)=     7.92 kcal/mol T*S(tot)=    26.06 kcal/mol
 sn= 3  qrot/sn=   95252.6068 T*S(rot)=     7.68 kcal/mol T*S(tot)=    25.82 kcal/mol
 sn= 4  qrot/sn=   71439.4551 T*S(rot)=     7.51 kcal/mol T*S(tot)=    25.65 kcal/mol
 sn= 5  qrot/sn=   57151.5641 T*S(rot)=     7.38 kcal/mol T*S(tot)=    25.52 kcal/mol
 sn= 6  qrot/sn=   47626.3034 T*S(rot)=     7.27 kcal/mol T*S(tot)=    25.41 kcal/mol
 sn= 7  qrot/sn=   40822.5458 T*S(rot)=     7.18 kcal/mol T*S(tot)=    25.32 kcal/mol
 sn= 8  qrot/sn=   35719.7276 T*S(rot)=     7.10 kcal/mol T*S(tot)=    25.24 kcal/mol
 sn= 9  qrot/sn=   31750.8689 T*S(rot)=     7.03 kcal/mol T*S(tot)=    25.17 kcal/mol
 sn=10  qrot/sn=   28575.7820 T*S(rot)=     6.97 kcal/mol T*S(tot)=    25.11 kcal/mol
 sn=11  qrot/sn=   25977.9837 T*S(rot)=     6.91 kcal/mol T*S(tot)=    25.05 kcal/mol
 sn=12  qrot/sn=   23813.1517 T*S(rot)=     6.86 kcal/mol T*S(tot)=    25.00 kcal/mol

-------------------
GIBBS FREE ENTHALPY
-------------------

The Gibbs free enthalpy is G = H - T*S

Total enthalpy                    ...   -327.01601427 Eh
Total entropy correction          ...     -0.04114626 Eh    -25.82 kcal/mol
-----------------------------------------------------------------------
Final Gibbs free enthalpy         ...   -327.05716054 Eh

For completeness - the Gibbs free enthalpy minus the electronic energy
G-E(el)                           ...      0.14348442 Eh     90.04 kcal/mol

                             ****ORCA TERMINATED NORMALLY****
TOTAL RUN TIME: 0 days 0 hours 36 minutes 58 seconds 793 msec
