                         Program Version 3.0.3 - RELEASE   -
|  1> ! NORI PBE0 def2-TZVP UseSym TightOPT Freq TightSCF Grid3 FinalGrid5 XYZFile
|  2> % pal
|  3>     nprocs 8
|  4> end
|  5> %method
|  6>     SymThresh 5.0e-2
|  7> end
|  8> % geom
|  9>     MaxIter 10
| 10> end
| 11> % maxcore 2000
| 12> % output
| 13>     printlevel mini
| 14>     print[ P_Basis ] 0
| 15>     print[ P_SCFInfo ] 1
| 16>     print[ P_SCFIterInfo ] 1
| 17>     print[ P_OrbEn ] 0
| 18>     print[ P_Cartesian ] 0
| 19> end
| 20> % elprop
| 21>     Dipole false
| 22> end
| 23> *xyz 1 1
| 24>  C        0.4603943358    -0.0469395228    -0.6397591043
| 25>  C        1.8096630422     0.4259576127    -0.1785755652
| 26>  C        3.0960206053    -0.2568179259    -0.5945648452
| 27>  O        3.1027048665    -1.2492259719    -1.5436968520
| 28>  C        2.7670569517     1.1045967170    -1.1198589943
| 29>  C        2.4834980944     1.3572524812    -2.5664485505
| 30>  N        3.5664319809     2.2193251714    -0.5267513109
| 31>  H       -0.2440318686     0.7824457324    -0.7240716071
| 32>  H        0.0524381065    -0.7558966071     0.0830773034
| 33>  H        0.5155832881    -0.5510428100    -1.6039889373
| 34>  H        1.8276420470     0.7950511159     0.8454103375
| 35>  H        3.8763749102    -0.3289112390     0.1656727028
| 36>  H        2.8710963569    -2.0919287404    -1.1392166892
| 37>  H        3.4072622043     1.5187321480    -3.1295993541
| 38>  H        1.8250123860     2.2194188303    -2.7045084731
| 39>  H        2.0000759451     0.4862198109    -3.0019685604
| 40>  H        4.4467208471     2.3458416106    -1.0342737783
| 41>  H        3.7931424755     2.0438986124     0.4538306994
| 42>  H        3.0487434249     3.1016429744    -0.5728684210
| 43> *
| 44>
| 45>                          ****END OF INPUT****
 Total Charge           Charge          ....    1
 Multiplicity           Mult            ....    1
 Number of Electrons    NEL             ....   56
FINAL SINGLE POINT ENERGY      -327.201432550752
FINAL SINGLE POINT ENERGY      -327.201433762511
FINAL SINGLE POINT ENERGY      -327.201434821574

CARTESIAN COORDINATES (ANGSTROEM)
---------------------------------
  C     -2.057808    0.548621   -0.243798
  C     -0.591810    0.850900   -0.368311
  C      0.383185    0.633031    0.770555
  O     -0.000594    0.002090    1.928147
  C      0.431239   -0.250567   -0.435127
  C      0.097931   -1.707730   -0.375618
  N      1.583250    0.000216   -1.354067
  H     -2.482384    0.238910   -1.200353
  H     -2.591982    1.442967    0.081042
  H     -2.248381   -0.236098    0.488019
  H     -0.365056    1.730634   -0.968156
  H      1.175260    1.376171    0.880294
  H     -0.430459    0.631461    2.516759
  H      0.970842   -2.302462   -0.090827
  H     -0.287952   -2.074122   -1.330748
  H     -0.659177   -1.878496    0.386169
  H      2.407887   -0.530137   -1.057467
  H      1.839078    0.989012   -1.379302
  H      1.354399   -0.285877   -2.310184

FINAL SINGLE POINT ENERGY      -327.201435377751
                    ***********************HURRAY********************
 Multiplicity           Mult            ....    1
 Number of Electrons    NEL             ....   56
 Basis Dimension        Dim             ....  289
FINAL SINGLE POINT ENERGY      -327.201435822319

VIBRATIONAL FREQUENCIES
-----------------------

   0:         0.00 cm**-1
   1:         0.00 cm**-1
   2:         0.00 cm**-1
   3:         0.00 cm**-1
   4:         0.00 cm**-1
   5:         0.00 cm**-1
   6:       152.06 cm**-1
   7:       164.63 cm**-1
   8:       184.20 cm**-1
   9:       189.19 cm**-1
  10:       208.03 cm**-1
  11:       268.31 cm**-1
  12:       277.20 cm**-1
  13:       310.16 cm**-1
  14:       356.88 cm**-1
  15:       456.37 cm**-1
  16:       505.57 cm**-1
  17:       599.87 cm**-1
  18:       693.47 cm**-1
  19:       798.95 cm**-1
  20:       851.26 cm**-1
  21:       944.73 cm**-1
  22:       969.07 cm**-1
  23:       987.06 cm**-1
  24:      1008.67 cm**-1
  25:      1052.20 cm**-1
  26:      1077.97 cm**-1
  27:      1123.57 cm**-1
  28:      1161.66 cm**-1
  29:      1193.68 cm**-1
  30:      1209.40 cm**-1
  31:      1251.34 cm**-1
  32:      1272.88 cm**-1
  33:      1362.07 cm**-1
  34:      1388.86 cm**-1
  35:      1417.29 cm**-1
  36:      1428.85 cm**-1
  37:      1467.38 cm**-1
  38:      1474.68 cm**-1
  39:      1483.57 cm**-1
  40:      1492.92 cm**-1
  41:      1501.36 cm**-1
  42:      1524.35 cm**-1
  43:      1647.09 cm**-1
  44:      1656.08 cm**-1
  45:      3053.42 cm**-1
  46:      3070.69 cm**-1
  47:      3091.02 cm**-1
  48:      3120.80 cm**-1
  49:      3131.01 cm**-1
  50:      3141.84 cm**-1
  51:      3160.28 cm**-1
  52:      3183.16 cm**-1
  53:      3400.53 cm**-1
  54:      3475.77 cm**-1
  55:      3502.81 cm**-1
  56:      3839.23 cm**-1

IR SPECTRUM
-----------

 Mode    freq (cm**-1)   T**2         TX         TY         TZ
-------------------------------------------------------------------
   6:       152.06    2.247415  ( -1.185634  -0.233814  -0.887141)
   7:       164.63    0.034568  ( -0.035009   0.179739   0.032195)
   8:       184.20    2.630484  ( -1.300971  -0.011003  -0.968420)
   9:       189.19    0.538099  ( -0.381035   0.272658   0.564418)
  10:       208.03    0.793154  ( -0.032926   0.715527  -0.529236)
  11:       268.31   15.785325  (  3.210243  -0.201855   2.332149)
  12:       277.20   17.732314  ( -1.740370  -0.487366  -3.803406)
  13:       310.16  126.323303  (  9.404869   2.464552   5.638947)
  14:       356.88    6.520910  (  0.144027   2.480798   0.588053)
  15:       456.37    5.733209  ( -0.949022  -1.692895   1.402381)
  16:       505.57   12.906846  (  2.351205   1.250267  -2.411538)
  17:       599.87    1.481398  (  0.943992   0.485084   0.595794)
  18:       693.47    2.132227  ( -0.771544   0.488053   1.139628)
  19:       798.95    5.461621  (  0.282977  -2.060724  -1.065347)
  20:       851.26    2.926941  (  0.783925  -1.511026  -0.170889)
  21:       944.73    1.314867  ( -0.822313  -0.628822  -0.493205)
  22:       969.07   10.004378  ( -1.998015  -0.804580  -2.316240)
  23:       987.06    8.134333  (  0.348380  -2.774358  -0.562051)
  24:      1008.67    9.762410  (  1.317000  -2.466868  -1.393731)
  25:      1052.20   27.690113  (  1.202926   2.791044  -4.295713)
  26:      1077.97   22.976866  ( -0.863603  -1.129170   4.577776)
  27:      1123.57    5.542429  (  0.882165  -2.039257   0.778231)
  28:      1161.66   18.512876  ( -2.305440   0.303717   3.620163)
  29:      1193.68   33.254699  ( -1.291438  -0.218809   5.615960)
  30:      1209.40   14.252521  ( -3.545890  -0.502069   1.194618)
  31:      1251.34   25.519914  ( -0.272039   1.987507  -4.636348)
  32:      1272.88   75.153465  (  0.076882   4.796835  -7.220660)
  33:      1362.07    0.972827  (  0.007450  -0.177251   0.970234)
  34:      1388.86    2.955196  ( -1.619966   0.119640   0.562664)
  35:      1417.29    2.722184  ( -0.678480  -1.173332   0.940819)
  36:      1428.85   19.802716  (  2.823675   3.331816  -0.853569)
  37:      1467.38    5.983308  (  2.135822   0.510103  -1.077667)
  38:      1474.68    8.964178  ( -1.219604   2.439587  -1.234974)
  39:      1483.57    9.467021  ( -1.995390  -1.626741   1.684978)
  40:      1492.92   31.695511  (  3.000865  -0.472676  -4.739926)
  41:      1501.36   63.209886  (  7.506917   0.930232  -2.447602)
  42:      1524.35   63.445137  ( -3.741998  -2.929102   6.392414)
  43:      1647.09   42.630851  ( -4.148349   0.123973  -5.040504)
  44:      1656.08   39.220442  (  0.131083   6.233973   0.583820)
  45:      3053.42    9.286312  (  1.666356  -1.854845  -1.751890)
  46:      3070.69    5.222720  ( -2.219996  -0.253854  -0.479472)
  47:      3091.02   16.757998  (  3.200837   2.133014  -1.401032)
  48:      3120.80    4.974039  ( -1.559657   0.363437  -1.552232)
  49:      3131.01    8.340486  ( -2.344930  -1.168612   1.214963)
  50:      3141.84    3.481436  ( -0.179802  -1.210412  -1.408549)
  51:      3160.28    5.361159  ( -0.238313  -1.779824   1.461709)
  52:      3183.16    0.662768  ( -0.414245  -0.532979   0.455085)
  53:      3400.53   27.716677  (  4.195009  -0.657770  -3.112220)
  54:      3475.77   74.094602  ( -5.233537   1.392831  -6.690643)
  55:      3502.81   68.155308  (  0.981102   8.126058   1.077001)
  56:      3839.23  102.106257  ( -3.610458   4.100090   8.500595)

--------------------------
THERMOCHEMISTRY AT 298.15K
--------------------------

Temperature         ... 298.15 K
Pressure            ... 1.00 atm
Total Mass          ... 102.16 AMU

Throughout the following assumptions are being made:
  (1) The electronic state is orbitally nondegenerate
  (2) There are no thermally accessible electronically excited states
  (3) Hindered rotations indicated by low frequency modes) are not
      treated as such but are treated as vibrations and this may
      case some error
  (4) All equations used are the standard statistical mechanics
      equations for an ideal gas
  (5) All vibrations are strinctly harmonic

------------
INNER ENERGY
------------

The inner energy is: U= E(el) + E(ZPE) + E(vib) + E(rot) + E(trans)
    E(el)   - is the total energy from the electronic structure calculation
              = E(kin-el) + E(nuc-el) + E(el-el) + E(nuc-nuc)
    E(ZPE)  - the the zero temperature vibrational energy from the frequency calculation
    E(vib)  - the the finite temperature correction to E(ZPE) due to population
              of excietd vibrational states
    E(rot)  - is the rotational thermal energy
    E(trans)- is the translational thermal energy

Summary of contributions to the inner energy U:
Electronic energy                ...   -327.20143582 Eh
Zero point energy                ...      0.17378650 Eh     109.05 kcal/mol
Thermal vibrational correction   ...      0.00592615 Eh       3.72 kcal/mol
Thermal rotational correction    ...      0.00141627 Eh       0.89 kcal/mol
Thermal translational correction ...      0.00141627 Eh       0.89 kcal/mol
-----------------------------------------------------------------------
Total thermal energy                   -327.01889063 Eh

Summary of corrections to the electronic energy:
(perhaps to be used in another calculation)
Total thermal correction                  0.00875869 Eh       5.50 kcal/mol
Non-thermal (ZPE) correction              0.17378650 Eh     109.05 kcal/mol
-----------------------------------------------------------------------
Total correction                          0.18254519 Eh     114.55 kcal/mol

--------
ENTHALPY
--------

The enthalpy is H = U + kB*T
                kB is Boltzmann's constant
Total free energy                 ...   -327.01889063 Eh
Thermal Enthalpy correction       ...      0.00094421 Eh       0.59 kcal/mol
-----------------------------------------------------------------------
Total Enthalpy                    ...   -327.01794642 Eh

-------
ENTROPY
-------

The entropy contributions are T*S = T*(S(el)+S(vib)+S(rot)+S(trans)
     S(el)   - electronic entropy
     S(vib)  - vibrational entropy
     S(rot)  - rotational entropy
     S(trans)- translational entropy
The entropies will be listed as mutliplied by the temperature to get
units of energy

Electronic entropy                ...      0.00000000 Eh      0.00 kcal/mol
Vibrational entropy               ...      0.00993395 Eh      6.23 kcal/mol
Rotational entropy                ...      0.01204585 Eh      7.56 kcal/mol
Translational entropy             ...      0.01890147 Eh     11.86 kcal/mol
-----------------------------------------------------------------------
Final entropy term                ...      0.04088127 Eh     25.65 kcal/mol

CAUTION: The rotational entropy is not quite correctly treated here
         because it includes a symmetry number that is not yet correctly
         implemented in ORCA!
For a nonlinear molecule the correct rotational entropy is:
    S(rot) = R*(ln(qrot/sn)+1.5)
    R    = 8.31441 J/mol/K = 1.987191683e-3 kcal/mol/K
    qrot = 232489.8897216
    sn is the rotational symmetry number. We have assumed 3 here
       if it is different for your molecule then you should correct
       the printed rotational entropy by manually evaluating the equation
       as given above

For convenience we print out the resulting values for sn=1 - 12:
 sn= 1  qrot/sn=  232489.8897 T*S(rot)=     8.21 kcal/mol T*S(tot)=    26.30 kcal/mol
 sn= 2  qrot/sn=  116244.9449 T*S(rot)=     7.80 kcal/mol T*S(tot)=    25.89 kcal/mol
 sn= 3  qrot/sn=   77496.6299 T*S(rot)=     7.56 kcal/mol T*S(tot)=    25.65 kcal/mol
 sn= 4  qrot/sn=   58122.4724 T*S(rot)=     7.39 kcal/mol T*S(tot)=    25.48 kcal/mol
 sn= 5  qrot/sn=   46497.9779 T*S(rot)=     7.26 kcal/mol T*S(tot)=    25.35 kcal/mol
 sn= 6  qrot/sn=   38748.3150 T*S(rot)=     7.15 kcal/mol T*S(tot)=    25.24 kcal/mol
 sn= 7  qrot/sn=   33212.8414 T*S(rot)=     7.06 kcal/mol T*S(tot)=    25.15 kcal/mol
 sn= 8  qrot/sn=   29061.2362 T*S(rot)=     6.98 kcal/mol T*S(tot)=    25.07 kcal/mol
 sn= 9  qrot/sn=   25832.2100 T*S(rot)=     6.91 kcal/mol T*S(tot)=    25.00 kcal/mol
 sn=10  qrot/sn=   23248.9890 T*S(rot)=     6.85 kcal/mol T*S(tot)=    24.94 kcal/mol
 sn=11  qrot/sn=   21135.4445 T*S(rot)=     6.79 kcal/mol T*S(tot)=    24.88 kcal/mol
 sn=12  qrot/sn=   19374.1575 T*S(rot)=     6.74 kcal/mol T*S(tot)=    24.83 kcal/mol

-------------------
GIBBS FREE ENTHALPY
-------------------

The Gibbs free enthalpy is G = H - T*S

Total enthalpy                    ...   -327.01794642 Eh
Total entropy correction          ...     -0.04088127 Eh    -25.65 kcal/mol
-----------------------------------------------------------------------
Final Gibbs free enthalpy         ...   -327.05882769 Eh

For completeness - the Gibbs free enthalpy minus the electronic energy
G-E(el)                           ...      0.14260814 Eh     89.49 kcal/mol

                             ****ORCA TERMINATED NORMALLY****
TOTAL RUN TIME: 0 days 0 hours 40 minutes 19 seconds 816 msec
