                         Program Version 3.0.3 - RELEASE   -
|  1> ! NORI PBE0 def2-TZVP UseSym TightOPT Freq TightSCF Grid3 FinalGrid5 XYZFile
|  2> % pal
|  3>     nprocs 8
|  4> end
|  5> %method
|  6>     SymThresh 5.0e-2
|  7> end
|  8> % geom
|  9>     MaxIter 10
| 10> end
| 11> % maxcore 2000
| 12> % output
| 13>     printlevel mini
| 14>     print[ P_Basis ] 0
| 15>     print[ P_SCFInfo ] 1
| 16>     print[ P_SCFIterInfo ] 1
| 17>     print[ P_OrbEn ] 0
| 18>     print[ P_Cartesian ] 0
| 19> end
| 20> % elprop
| 21>     Dipole false
| 22> end
| 23> *xyz 1 1
| 24>  C        0.8940545022     0.1617518790     0.3982287449
| 25>  C        2.3055248128    -0.0891179198    -0.1055596636
| 26>  C        3.3251014003     0.9836299871     0.3567620562
| 27>  O        4.4142538370     0.2657488571     0.9319051946
| 28>  C        3.8185271658    -0.8338173020     1.5752454285
| 29>  C        2.9131828565    -1.3718103667     0.4786318909
| 30>  N        3.8380084328    -1.9897908491    -0.5459809164
| 31>  H        0.1928944171    -0.5886192858     0.0282882395
| 32>  H        0.5429024012     1.1381970842     0.0608862961
| 33>  H        0.8565276141     0.1597449128     1.4908200109
| 34>  H        2.2812479097    -0.1469720134    -1.1998883630
| 35>  H        2.8711174292     1.6331310688     1.1135247454
| 36>  H        3.7166739084     1.6033889696    -0.4486441293
| 37>  H        4.5985352957    -1.5175759427     1.9169775992
| 38>  H        3.2136429296    -0.5341184531     2.4396657138
| 39>  H        2.1885496183    -2.1296786918     0.7729113652
| 40>  H        4.6109476429    -1.3266784117    -0.6860092005
| 41>  H        3.3745414402    -2.1476824963    -1.4417544286
| 42>  H        4.2302863859    -2.8766610261    -0.2250705838
| 43> *
| 44>
| 45>                          ****END OF INPUT****
 Total Charge           Charge          ....    1
 Multiplicity           Mult            ....    1
 Number of Electrons    NEL             ....   56
FINAL SINGLE POINT ENERGY      -327.222954154132
FINAL SINGLE POINT ENERGY      -327.222956138476
FINAL SINGLE POINT ENERGY      -327.222957562267

CARTESIAN COORDINATES (ANGSTROEM)
---------------------------------
  C     -1.617228    0.271981   -1.591538
  C     -0.447524    0.604583   -0.680287
  C     -0.860499    0.830847    0.796884
  O     -0.000699    0.000930    1.574476
  C      0.180890   -1.156286    0.796580
  C      0.544998   -0.559709   -0.553928
  N      1.940902   -0.001070   -0.388154
  H     -1.299159    0.146276   -2.628043
  H     -2.353731    1.076716   -1.565778
  H     -2.122633   -0.643454   -1.273000
  H      0.060359    1.492107   -1.074388
  H     -1.902425    0.527670    0.947888
  H     -0.740368    1.856894    1.141333
  H      0.950432   -1.781666    1.254514
  H     -0.738901   -1.747109    0.705093
  H      0.559468   -1.244218   -1.401055
  H      1.954781    0.503588    0.507511
  H      2.189824    0.648838   -1.135073
  H      2.648547   -0.737085   -0.351909

FINAL SINGLE POINT ENERGY      -327.222957891573
                    ***********************HURRAY********************
 Multiplicity           Mult            ....    1
 Number of Electrons    NEL             ....   56
 Basis Dimension        Dim             ....  289
FINAL SINGLE POINT ENERGY      -327.222958095095

VIBRATIONAL FREQUENCIES
-----------------------

   0:         0.00 cm**-1
   1:         0.00 cm**-1
   2:         0.00 cm**-1
   3:         0.00 cm**-1
   4:         0.00 cm**-1
   5:         0.00 cm**-1
   6:        89.42 cm**-1
   7:       221.15 cm**-1
   8:       238.57 cm**-1
   9:       281.74 cm**-1
  10:       305.51 cm**-1
  11:       314.24 cm**-1
  12:       418.81 cm**-1
  13:       483.77 cm**-1
  14:       650.48 cm**-1
  15:       722.86 cm**-1
  16:       812.39 cm**-1
  17:       868.89 cm**-1
  18:       922.86 cm**-1
  19:       938.59 cm**-1
  20:       949.19 cm**-1
  21:       971.24 cm**-1
  22:      1012.27 cm**-1
  23:      1035.01 cm**-1
  24:      1060.16 cm**-1
  25:      1123.95 cm**-1
  26:      1138.03 cm**-1
  27:      1161.67 cm**-1
  28:      1177.87 cm**-1
  29:      1231.29 cm**-1
  30:      1269.93 cm**-1
  31:      1294.85 cm**-1
  32:      1318.00 cm**-1
  33:      1340.54 cm**-1
  34:      1354.48 cm**-1
  35:      1384.12 cm**-1
  36:      1404.45 cm**-1
  37:      1421.62 cm**-1
  38:      1476.05 cm**-1
  39:      1486.81 cm**-1
  40:      1492.94 cm**-1
  41:      1500.10 cm**-1
  42:      1516.83 cm**-1
  43:      1647.63 cm**-1
  44:      1665.81 cm**-1
  45:      3044.92 cm**-1
  46:      3047.01 cm**-1
  47:      3054.10 cm**-1
  48:      3058.56 cm**-1
  49:      3122.00 cm**-1
  50:      3134.44 cm**-1
  51:      3145.22 cm**-1
  52:      3148.32 cm**-1
  53:      3151.97 cm**-1
  54:      3372.93 cm**-1
  55:      3476.85 cm**-1
  56:      3519.13 cm**-1

IR SPECTRUM
-----------

 Mode    freq (cm**-1)   T**2         TX         TY         TZ
-------------------------------------------------------------------
   6:        89.42    4.850030  ( -0.471509   1.259635   1.743854)
   7:       221.15   29.681318  ( -4.406686  -0.364754   3.182671)
   8:       238.57    4.121460  ( -1.131707  -1.120531   1.259011)
   9:       281.74    2.258292  ( -1.193718  -0.855931   0.317349)
  10:       305.51    3.424206  ( -0.553536  -1.288289   1.207524)
  11:       314.24    7.748116  ( -2.235091   1.406660  -0.879654)
  12:       418.81    1.162713  ( -0.699879   0.700279  -0.427191)
  13:       483.77    6.431645  (  2.166476   0.534271  -1.205231)
  14:       650.48    4.742044  (  0.045759   0.005240  -2.177136)
  15:       722.86    1.694031  ( -0.511828   0.294128  -1.159979)
  16:       812.39   12.922861  ( -2.607912   0.305570   2.455256)
  17:       868.89    0.635809  ( -0.755626  -0.252204  -0.035083)
  18:       922.86    1.470420  (  0.988885  -0.257812   0.652732)
  19:       938.59   12.064700  (  0.054073  -0.500939   3.436690)
  20:       949.19    6.853765  (  1.000202   0.198896   2.411182)
  21:       971.24   32.078051  ( -3.627163   0.177656  -4.346283)
  22:      1012.27   16.077408  (  1.728404   1.153372  -3.429250)
  23:      1035.01   29.494004  (  3.306937  -3.913021  -1.801788)
  24:      1060.16    1.651626  ( -0.137010  -1.219451   0.381827)
  25:      1123.95   13.794028  ( -1.836238   2.802707   1.602214)
  26:      1138.03   49.985587  (  3.005977  -6.300343   1.120430)
  27:      1161.67    6.308015  (  0.007814  -2.440703   0.592386)
  28:      1177.87   11.123858  (  0.990695  -3.120403  -0.636764)
  29:      1231.29    7.814484  ( -2.019409   1.538040  -1.170857)
  30:      1269.93    2.115511  ( -0.438763   0.791712   1.138504)
  31:      1294.85    5.510785  (  1.850816   0.377492   1.393831)
  32:      1318.00    0.430139  ( -0.377930  -0.482634   0.233178)
  33:      1340.54    2.607592  ( -1.226711   0.467548   0.940303)
  34:      1354.48    0.505748  (  0.485228  -0.477984  -0.204531)
  35:      1384.12    5.300075  ( -0.662647   1.585712   1.531826)
  36:      1404.45    6.853508  (  2.378855   0.150298  -1.082576)
  37:      1421.62   11.828263  (  3.051812   1.177684   1.061965)
  38:      1476.05  173.891169  ( 12.222779   4.684699   1.596383)
  39:      1486.81   11.031927  ( -1.300208   2.507099   1.748097)
  40:      1492.94   10.970086  ( -1.778684  -2.337705   1.530199)
  41:      1500.10    9.982342  (  0.667350  -2.629676   1.619195)
  42:      1516.83   12.580425  (  2.546901   1.266196  -2.119073)
  43:      1647.63   41.309644  (  3.134517  -2.635126  -4.953843)
  44:      1665.81   30.499383  ( -1.239520   3.789992  -3.820855)
  45:      3044.92   12.396505  (  0.449298   3.479118   0.300625)
  46:      3047.01    5.117965  (  1.107323   1.678818  -1.036036)
  47:      3054.10   16.618263  ( -3.862610   0.866797   0.973224)
  48:      3058.56   12.809024  ( -3.124285  -1.583092  -0.735993)
  49:      3122.00    7.279024  (  2.281286  -1.220872   0.764349)
  50:      3134.44    8.980977  ( -0.984314  -1.631981   2.312735)
  51:      3145.22    2.575586  ( -0.698171   0.920010   1.114327)
  52:      3148.32    4.588692  (  0.495207  -1.577378  -1.362109)
  53:      3151.97    4.022057  ( -0.884845  -1.790960   0.177680)
  54:      3372.93   45.226996  (  2.070391   3.017433   5.642302)
  55:      3476.85  104.136777  (  6.718802  -2.830017  -7.140412)
  56:      3519.13   81.225477  (  1.893048  -7.437995   4.724201)

--------------------------
THERMOCHEMISTRY AT 298.15K
--------------------------

Temperature         ... 298.15 K
Pressure            ... 1.00 atm
Total Mass          ... 102.16 AMU

Throughout the following assumptions are being made:
  (1) The electronic state is orbitally nondegenerate
  (2) There are no thermally accessible electronically excited states
  (3) Hindered rotations indicated by low frequency modes) are not
      treated as such but are treated as vibrations and this may
      case some error
  (4) All equations used are the standard statistical mechanics
      equations for an ideal gas
  (5) All vibrations are strinctly harmonic

------------
INNER ENERGY
------------

The inner energy is: U= E(el) + E(ZPE) + E(vib) + E(rot) + E(trans)
    E(el)   - is the total energy from the electronic structure calculation
              = E(kin-el) + E(nuc-el) + E(el-el) + E(nuc-nuc)
    E(ZPE)  - the the zero temperature vibrational energy from the frequency calculation
    E(vib)  - the the finite temperature correction to E(ZPE) due to population
              of excietd vibrational states
    E(rot)  - is the rotational thermal energy
    E(trans)- is the translational thermal energy

Summary of contributions to the inner energy U:
Electronic energy                ...   -327.22295810 Eh
Zero point energy                ...      0.17765049 Eh     111.48 kcal/mol
Thermal vibrational correction   ...      0.00442794 Eh       2.78 kcal/mol
Thermal rotational correction    ...      0.00141627 Eh       0.89 kcal/mol
Thermal translational correction ...      0.00141627 Eh       0.89 kcal/mol
-----------------------------------------------------------------------
Total thermal energy                   -327.03804712 Eh

Summary of corrections to the electronic energy:
(perhaps to be used in another calculation)
Total thermal correction                  0.00726048 Eh       4.56 kcal/mol
Non-thermal (ZPE) correction              0.17765049 Eh     111.48 kcal/mol
-----------------------------------------------------------------------
Total correction                          0.18491097 Eh     116.03 kcal/mol

--------
ENTHALPY
--------

The enthalpy is H = U + kB*T
                kB is Boltzmann's constant
Total free energy                 ...   -327.03804712 Eh
Thermal Enthalpy correction       ...      0.00094421 Eh       0.59 kcal/mol
-----------------------------------------------------------------------
Total Enthalpy                    ...   -327.03710292 Eh

-------
ENTROPY
-------

The entropy contributions are T*S = T*(S(el)+S(vib)+S(rot)+S(trans)
     S(el)   - electronic entropy
     S(vib)  - vibrational entropy
     S(rot)  - rotational entropy
     S(trans)- translational entropy
The entropies will be listed as mutliplied by the temperature to get
units of energy

Electronic entropy                ...      0.00000000 Eh      0.00 kcal/mol
Vibrational entropy               ...      0.00736127 Eh      4.62 kcal/mol
Rotational entropy                ...      0.01193855 Eh      7.49 kcal/mol
Translational entropy             ...      0.01890147 Eh     11.86 kcal/mol
-----------------------------------------------------------------------
Final entropy term                ...      0.03820129 Eh     23.97 kcal/mol

CAUTION: The rotational entropy is not quite correctly treated here
         because it includes a symmetry number that is not yet correctly
         implemented in ORCA!
For a nonlinear molecule the correct rotational entropy is:
    S(rot) = R*(ln(qrot/sn)+1.5)
    R    = 8.31441 J/mol/K = 1.987191683e-3 kcal/mol/K
    qrot = 207514.6766623
    sn is the rotational symmetry number. We have assumed 3 here
       if it is different for your molecule then you should correct
       the printed rotational entropy by manually evaluating the equation
       as given above

For convenience we print out the resulting values for sn=1 - 12:
 sn= 1  qrot/sn=  207514.6767 T*S(rot)=     8.14 kcal/mol T*S(tot)=    24.62 kcal/mol
 sn= 2  qrot/sn=  103757.3383 T*S(rot)=     7.73 kcal/mol T*S(tot)=    24.21 kcal/mol
 sn= 3  qrot/sn=   69171.5589 T*S(rot)=     7.49 kcal/mol T*S(tot)=    23.97 kcal/mol
 sn= 4  qrot/sn=   51878.6692 T*S(rot)=     7.32 kcal/mol T*S(tot)=    23.80 kcal/mol
 sn= 5  qrot/sn=   41502.9353 T*S(rot)=     7.19 kcal/mol T*S(tot)=    23.67 kcal/mol
 sn= 6  qrot/sn=   34585.7794 T*S(rot)=     7.08 kcal/mol T*S(tot)=    23.56 kcal/mol
 sn= 7  qrot/sn=   29644.9538 T*S(rot)=     6.99 kcal/mol T*S(tot)=    23.47 kcal/mol
 sn= 8  qrot/sn=   25939.3346 T*S(rot)=     6.91 kcal/mol T*S(tot)=    23.39 kcal/mol
 sn= 9  qrot/sn=   23057.1863 T*S(rot)=     6.84 kcal/mol T*S(tot)=    23.32 kcal/mol
 sn=10  qrot/sn=   20751.4677 T*S(rot)=     6.78 kcal/mol T*S(tot)=    23.26 kcal/mol
 sn=11  qrot/sn=   18864.9706 T*S(rot)=     6.72 kcal/mol T*S(tot)=    23.20 kcal/mol
 sn=12  qrot/sn=   17292.8897 T*S(rot)=     6.67 kcal/mol T*S(tot)=    23.15 kcal/mol

-------------------
GIBBS FREE ENTHALPY
-------------------

The Gibbs free enthalpy is G = H - T*S

Total enthalpy                    ...   -327.03710292 Eh
Total entropy correction          ...     -0.03820129 Eh    -23.97 kcal/mol
-----------------------------------------------------------------------
Final Gibbs free enthalpy         ...   -327.07530420 Eh

For completeness - the Gibbs free enthalpy minus the electronic energy
G-E(el)                           ...      0.14765389 Eh     92.65 kcal/mol

                             ****ORCA TERMINATED NORMALLY****
TOTAL RUN TIME: 0 days 0 hours 41 minutes 55 seconds 596 msec
