                         Program Version 3.0.3 - RELEASE   -
|  1> ! NORI PBE0 def2-TZVP UseSym TightOPT Freq TightSCF Grid3 FinalGrid5 XYZFile
|  2> % pal
|  3>     nprocs 8
|  4> end
|  5> %method
|  6>     SymThresh 5.0e-2
|  7> end
|  8> % geom
|  9>     MaxIter 10
| 10> end
| 11> % maxcore 2000
| 12> % output
| 13>     printlevel mini
| 14>     print[ P_Basis ] 0
| 15>     print[ P_SCFInfo ] 1
| 16>     print[ P_SCFIterInfo ] 1
| 17>     print[ P_OrbEn ] 0
| 18>     print[ P_Cartesian ] 0
| 19> end
| 20> % elprop
| 21>     Dipole false
| 22> end
| 23> *xyz 1 1
| 24>  C        1.0636277315    -0.0593398818     0.2969587227
| 25>  C        2.5036834560     0.0177165881    -0.0698578930
| 26>  C        3.3184504632    -0.9573425411    -0.4922344810
| 27>  O        4.5988460809    -0.6013544835    -0.7139398562
| 28>  C        4.7427135911     0.7166728992    -0.1901061065
| 29>  C        3.3294239514     1.2623453209    -0.0540723572
| 30>  N        2.9503873585     2.1326167981    -1.2776795995
| 31>  H        0.6930388326    -1.0779233685     0.1801802522
| 32>  H        0.4282299921     0.5818460777    -0.3240093303
| 33>  H        0.9008237701     0.2346257019     1.3377452823
| 34>  H        3.0917054429    -1.9982709035    -0.6824866105
| 35>  H        5.4066338007     1.2876535781    -0.8426601929
| 36>  H        5.1982134696     0.6488916762     0.8013605534
| 37>  H        3.1943029787     1.9243288411     0.8025080710
| 38>  H        3.0881085255     1.5925716102    -2.1349335358
| 39>  H        3.5043545430     2.9896480446    -1.3370890128
| 40>  H        1.9638660123     2.3941640422    -1.2348239057
| 41> *
| 42>
| 43>                          ****END OF INPUT****
 Total Charge           Charge          ....    1
 Multiplicity           Mult            ....    1
 Number of Electrons    NEL             ....   54
FINAL SINGLE POINT ENERGY      -326.002456524669

CARTESIAN COORDINATES (ANGSTROEM)
---------------------------------
  C     -1.493415   -0.798406   -1.568462
  C     -0.713325   -0.304567   -0.401417
  C     -0.820354   -0.646361    0.888948
  O     -0.000162    0.000108    1.740243
  C      0.597343    1.056851    0.993133
  C      0.397839    0.691281   -0.469663
  N      1.658209    0.000055   -1.045752
  H     -2.230990   -1.535778   -1.251515
  H     -0.868624   -1.282049   -2.327971
  H     -2.030772    0.015966   -2.062632
  H     -1.476976   -1.374264    1.347511
  H      1.635409    1.174090    1.311428
  H      0.057651    1.982776    1.208432
  H      0.239235    1.552505   -1.120116
  H      1.901897   -0.804114   -0.463185
  H      2.463819    0.627832   -1.092147
  H      1.472085   -0.348394   -1.987919

FINAL SINGLE POINT ENERGY      -326.002457096397
                    ***********************HURRAY********************
 Multiplicity           Mult            ....    1
 Number of Electrons    NEL             ....   54
 Basis Dimension        Dim             ....  277
FINAL SINGLE POINT ENERGY      -326.002457364091

VIBRATIONAL FREQUENCIES
-----------------------

   0:         0.00 cm**-1
   1:         0.00 cm**-1
   2:         0.00 cm**-1
   3:         0.00 cm**-1
   4:         0.00 cm**-1
   5:         0.00 cm**-1
   6:       109.62 cm**-1
   7:       161.13 cm**-1
   8:       201.80 cm**-1
   9:       212.97 cm**-1
  10:       287.90 cm**-1
  11:       364.17 cm**-1
  12:       366.69 cm**-1
  13:       540.60 cm**-1
  14:       623.96 cm**-1
  15:       726.43 cm**-1
  16:       776.54 cm**-1
  17:       869.40 cm**-1
  18:       926.91 cm**-1
  19:       945.85 cm**-1
  20:       963.60 cm**-1
  21:       997.29 cm**-1
  22:      1034.68 cm**-1
  23:      1049.05 cm**-1
  24:      1092.25 cm**-1
  25:      1113.53 cm**-1
  26:      1197.42 cm**-1
  27:      1214.97 cm**-1
  28:      1251.83 cm**-1
  29:      1302.21 cm**-1
  30:      1340.83 cm**-1
  31:      1383.28 cm**-1
  32:      1400.55 cm**-1
  33:      1427.38 cm**-1
  34:      1465.00 cm**-1
  35:      1475.05 cm**-1
  36:      1482.51 cm**-1
  37:      1488.57 cm**-1
  38:      1644.07 cm**-1
  39:      1655.34 cm**-1
  40:      1714.39 cm**-1
  41:      3034.39 cm**-1
  42:      3078.87 cm**-1
  43:      3093.99 cm**-1
  44:      3122.22 cm**-1
  45:      3132.66 cm**-1
  46:      3150.07 cm**-1
  47:      3249.67 cm**-1
  48:      3411.85 cm**-1
  49:      3507.42 cm**-1
  50:      3513.15 cm**-1

IR SPECTRUM
-----------

 Mode    freq (cm**-1)   T**2         TX         TY         TZ
-------------------------------------------------------------------
   6:       109.62    4.240786  (  0.685307   0.478875  -1.881972)
   7:       161.13    0.253792  ( -0.101508   0.302564   0.389799)
   8:       201.80    3.620520  ( -1.532881  -1.096087  -0.263414)
   9:       212.97    7.176599  ( -1.839159  -1.922283  -0.314516)
  10:       287.90    4.615335  ( -1.357892  -0.173071  -1.655751)
  11:       364.17    1.313397  ( -0.161862   0.893721   0.698900)
  12:       366.69    4.075310  (  0.259131  -1.193561   1.607350)
  13:       540.60   14.943979  (  3.033349  -2.238796   0.854730)
  14:       623.96    2.164812  (  0.276643   0.381416   1.393844)
  15:       726.43   39.479930  (  4.976121  -0.973761  -3.710787)
  16:       776.54    5.808171  (  0.623083  -0.056097  -2.327400)
  17:       869.40    4.305318  ( -1.427380   1.405852  -0.539893)
  18:       926.91   16.385035  ( -3.688867  -0.791978  -1.466311)
  19:       945.85   12.348008  (  2.153792  -2.634404   0.876986)
  20:       963.60   41.254380  ( -3.808658  -1.015257   5.071268)
  21:       997.29    5.143675  (  1.030253   0.158161  -2.014259)
  22:      1034.68   23.741036  (  0.296274  -3.641009   3.224332)
  23:      1049.05    4.243568  (  0.644718   1.873530   0.563731)
  24:      1092.25   11.114907  (  0.414720   3.224642  -0.737968)
  25:      1113.53   20.018438  ( -0.238935  -1.673458  -4.142570)
  26:      1197.42  141.508434  (  4.804948   5.818272   9.196120)
  27:      1214.97   14.380521  (  2.728770   1.896928   1.826472)
  28:      1251.83    6.773108  ( -2.052225   0.358295  -1.559842)
  29:      1302.21    7.932830  (  0.140625  -0.766551   2.706558)
  30:      1340.83   33.578843  (  2.735763   0.914098  -5.025820)
  31:      1383.28   12.138322  (  1.927961   1.069740  -2.697581)
  32:      1400.55   12.440097  (  3.093913   0.990493  -1.373579)
  33:      1427.38    6.792494  ( -2.361301  -0.656596  -0.886360)
  34:      1465.00   68.081534  ( -6.987432   2.411192   3.666535)
  35:      1475.05  100.289105  ( -7.342269   5.834013   3.513472)
  36:      1482.51   11.957982  ( -0.557358  -3.402101   0.270264)
  37:      1488.57   16.815276  (  3.731226   1.087594   1.307809)
  38:      1644.07   36.818419  ( -2.528822   0.008145  -5.515742)
  39:      1655.34   38.512516  ( -2.631853  -5.266115   1.963134)
  40:      1714.39   63.734563  (  0.100112  -0.514339  -7.966178)
  41:      3034.39   15.744132  ( -0.575685   1.293204   3.706797)
  42:      3078.87    5.866990  (  1.831718   1.584861  -0.003831)
  43:      3093.99    6.481940  ( -2.012266   1.498080   0.434147)
  44:      3122.22    4.435041  (  1.521790   1.026152  -1.032573)
  45:      3132.66    2.094175  (  1.398362  -0.072643   0.365351)
  46:      3150.07    1.222189  (  0.546151   0.650584  -0.707565)
  47:      3249.67    3.866465  (  0.457392   0.656127  -1.796317)
  48:      3411.85   34.840209  (  5.055502  -2.052141  -2.251850)
  49:      3507.42   76.246937  ( -2.167495  -7.852962   3.143229)
  50:      3513.15   82.487839  ( -4.228809  -1.901113  -7.809659)

--------------------------
THERMOCHEMISTRY AT 298.15K
--------------------------

Temperature         ... 298.15 K
Pressure            ... 1.00 atm
Total Mass          ... 100.14 AMU

Throughout the following assumptions are being made:
  (1) The electronic state is orbitally nondegenerate
  (2) There are no thermally accessible electronically excited states
  (3) Hindered rotations indicated by low frequency modes) are not
      treated as such but are treated as vibrations and this may
      case some error
  (4) All equations used are the standard statistical mechanics
      equations for an ideal gas
  (5) All vibrations are strinctly harmonic

------------
INNER ENERGY
------------

The inner energy is: U= E(el) + E(ZPE) + E(vib) + E(rot) + E(trans)
    E(el)   - is the total energy from the electronic structure calculation
              = E(kin-el) + E(nuc-el) + E(el-el) + E(nuc-nuc)
    E(ZPE)  - the the zero temperature vibrational energy from the frequency calculation
    E(vib)  - the the finite temperature correction to E(ZPE) due to population
              of excietd vibrational states
    E(rot)  - is the rotational thermal energy
    E(trans)- is the translational thermal energy

Summary of contributions to the inner energy U:
Electronic energy                ...   -326.00245736 Eh
Zero point energy                ...      0.15286974 Eh      95.93 kcal/mol
Thermal vibrational correction   ...      0.00455902 Eh       2.86 kcal/mol
Thermal rotational correction    ...      0.00141627 Eh       0.89 kcal/mol
Thermal translational correction ...      0.00141627 Eh       0.89 kcal/mol
-----------------------------------------------------------------------
Total thermal energy                   -325.84219606 Eh

Summary of corrections to the electronic energy:
(perhaps to be used in another calculation)
Total thermal correction                  0.00739156 Eh       4.64 kcal/mol
Non-thermal (ZPE) correction              0.15286974 Eh      95.93 kcal/mol
-----------------------------------------------------------------------
Total correction                          0.16026130 Eh     100.57 kcal/mol

--------
ENTHALPY
--------

The enthalpy is H = U + kB*T
                kB is Boltzmann's constant
Total free energy                 ...   -325.84219606 Eh
Thermal Enthalpy correction       ...      0.00094421 Eh       0.59 kcal/mol
-----------------------------------------------------------------------
Total Enthalpy                    ...   -325.84125185 Eh

-------
ENTROPY
-------

The entropy contributions are T*S = T*(S(el)+S(vib)+S(rot)+S(trans)
     S(el)   - electronic entropy
     S(vib)  - vibrational entropy
     S(rot)  - rotational entropy
     S(trans)- translational entropy
The entropies will be listed as mutliplied by the temperature to get
units of energy

Electronic entropy                ...      0.00000000 Eh      0.00 kcal/mol
Vibrational entropy               ...      0.00773472 Eh      4.85 kcal/mol
Rotational entropy                ...      0.01193647 Eh      7.49 kcal/mol
Translational entropy             ...      0.01887324 Eh     11.84 kcal/mol
-----------------------------------------------------------------------
Final entropy term                ...      0.03854443 Eh     24.19 kcal/mol

CAUTION: The rotational entropy is not quite correctly treated here
         because it includes a symmetry number that is not yet correctly
         implemented in ORCA!
For a nonlinear molecule the correct rotational entropy is:
    S(rot) = R*(ln(qrot/sn)+1.5)
    R    = 8.31441 J/mol/K = 1.987191683e-3 kcal/mol/K
    qrot = 207057.8955181
    sn is the rotational symmetry number. We have assumed 3 here
       if it is different for your molecule then you should correct
       the printed rotational entropy by manually evaluating the equation
       as given above

For convenience we print out the resulting values for sn=1 - 12:
 sn= 1  qrot/sn=  207057.8955 T*S(rot)=     8.14 kcal/mol T*S(tot)=    24.84 kcal/mol
 sn= 2  qrot/sn=  103528.9478 T*S(rot)=     7.73 kcal/mol T*S(tot)=    24.43 kcal/mol
 sn= 3  qrot/sn=   69019.2985 T*S(rot)=     7.49 kcal/mol T*S(tot)=    24.19 kcal/mol
 sn= 4  qrot/sn=   51764.4739 T*S(rot)=     7.32 kcal/mol T*S(tot)=    24.02 kcal/mol
 sn= 5  qrot/sn=   41411.5791 T*S(rot)=     7.19 kcal/mol T*S(tot)=    23.88 kcal/mol
 sn= 6  qrot/sn=   34509.6493 T*S(rot)=     7.08 kcal/mol T*S(tot)=    23.78 kcal/mol
 sn= 7  qrot/sn=   29579.6994 T*S(rot)=     6.99 kcal/mol T*S(tot)=    23.68 kcal/mol
 sn= 8  qrot/sn=   25882.2369 T*S(rot)=     6.91 kcal/mol T*S(tot)=    23.61 kcal/mol
 sn= 9  qrot/sn=   23006.4328 T*S(rot)=     6.84 kcal/mol T*S(tot)=    23.54 kcal/mol
 sn=10  qrot/sn=   20705.7896 T*S(rot)=     6.78 kcal/mol T*S(tot)=    23.47 kcal/mol
 sn=11  qrot/sn=   18823.4450 T*S(rot)=     6.72 kcal/mol T*S(tot)=    23.42 kcal/mol
 sn=12  qrot/sn=   17254.8246 T*S(rot)=     6.67 kcal/mol T*S(tot)=    23.37 kcal/mol

-------------------
GIBBS FREE ENTHALPY
-------------------

The Gibbs free enthalpy is G = H - T*S

Total enthalpy                    ...   -325.84125185 Eh
Total entropy correction          ...     -0.03854443 Eh    -24.19 kcal/mol
-----------------------------------------------------------------------
Final Gibbs free enthalpy         ...   -325.87979628 Eh

For completeness - the Gibbs free enthalpy minus the electronic energy
G-E(el)                           ...      0.12266109 Eh     76.97 kcal/mol

                             ****ORCA TERMINATED NORMALLY****
TOTAL RUN TIME: 0 days 0 hours 35 minutes 3 seconds 885 msec
