                         Program Version 3.0.3 - RELEASE   -
|  1> ! NORI PBE0 def2-TZVP UseSym TightOPT Freq TightSCF Grid3 FinalGrid5 XYZFile
|  2> % pal
|  3>     nprocs 8
|  4> end
|  5> %method
|  6>     SymThresh 5.0e-2
|  7> end
|  8> % geom
|  9>     MaxIter 10
| 10> end
| 11> % maxcore 2000
| 12> % output
| 13>     printlevel mini
| 14>     print[ P_Basis ] 0
| 15>     print[ P_SCFInfo ] 1
| 16>     print[ P_SCFIterInfo ] 1
| 17>     print[ P_OrbEn ] 0
| 18>     print[ P_Cartesian ] 0
| 19> end
| 20> % elprop
| 21>     Dipole false
| 22> end
| 23> *xyz 1 1
| 24>  C        1.0643748097     0.0349627192     0.1873793385
| 25>  C        2.5494165695    -0.0929176088    -0.0295487803
| 26>  C        2.9289147943    -0.1273671281    -1.4954259508
| 27>  O        3.2807536580     0.9526011931     0.6544117814
| 28>  C        4.1220724543     0.0297686599     1.3345357344
| 29>  C        3.2608560466    -1.1367226933     0.8689124479
| 30>  N        3.9797792284    -2.2484431217     0.1690069723
| 31>  H        0.7075986466     0.9611856533    -0.2663944096
| 32>  H        0.8248410576     0.0668895781     1.2513564988
| 33>  H        0.5256581503    -0.7967297791    -0.2746578478
| 34>  H        2.5625560424     0.7845669054    -1.9692045764
| 35>  H        2.4749203779    -0.9711729584    -2.0239835893
| 36>  H        4.0140130661    -0.1311914475    -1.6474944689
| 37>  H        4.1572048410     0.2024223538     2.4119956778
| 38>  H        5.1476914979     0.0238964843     0.9395413265
| 39>  H        2.6296923626    -1.5945022822     1.6288981714
| 40>  H        4.4856229291    -1.8865369128    -0.6443520845
| 41>  H        3.3297139057    -2.9633331284    -0.1655503771
| 42>  H        4.6544695620    -2.7066264868     0.7863441357
| 43> *
| 44>
| 45>                          ****END OF INPUT****
 Total Charge           Charge          ....    1
 Multiplicity           Mult            ....    1
 Number of Electrons    NEL             ....   56
FINAL SINGLE POINT ENERGY      -327.194454565032
FINAL SINGLE POINT ENERGY      -327.194455844614

CARTESIAN COORDINATES (ANGSTROEM)
---------------------------------
  C     -1.932922   -0.616175    0.075428
  C     -0.615176    0.111615    0.131341
  C     -0.729929    1.566731   -0.274014
  O      0.000490    0.000410    1.436940
  C      1.222460   -0.497323    0.906963
  C      0.589580   -0.657585   -0.468868
  N      1.310081   -0.000904   -1.605548
  H     -2.641740   -0.139238    0.754487
  H     -1.819715   -1.656884    0.383104
  H     -2.356600   -0.586172   -0.931802
  H     -1.451250    2.053488    0.384102
  H     -1.094305    1.686380   -1.298876
  H      0.210600    2.114235   -0.145769
  H      1.553661   -1.415909    1.394576
  H      2.033807    0.243505    0.951424
  H      0.373668   -1.679309   -0.776718
  H      1.419923    1.000544   -1.423595
  H      0.795644   -0.099811   -2.483658
  H      2.239801   -0.404167   -1.743153

FINAL SINGLE POINT ENERGY      -327.194456142727
                    ***********************HURRAY********************
 Multiplicity           Mult            ....    1
 Number of Electrons    NEL             ....   56
 Basis Dimension        Dim             ....  289
FINAL SINGLE POINT ENERGY      -327.194456235508

VIBRATIONAL FREQUENCIES
-----------------------

   0:         0.00 cm**-1
   1:         0.00 cm**-1
   2:         0.00 cm**-1
   3:         0.00 cm**-1
   4:         0.00 cm**-1
   5:         0.00 cm**-1
   6:        56.83 cm**-1
   7:       180.42 cm**-1
   8:       205.24 cm**-1
   9:       230.76 cm**-1
  10:       274.44 cm**-1
  11:       294.06 cm**-1
  12:       347.53 cm**-1
  13:       388.15 cm**-1
  14:       426.88 cm**-1
  15:       500.55 cm**-1
  16:       641.64 cm**-1
  17:       734.75 cm**-1
  18:       876.40 cm**-1
  19:       901.56 cm**-1
  20:       931.26 cm**-1
  21:       937.17 cm**-1
  22:       969.55 cm**-1
  23:       988.82 cm**-1
  24:      1044.11 cm**-1
  25:      1065.88 cm**-1
  26:      1097.33 cm**-1
  27:      1149.82 cm**-1
  28:      1180.63 cm**-1
  29:      1204.08 cm**-1
  30:      1244.86 cm**-1
  31:      1274.16 cm**-1
  32:      1307.07 cm**-1
  33:      1353.45 cm**-1
  34:      1401.53 cm**-1
  35:      1414.74 cm**-1
  36:      1421.27 cm**-1
  37:      1455.77 cm**-1
  38:      1475.73 cm**-1
  39:      1485.71 cm**-1
  40:      1494.04 cm**-1
  41:      1508.04 cm**-1
  42:      1518.64 cm**-1
  43:      1646.38 cm**-1
  44:      1658.73 cm**-1
  45:      3009.74 cm**-1
  46:      3033.57 cm**-1
  47:      3059.00 cm**-1
  48:      3107.55 cm**-1
  49:      3116.74 cm**-1
  50:      3138.73 cm**-1
  51:      3143.31 cm**-1
  52:      3145.87 cm**-1
  53:      3151.67 cm**-1
  54:      3408.86 cm**-1
  55:      3485.78 cm**-1
  56:      3500.33 cm**-1

IR SPECTRUM
-----------

 Mode    freq (cm**-1)   T**2         TX         TY         TZ
-------------------------------------------------------------------
   6:        56.83    1.337563  (  0.218287  -0.282235   1.100117)
   7:       180.42    1.722977  ( -0.665862   0.786322   0.813205)
   8:       205.24    1.302510  ( -0.588852  -0.871716  -0.442577)
   9:       230.76    9.402323  (  2.485615  -1.727490  -0.489715)
  10:       274.44    5.810730  (  1.582607   1.538835   0.968541)
  11:       294.06    6.057982  (  2.046863  -0.873751  -1.051140)
  12:       347.53    0.444163  (  0.404560   0.121100   0.515587)
  13:       388.15    9.220537  ( -1.601641  -1.093687   2.336479)
  14:       426.88    2.241542  (  0.870077  -1.214060   0.102786)
  15:       500.55    9.420225  ( -0.894627   1.537563   2.501153)
  16:       641.64    1.357794  (  0.953249   0.262738  -0.616505)
  17:       734.75    5.437582  ( -1.804949   1.416622   0.415844)
  18:       876.40   12.991245  ( -1.338039  -0.332114  -3.330255)
  19:       901.56   17.773910  (  1.319481  -0.257536   3.995817)
  20:       931.26    7.575163  ( -1.916697  -1.182427  -1.582183)
  21:       937.17    0.283744  ( -0.218047   0.340792   0.346497)
  22:       969.55   11.154656  ( -2.331941   2.298623  -0.658055)
  23:       988.82    0.784245  (  0.441313   0.666602   0.380959)
  24:      1044.11   10.870364  (  1.476454   0.994113   2.775281)
  25:      1065.88   50.440994  (  5.276670  -4.443478   1.689156)
  26:      1097.33   74.590785  ( -8.357044   2.121743   0.498809)
  27:      1149.82    0.413447  (  0.604779  -0.126434  -0.178053)
  28:      1180.63   22.039614  (  0.688315  -0.063699   4.643466)
  29:      1204.08    5.096610  (  1.876636   0.824507   0.946063)
  30:      1244.86   11.001246  (  3.114781  -1.009192   0.530013)
  31:      1274.16    7.736978  (  0.643634  -2.474049   1.096263)
  32:      1307.07   18.573743  ( -4.226891   0.799968  -0.259207)
  33:      1353.45    2.080186  ( -0.401274   0.569905   1.262685)
  34:      1401.53   15.369232  (  0.551864   3.699570  -1.173823)
  35:      1414.74   22.210299  (  4.179451   1.289367   1.754999)
  36:      1421.27    9.851730  ( -1.315114   2.216221   1.791807)
  37:      1455.77    0.495368  ( -0.643527  -0.104763   0.265076)
  38:      1475.73    6.594794  ( -1.433487   0.647798   2.029844)
  39:      1485.71   14.156363  (  2.300450  -1.741814  -2.414618)
  40:      1494.04  105.903510  (  4.248509   3.304307  -8.771273)
  41:      1508.04   31.644735  (  3.665949   3.093612  -2.938558)
  42:      1518.64   31.404692  (  4.467443   2.836762  -1.843752)
  43:      1646.38   40.938246  (  4.870945   1.353022   3.921921)
  44:      1658.73   44.600633  ( -2.567535   5.820151   2.033283)
  45:      3009.74   31.586210  ( -5.456097  -1.292437   0.383171)
  46:      3033.57   18.073119  (  3.423209   1.241969  -2.193689)
  47:      3059.00    2.211668  (  0.218439   0.668036   1.310603)
  48:      3107.55   13.442625  (  3.269538   0.713371   1.497947)
  49:      3116.74    6.212092  (  1.183916  -2.013518   0.869585)
  50:      3138.73    2.975223  (  0.565143  -0.505316   1.549352)
  51:      3143.31    3.638535  (  0.318173  -1.061917   1.552299)
  52:      3145.87    1.025000  ( -0.124462   1.004553   0.019570)
  53:      3151.67    3.329540  ( -0.528080   1.726838   0.262113)
  54:      3408.86   29.887250  ( -2.421437  -2.968706   3.900087)
  55:      3485.78  112.153865  ( -3.288874   8.177108   5.871292)
  56:      3500.33   91.591025  ( -8.352077   1.428047  -4.449103)

--------------------------
THERMOCHEMISTRY AT 298.15K
--------------------------

Temperature         ... 298.15 K
Pressure            ... 1.00 atm
Total Mass          ... 102.16 AMU

Throughout the following assumptions are being made:
  (1) The electronic state is orbitally nondegenerate
  (2) There are no thermally accessible electronically excited states
  (3) Hindered rotations indicated by low frequency modes) are not
      treated as such but are treated as vibrations and this may
      case some error
  (4) All equations used are the standard statistical mechanics
      equations for an ideal gas
  (5) All vibrations are strinctly harmonic

------------
INNER ENERGY
------------

The inner energy is: U= E(el) + E(ZPE) + E(vib) + E(rot) + E(trans)
    E(el)   - is the total energy from the electronic structure calculation
              = E(kin-el) + E(nuc-el) + E(el-el) + E(nuc-nuc)
    E(ZPE)  - the the zero temperature vibrational energy from the frequency calculation
    E(vib)  - the the finite temperature correction to E(ZPE) due to population
              of excietd vibrational states
    E(rot)  - is the rotational thermal energy
    E(trans)- is the translational thermal energy

Summary of contributions to the inner energy U:
Electronic energy                ...   -327.19445624 Eh
Zero point energy                ...      0.17448289 Eh     109.49 kcal/mol
Thermal vibrational correction   ...      0.00532199 Eh       3.34 kcal/mol
Thermal rotational correction    ...      0.00141627 Eh       0.89 kcal/mol
Thermal translational correction ...      0.00141627 Eh       0.89 kcal/mol
-----------------------------------------------------------------------
Total thermal energy                   -327.01181882 Eh

Summary of corrections to the electronic energy:
(perhaps to be used in another calculation)
Total thermal correction                  0.00815453 Eh       5.12 kcal/mol
Non-thermal (ZPE) correction              0.17448289 Eh     109.49 kcal/mol
-----------------------------------------------------------------------
Total correction                          0.18263742 Eh     114.61 kcal/mol

--------
ENTHALPY
--------

The enthalpy is H = U + kB*T
                kB is Boltzmann's constant
Total free energy                 ...   -327.01181882 Eh
Thermal Enthalpy correction       ...      0.00094421 Eh       0.59 kcal/mol
-----------------------------------------------------------------------
Total Enthalpy                    ...   -327.01087461 Eh

-------
ENTROPY
-------

The entropy contributions are T*S = T*(S(el)+S(vib)+S(rot)+S(trans)
     S(el)   - electronic entropy
     S(vib)  - vibrational entropy
     S(rot)  - rotational entropy
     S(trans)- translational entropy
The entropies will be listed as mutliplied by the temperature to get
units of energy

Electronic entropy                ...      0.00000000 Eh      0.00 kcal/mol
Vibrational entropy               ...      0.00929657 Eh      5.83 kcal/mol
Rotational entropy                ...      0.01195053 Eh      7.50 kcal/mol
Translational entropy             ...      0.01890147 Eh     11.86 kcal/mol
-----------------------------------------------------------------------
Final entropy term                ...      0.04014857 Eh     25.19 kcal/mol

CAUTION: The rotational entropy is not quite correctly treated here
         because it includes a symmetry number that is not yet correctly
         implemented in ORCA!
For a nonlinear molecule the correct rotational entropy is:
    S(rot) = R*(ln(qrot/sn)+1.5)
    R    = 8.31441 J/mol/K = 1.987191683e-3 kcal/mol/K
    qrot = 210165.5177109
    sn is the rotational symmetry number. We have assumed 3 here
       if it is different for your molecule then you should correct
       the printed rotational entropy by manually evaluating the equation
       as given above

For convenience we print out the resulting values for sn=1 - 12:
 sn= 1  qrot/sn=  210165.5177 T*S(rot)=     8.15 kcal/mol T*S(tot)=    25.84 kcal/mol
 sn= 2  qrot/sn=  105082.7589 T*S(rot)=     7.74 kcal/mol T*S(tot)=    25.43 kcal/mol
 sn= 3  qrot/sn=   70055.1726 T*S(rot)=     7.50 kcal/mol T*S(tot)=    25.19 kcal/mol
 sn= 4  qrot/sn=   52541.3794 T*S(rot)=     7.33 kcal/mol T*S(tot)=    25.02 kcal/mol
 sn= 5  qrot/sn=   42033.1035 T*S(rot)=     7.20 kcal/mol T*S(tot)=    24.89 kcal/mol
 sn= 6  qrot/sn=   35027.5863 T*S(rot)=     7.09 kcal/mol T*S(tot)=    24.78 kcal/mol
 sn= 7  qrot/sn=   30023.6454 T*S(rot)=     7.00 kcal/mol T*S(tot)=    24.69 kcal/mol
 sn= 8  qrot/sn=   26270.6897 T*S(rot)=     6.92 kcal/mol T*S(tot)=    24.61 kcal/mol
 sn= 9  qrot/sn=   23351.7242 T*S(rot)=     6.85 kcal/mol T*S(tot)=    24.54 kcal/mol
 sn=10  qrot/sn=   21016.5518 T*S(rot)=     6.79 kcal/mol T*S(tot)=    24.48 kcal/mol
 sn=11  qrot/sn=   19105.9562 T*S(rot)=     6.73 kcal/mol T*S(tot)=    24.42 kcal/mol
 sn=12  qrot/sn=   17513.7931 T*S(rot)=     6.68 kcal/mol T*S(tot)=    24.37 kcal/mol

-------------------
GIBBS FREE ENTHALPY
-------------------

The Gibbs free enthalpy is G = H - T*S

Total enthalpy                    ...   -327.01087461 Eh
Total entropy correction          ...     -0.04014857 Eh    -25.19 kcal/mol
-----------------------------------------------------------------------
Final Gibbs free enthalpy         ...   -327.05102318 Eh

For completeness - the Gibbs free enthalpy minus the electronic energy
G-E(el)                           ...      0.14343306 Eh     90.01 kcal/mol

                             ****ORCA TERMINATED NORMALLY****
TOTAL RUN TIME: 0 days 0 hours 52 minutes 19 seconds 342 msec
