                         Program Version 3.0.3 - RELEASE   -
|  1> ! NORI PBE0 def2-TZVP UseSym TightOPT Freq TightSCF Grid3 FinalGrid5 XYZFile
|  2> % pal
|  3>     nprocs 8
|  4> end
|  5> %method
|  6>     SymThresh 5.0e-2
|  7> end
|  8> % geom
|  9>     MaxIter 10
| 10> end
| 11> % maxcore 2000
| 12> % output
| 13>     printlevel mini
| 14>     print[ P_Basis ] 0
| 15>     print[ P_SCFInfo ] 1
| 16>     print[ P_SCFIterInfo ] 1
| 17>     print[ P_OrbEn ] 0
| 18>     print[ P_Cartesian ] 0
| 19> end
| 20> % elprop
| 21>     Dipole false
| 22> end
| 23> *xyz 1 1
| 24>  C        0.8579722178    -0.0191701623    -0.1936048774
| 25>  C        2.3569695419    -0.0830778128    -0.0526028188
| 26>  C        2.8046340718    -0.1463853672     1.3902502496
| 27>  O        4.2301134038    -0.1495290719     1.4635356253
| 28>  C        3.1547048891    -0.8296290693    -1.0804115623
| 29>  C        3.1693295840     0.6637398362    -1.0727202886
| 30>  N        4.4238146310     1.3291126948    -0.6552790687
| 31>  H        0.5622103716     0.0250258917    -1.2427426830
| 32>  H        0.4464047515     0.8573824995     0.3123659338
| 33>  H        0.3969454669    -0.9094532608     0.2402783803
| 34>  H        2.4034574144    -1.0607191220     1.8380526079
| 35>  H        2.3983939982     0.7097959147     1.9417938814
| 36>  H        4.5227387719    -0.3362706896     2.3599852432
| 37>  H        4.0494201576    -1.3369368875    -0.7370278905
| 38>  H        2.6373987265    -1.3153990943    -1.8978788693
| 39>  H        2.6649380360     1.2110880662    -1.8589318121
| 40>  H        4.7250631803     0.8705522710     0.2386728134
| 41>  H        4.2792413920     2.3227084672    -0.4737262685
| 42>  H        5.1539293935     1.2370648965    -1.3633085958
| 43> *
| 44>
| 45>                          ****END OF INPUT****
 Total Charge           Charge          ....    1
 Multiplicity           Mult            ....    1
 Number of Electrons    NEL             ....   56
FINAL SINGLE POINT ENERGY      -327.214654017569
FINAL SINGLE POINT ENERGY      -327.214654239394
FINAL SINGLE POINT ENERGY      -327.214655991833

CARTESIAN COORDINATES (ANGSTROEM)
---------------------------------
  C     -1.458293    0.717290   -1.505113
  C     -0.570401    0.100794   -0.454929
  C     -0.907077    0.571873    0.942307
  O     -0.001105    0.000203    1.885821
  C     -0.097126   -1.310736   -0.638387
  C      0.853703   -0.178202   -0.845676
  N      1.929243   -0.000622    0.154930
  H     -1.194810    0.363244   -2.502847
  H     -1.382947    1.807220   -1.500963
  H     -2.501577    0.447766   -1.325958
  H     -1.932082    0.266666    1.173512
  H     -0.858649    1.666216    0.985293
  H     -0.290760    0.179551    2.784839
  H      0.029559   -1.909384    0.256878
  H     -0.410772   -1.861121   -1.516107
  H      1.189809    0.066521   -1.845186
  H      1.473401   -0.036430    1.098981
  H      2.389052    0.904686    0.054981
  H      2.640597   -0.729048    0.078146

FINAL SINGLE POINT ENERGY      -327.214656312510
                    ***********************HURRAY********************
 Multiplicity           Mult            ....    1
 Number of Electrons    NEL             ....   56
 Basis Dimension        Dim             ....  289
FINAL SINGLE POINT ENERGY      -327.214656593701

VIBRATIONAL FREQUENCIES
-----------------------

   0:         0.00 cm**-1
   1:         0.00 cm**-1
   2:         0.00 cm**-1
   3:         0.00 cm**-1
   4:         0.00 cm**-1
   5:         0.00 cm**-1
   6:       146.23 cm**-1
   7:       194.10 cm**-1
   8:       233.66 cm**-1
   9:       282.27 cm**-1
  10:       302.29 cm**-1
  11:       316.28 cm**-1
  12:       325.00 cm**-1
  13:       370.80 cm**-1
  14:       432.71 cm**-1
  15:       465.10 cm**-1
  16:       542.25 cm**-1
  17:       712.05 cm**-1
  18:       790.68 cm**-1
  19:       875.34 cm**-1
  20:       908.07 cm**-1
  21:       950.16 cm**-1
  22:       984.63 cm**-1
  23:      1023.61 cm**-1
  24:      1069.04 cm**-1
  25:      1077.49 cm**-1
  26:      1084.20 cm**-1
  27:      1119.00 cm**-1
  28:      1140.52 cm**-1
  29:      1185.42 cm**-1
  30:      1209.27 cm**-1
  31:      1225.02 cm**-1
  32:      1276.59 cm**-1
  33:      1297.02 cm**-1
  34:      1354.15 cm**-1
  35:      1418.44 cm**-1
  36:      1426.24 cm**-1
  37:      1447.50 cm**-1
  38:      1482.85 cm**-1
  39:      1487.41 cm**-1
  40:      1505.71 cm**-1
  41:      1517.91 cm**-1
  42:      1533.84 cm**-1
  43:      1648.98 cm**-1
  44:      1670.70 cm**-1
  45:      2999.80 cm**-1
  46:      3039.03 cm**-1
  47:      3058.26 cm**-1
  48:      3091.81 cm**-1
  49:      3132.71 cm**-1
  50:      3143.77 cm**-1
  51:      3155.90 cm**-1
  52:      3206.71 cm**-1
  53:      3247.94 cm**-1
  54:      3459.15 cm**-1
  55:      3517.41 cm**-1
  56:      3865.24 cm**-1

IR SPECTRUM
-----------

 Mode    freq (cm**-1)   T**2         TX         TY         TZ
-------------------------------------------------------------------
   6:       146.23    9.733768  ( -0.878899  -2.989224   0.160763)
   7:       194.10    1.048344  ( -0.203937   0.978147  -0.223565)
   8:       233.66    0.410921  ( -0.271094  -0.415406  -0.406038)
   9:       282.27   45.855977  ( -0.015695  -6.738211  -0.672493)
  10:       302.29   64.854150  ( -4.639339  -6.524356   0.873768)
  11:       316.28   41.544972  ( -4.275752  -0.396507   4.806839)
  12:       325.00    4.049971  (  0.126754  -1.969272   0.394805)
  13:       370.80   12.379376  ( -2.206447  -2.694686  -0.499637)
  14:       432.71    2.098310  (  0.505961  -0.311522   1.321086)
  15:       465.10   19.610875  (  4.176353   1.175508  -0.887204)
  16:       542.25   14.568676  ( -1.028135  -0.028881   3.675701)
  17:       712.05    6.846708  ( -0.429325   0.449942  -2.541641)
  18:       790.68   11.511389  ( -2.630713  -0.183036   2.134769)
  19:       875.34    6.667490  ( -0.123878  -2.577668  -0.088170)
  20:       908.07    9.457440  (  0.549679   1.332728  -2.716455)
  21:       950.16    5.176328  (  1.275852   0.323517  -1.855765)
  22:       984.63    9.502324  ( -0.540143   2.484034  -1.743601)
  23:      1023.61   17.250017  (  2.806724   0.778533  -2.960777)
  24:      1069.04   26.900949  (  4.324631  -2.860701  -0.122091)
  25:      1077.49   48.303608  (  3.244920  -1.131948   6.040927)
  26:      1084.20    5.217989  ( -0.042744   0.359154   2.255476)
  27:      1119.00   21.976158  ( -4.516202   1.256472  -0.036754)
  28:      1140.52    1.225115  (  1.081886   0.146668   0.182008)
  29:      1185.42   18.985417  (  0.045938   0.281028   4.347911)
  30:      1209.27   11.140013  (  0.056691  -2.190342   2.517777)
  31:      1225.02   35.693603  ( -4.897044   3.194861  -1.226959)
  32:      1276.59    4.914534  ( -0.074003  -1.364912   1.745301)
  33:      1297.02   12.460738  ( -1.739931   0.741501  -2.980529)
  34:      1354.15    3.938160  (  0.343866   1.029301  -1.661462)
  35:      1418.44    4.394435  (  0.107407  -2.077764   0.256505)
  36:      1426.24    7.025281  ( -0.920440  -1.226040  -2.162151)
  37:      1447.50    2.041554  ( -0.921771   0.309758  -1.046873)
  38:      1482.85    6.093139  (  1.783768   1.435235  -0.922719)
  39:      1487.41   21.292082  (  0.975654   3.796303   2.434803)
  40:      1505.71    9.805690  (  2.657124   1.647176   0.179427)
  41:      1517.91   31.707757  (  4.120752  -0.250078   3.829442)
  42:      1533.84  142.897985  ( 11.819124  -0.461712   1.730059)
  43:      1648.98   11.134660  (  0.321459   3.270006  -0.581708)
  44:      1670.70   24.710348  ( -2.401370   3.624336   2.409971)
  45:      2999.80  496.956271  ( 14.021208  -1.647706 -17.252451)
  46:      3039.03   20.503846  ( -0.928765   3.759535  -2.346729)
  47:      3058.26    8.145553  (  1.714565  -1.959336   1.169113)
  48:      3091.81    8.030173  ( -2.208410  -1.767405   0.171393)
  49:      3132.71    5.983702  ( -1.203661  -2.116453   0.235641)
  50:      3143.77    7.664239  (  1.512066  -1.408102  -1.842592)
  51:      3155.90    1.054355  ( -0.982773  -0.082759   0.285768)
  52:      3206.71    0.832099  (  0.551992  -0.178880  -0.703850)
  53:      3247.94    0.705970  (  0.172997   0.048271  -0.820800)
  54:      3459.15   76.460149  ( -8.380466   0.222893   2.485610)
  55:      3517.41   77.669447  ( -0.000739   8.806759  -0.332322)
  56:      3865.24  132.721384  ( -1.707147   0.915746  11.356427)

--------------------------
THERMOCHEMISTRY AT 298.15K
--------------------------

Temperature         ... 298.15 K
Pressure            ... 1.00 atm
Total Mass          ... 102.16 AMU

Throughout the following assumptions are being made:
  (1) The electronic state is orbitally nondegenerate
  (2) There are no thermally accessible electronically excited states
  (3) Hindered rotations indicated by low frequency modes) are not
      treated as such but are treated as vibrations and this may
      case some error
  (4) All equations used are the standard statistical mechanics
      equations for an ideal gas
  (5) All vibrations are strinctly harmonic

------------
INNER ENERGY
------------

The inner energy is: U= E(el) + E(ZPE) + E(vib) + E(rot) + E(trans)
    E(el)   - is the total energy from the electronic structure calculation
              = E(kin-el) + E(nuc-el) + E(el-el) + E(nuc-nuc)
    E(ZPE)  - the the zero temperature vibrational energy from the frequency calculation
    E(vib)  - the the finite temperature correction to E(ZPE) due to population
              of excietd vibrational states
    E(rot)  - is the rotational thermal energy
    E(trans)- is the translational thermal energy

Summary of contributions to the inner energy U:
Electronic energy                ...   -327.21465659 Eh
Zero point energy                ...      0.17530559 Eh     110.01 kcal/mol
Thermal vibrational correction   ...      0.00511867 Eh       3.21 kcal/mol
Thermal rotational correction    ...      0.00141627 Eh       0.89 kcal/mol
Thermal translational correction ...      0.00141627 Eh       0.89 kcal/mol
-----------------------------------------------------------------------
Total thermal energy                   -327.03139979 Eh

Summary of corrections to the electronic energy:
(perhaps to be used in another calculation)
Total thermal correction                  0.00795122 Eh       4.99 kcal/mol
Non-thermal (ZPE) correction              0.17530559 Eh     110.01 kcal/mol
-----------------------------------------------------------------------
Total correction                          0.18325681 Eh     115.00 kcal/mol

--------
ENTHALPY
--------

The enthalpy is H = U + kB*T
                kB is Boltzmann's constant
Total free energy                 ...   -327.03139979 Eh
Thermal Enthalpy correction       ...      0.00094421 Eh       0.59 kcal/mol
-----------------------------------------------------------------------
Total Enthalpy                    ...   -327.03045558 Eh

-------
ENTROPY
-------

The entropy contributions are T*S = T*(S(el)+S(vib)+S(rot)+S(trans)
     S(el)   - electronic entropy
     S(vib)  - vibrational entropy
     S(rot)  - rotational entropy
     S(trans)- translational entropy
The entropies will be listed as mutliplied by the temperature to get
units of energy

Electronic entropy                ...      0.00000000 Eh      0.00 kcal/mol
Vibrational entropy               ...      0.00820340 Eh      5.15 kcal/mol
Rotational entropy                ...      0.01201285 Eh      7.54 kcal/mol
Translational entropy             ...      0.01890147 Eh     11.86 kcal/mol
-----------------------------------------------------------------------
Final entropy term                ...      0.03911771 Eh     24.55 kcal/mol

CAUTION: The rotational entropy is not quite correctly treated here
         because it includes a symmetry number that is not yet correctly
         implemented in ORCA!
For a nonlinear molecule the correct rotational entropy is:
    S(rot) = R*(ln(qrot/sn)+1.5)
    R    = 8.31441 J/mol/K = 1.987191683e-3 kcal/mol/K
    qrot = 224503.3886866
    sn is the rotational symmetry number. We have assumed 3 here
       if it is different for your molecule then you should correct
       the printed rotational entropy by manually evaluating the equation
       as given above

For convenience we print out the resulting values for sn=1 - 12:
 sn= 1  qrot/sn=  224503.3887 T*S(rot)=     8.19 kcal/mol T*S(tot)=    25.20 kcal/mol
 sn= 2  qrot/sn=  112251.6943 T*S(rot)=     7.78 kcal/mol T*S(tot)=    24.79 kcal/mol
 sn= 3  qrot/sn=   74834.4629 T*S(rot)=     7.54 kcal/mol T*S(tot)=    24.55 kcal/mol
 sn= 4  qrot/sn=   56125.8472 T*S(rot)=     7.37 kcal/mol T*S(tot)=    24.38 kcal/mol
 sn= 5  qrot/sn=   44900.6777 T*S(rot)=     7.24 kcal/mol T*S(tot)=    24.24 kcal/mol
 sn= 6  qrot/sn=   37417.2314 T*S(rot)=     7.13 kcal/mol T*S(tot)=    24.14 kcal/mol
 sn= 7  qrot/sn=   32071.9127 T*S(rot)=     7.04 kcal/mol T*S(tot)=    24.04 kcal/mol
 sn= 8  qrot/sn=   28062.9236 T*S(rot)=     6.96 kcal/mol T*S(tot)=    23.97 kcal/mol
 sn= 9  qrot/sn=   24944.8210 T*S(rot)=     6.89 kcal/mol T*S(tot)=    23.90 kcal/mol
 sn=10  qrot/sn=   22450.3389 T*S(rot)=     6.82 kcal/mol T*S(tot)=    23.83 kcal/mol
 sn=11  qrot/sn=   20409.3990 T*S(rot)=     6.77 kcal/mol T*S(tot)=    23.78 kcal/mol
 sn=12  qrot/sn=   18708.6157 T*S(rot)=     6.72 kcal/mol T*S(tot)=    23.73 kcal/mol

-------------------
GIBBS FREE ENTHALPY
-------------------

The Gibbs free enthalpy is G = H - T*S

Total enthalpy                    ...   -327.03045558 Eh
Total entropy correction          ...     -0.03911771 Eh    -24.55 kcal/mol
-----------------------------------------------------------------------
Final Gibbs free enthalpy         ...   -327.06957329 Eh

For completeness - the Gibbs free enthalpy minus the electronic energy
G-E(el)                           ...      0.14508330 Eh     91.04 kcal/mol

                             ****ORCA TERMINATED NORMALLY****
TOTAL RUN TIME: 0 days 0 hours 51 minutes 6 seconds 867 msec
