                         Program Version 3.0.3 - RELEASE   -
|  1> ! NORI PBE0 def2-TZVP UseSym TightOPT Freq TightSCF Grid3 FinalGrid5 XYZFile
|  2> % pal
|  3>     nprocs 8
|  4> end
|  5> %method
|  6>     SymThresh 5.0e-2
|  7> end
|  8> % geom
|  9>     MaxIter 10
| 10> end
| 11> % maxcore 2000
| 12> % output
| 13>     printlevel mini
| 14>     print[ P_Basis ] 0
| 15>     print[ P_SCFInfo ] 1
| 16>     print[ P_SCFIterInfo ] 1
| 17>     print[ P_OrbEn ] 0
| 18>     print[ P_Cartesian ] 0
| 19> end
| 20> % elprop
| 21>     Dipole false
| 22> end
| 23> *xyz 1 1
| 24>  C        1.0408063100     0.0080691453     0.1411347917
| 25>  C        2.5467240354    -0.0455299399     0.0206638946
| 26>  C        3.0884800874    -1.3903266636    -0.4469226900
| 27>  O        2.6824424845    -1.6772827273    -1.7584811418
| 28>  C        3.2255394942    -0.7661858337    -2.6762576745
| 29>  C        2.7219257704     0.6360910389    -2.4034688945
| 30>  N        3.0341190524     0.9913377399    -0.9789397997
| 31>  H        0.6825061156     1.0170648204     0.3602034637
| 32>  H        0.7383997871    -0.6273044721     0.9746073526
| 33>  H        0.5427932647    -0.3673091942    -0.7527008935
| 34>  H        3.0158096236     0.2290587817     0.9693799971
| 35>  H        4.1869928291    -1.4076759096    -0.3710463227
| 36>  H        2.6975183837    -2.1767150047     0.1991091564
| 37>  H        4.3261856271    -0.7947112135    -2.6445266116
| 38>  H        2.9121129548    -1.0727231223    -3.6743271349
| 39>  H        1.6409743622     0.6979802099    -2.5219368104
| 40>  H        3.1966219343     1.3781812207    -3.0464547377
| 41>  H        2.6276694903     1.8994867159    -0.7486689925
| 42>  H        4.0468383931     1.0897144083    -0.8796369522
| 43> *
| 44>
| 45>                          ****END OF INPUT****
 Total Charge           Charge          ....    1
 Multiplicity           Mult            ....    1
 Number of Electrons    NEL             ....   56
FINAL SINGLE POINT ENERGY      -327.223350930364

CARTESIAN COORDINATES (ANGSTROEM)
---------------------------------
  C     -1.874827   -0.103204   -0.877273
  C     -0.632360    0.743431   -0.719609
  C     -0.316905    1.127182    0.720568
  O     -0.000407   -0.000103    1.492377
  C      1.180813   -0.612027    1.048211
  C      1.017776   -1.132601   -0.364669
  N      0.584138    0.000288   -1.248625
  H     -2.000925   -0.459646   -1.902920
  H     -2.744042    0.512681   -0.642851
  H     -1.883042   -0.952930   -0.194669
  H     -0.704918    1.645990   -1.332237
  H      0.506196    1.858049    0.750701
  H     -1.195009    1.595932    1.165516
  H      2.026280    0.091295    1.105484
  H      1.394750   -1.446566    1.716317
  H      0.244009   -1.897171   -0.417398
  H      1.948386   -1.535242   -0.766782
  H      0.386058   -0.346420   -2.188595
  H      1.358054    0.662552   -1.337390

FINAL SINGLE POINT ENERGY      -327.223351896838
                    ***********************HURRAY********************
 Multiplicity           Mult            ....    1
 Number of Electrons    NEL             ....   56
 Basis Dimension        Dim             ....  289
FINAL SINGLE POINT ENERGY      -327.223352277759

VIBRATIONAL FREQUENCIES
-----------------------

   0:         0.00 cm**-1
   1:         0.00 cm**-1
   2:         0.00 cm**-1
   3:         0.00 cm**-1
   4:         0.00 cm**-1
   5:         0.00 cm**-1
   6:       158.95 cm**-1
   7:       214.37 cm**-1
   8:       233.01 cm**-1
   9:       326.00 cm**-1
  10:       369.78 cm**-1
  11:       424.90 cm**-1
  12:       455.73 cm**-1
  13:       518.42 cm**-1
  14:       677.01 cm**-1
  15:       757.14 cm**-1
  16:       863.97 cm**-1
  17:       876.34 cm**-1
  18:       890.33 cm**-1
  19:       904.53 cm**-1
  20:       974.60 cm**-1
  21:       986.65 cm**-1
  22:      1046.69 cm**-1
  23:      1066.91 cm**-1
  24:      1091.83 cm**-1
  25:      1133.15 cm**-1
  26:      1171.42 cm**-1
  27:      1197.40 cm**-1
  28:      1247.97 cm**-1
  29:      1257.65 cm**-1
  30:      1301.96 cm**-1
  31:      1337.65 cm**-1
  32:      1372.60 cm**-1
  33:      1379.22 cm**-1
  34:      1390.20 cm**-1
  35:      1411.31 cm**-1
  36:      1421.07 cm**-1
  37:      1436.24 cm**-1
  38:      1441.14 cm**-1
  39:      1478.39 cm**-1
  40:      1482.82 cm**-1
  41:      1483.92 cm**-1
  42:      1492.68 cm**-1
  43:      1503.11 cm**-1
  44:      1640.23 cm**-1
  45:      2997.00 cm**-1
  46:      3000.21 cm**-1
  47:      3064.58 cm**-1
  48:      3095.00 cm**-1
  49:      3106.92 cm**-1
  50:      3138.17 cm**-1
  51:      3140.90 cm**-1
  52:      3143.11 cm**-1
  53:      3161.60 cm**-1
  54:      3171.78 cm**-1
  55:      3434.76 cm**-1
  56:      3492.58 cm**-1

IR SPECTRUM
-----------

 Mode    freq (cm**-1)   T**2         TX         TY         TZ
-------------------------------------------------------------------
   6:       158.95    0.775296  (  0.708452   0.491797   0.177559)
   7:       214.37    1.110684  (  1.047707  -0.098663   0.057101)
   8:       233.01    1.807733  (  1.141313   0.475045   0.528649)
   9:       326.00    1.624744  ( -0.982058  -0.495718  -0.643871)
  10:       369.78    3.795573  (  0.945555   0.482365   1.633653)
  11:       424.90   10.793766  (  0.961750   1.774707   2.592146)
  12:       455.73    6.675568  (  0.561766   0.379631  -2.493164)
  13:       518.42    0.982872  (  0.470161   0.275546  -0.828187)
  14:       677.01    2.831342  (  1.333920  -0.845634  -0.580433)
  15:       757.14    0.724272  ( -0.496894   0.339724   0.601627)
  16:       863.97    0.727009  ( -0.105441   0.667528  -0.519902)
  17:       876.34   10.276732  (  2.607955   1.288553   1.347194)
  18:       890.33   12.051676  (  0.965171   0.652168   3.270290)
  19:       904.53    8.618627  ( -2.092017  -0.670085   1.947582)
  20:       974.60    9.893473  ( -0.042291   0.662415   3.074555)
  21:       986.65   16.838781  (  0.585150  -2.240320   3.387823)
  22:      1046.69    7.255012  ( -1.547097   1.754724   1.335082)
  23:      1066.91    5.393280  (  2.145572   0.322541  -0.828111)
  24:      1091.83   14.835902  (  3.649585   0.585550   1.083312)
  25:      1133.15    0.703574  ( -0.213899  -0.412041  -0.698601)
  26:      1171.42   87.348677  ( -6.336944   6.807735  -0.920093)
  27:      1197.40    5.001726  (  1.651957  -1.476076  -0.306537)
  28:      1247.97   45.759632  (  3.579802  -5.738085   0.137948)
  29:      1257.65    3.800811  ( -1.106740   1.126812  -1.142906)
  30:      1301.96    8.192659  ( -2.809985   0.412242  -0.355946)
  31:      1337.65    3.653328  ( -0.226091   1.883543  -0.233404)
  32:      1372.60   11.338955  ( -3.179610   1.083278  -0.235676)
  33:      1379.22   15.271935  ( -3.277918   2.077768  -0.458330)
  34:      1390.20    4.159185  ( -0.656260   1.877404  -0.451510)
  35:      1411.31   25.572768  ( -4.915543   1.106859  -0.430197)
  36:      1421.07    2.105383  ( -0.693998   1.223380  -0.356497)
  37:      1436.24    4.303388  (  0.933456  -1.415745   1.194870)
  38:      1441.14    9.921288  (  0.868606   3.008815  -0.337410)
  39:      1478.39    5.275087  (  0.808228  -1.094736   1.850246)
  40:      1482.82   23.173950  (  1.645645  -4.042456  -2.030849)
  41:      1483.92   11.766996  (  1.555252   1.500740   2.663825)
  42:      1492.68    7.584814  ( -1.236588  -1.905161  -1.557570)
  43:      1503.11    5.492081  (  0.835857   1.367788  -1.709555)
  44:      1640.23   79.852085  (  4.544909   2.250860  -7.357277)
  45:      2997.00    8.026772  (  0.910383  -2.670305   0.259699)
  46:      3000.21   42.585926  ( -5.248113  -3.875495  -0.154177)
  47:      3064.58    3.599968  (  0.231849  -1.114038  -1.518266)
  48:      3095.00    2.764870  ( -0.499076  -1.523335   0.441863)
  49:      3106.92    0.519129  (  0.055802  -0.556055  -0.454772)
  50:      3138.17    3.309921  (  1.323491  -0.617743   1.084752)
  51:      3140.90    1.305634  ( -0.232240   0.792290   0.789921)
  52:      3143.11    1.425437  ( -0.026955   0.298358   1.155722)
  53:      3161.60    1.268475  (  0.143217  -0.836672   0.740233)
  54:      3171.78    0.341644  ( -0.493695  -0.311391  -0.030732)
  55:      3434.76   42.174236  ( -3.382179  -1.797663   5.244379)
  56:      3492.58   59.271441  (  4.005717   4.440721   4.848264)

--------------------------
THERMOCHEMISTRY AT 298.15K
--------------------------

Temperature         ... 298.15 K
Pressure            ... 1.00 atm
Total Mass          ... 102.16 AMU

Throughout the following assumptions are being made:
  (1) The electronic state is orbitally nondegenerate
  (2) There are no thermally accessible electronically excited states
  (3) Hindered rotations indicated by low frequency modes) are not
      treated as such but are treated as vibrations and this may
      case some error
  (4) All equations used are the standard statistical mechanics
      equations for an ideal gas
  (5) All vibrations are strinctly harmonic

------------
INNER ENERGY
------------

The inner energy is: U= E(el) + E(ZPE) + E(vib) + E(rot) + E(trans)
    E(el)   - is the total energy from the electronic structure calculation
              = E(kin-el) + E(nuc-el) + E(el-el) + E(nuc-nuc)
    E(ZPE)  - the the zero temperature vibrational energy from the frequency calculation
    E(vib)  - the the finite temperature correction to E(ZPE) due to population
              of excietd vibrational states
    E(rot)  - is the rotational thermal energy
    E(trans)- is the translational thermal energy

Summary of contributions to the inner energy U:
Electronic energy                ...   -327.22335228 Eh
Zero point energy                ...      0.17852610 Eh     112.03 kcal/mol
Thermal vibrational correction   ...      0.00395474 Eh       2.48 kcal/mol
Thermal rotational correction    ...      0.00141627 Eh       0.89 kcal/mol
Thermal translational correction ...      0.00141627 Eh       0.89 kcal/mol
-----------------------------------------------------------------------
Total thermal energy                   -327.03803889 Eh

Summary of corrections to the electronic energy:
(perhaps to be used in another calculation)
Total thermal correction                  0.00678729 Eh       4.26 kcal/mol
Non-thermal (ZPE) correction              0.17852610 Eh     112.03 kcal/mol
-----------------------------------------------------------------------
Total correction                          0.18531339 Eh     116.29 kcal/mol

--------
ENTHALPY
--------

The enthalpy is H = U + kB*T
                kB is Boltzmann's constant
Total free energy                 ...   -327.03803889 Eh
Thermal Enthalpy correction       ...      0.00094421 Eh       0.59 kcal/mol
-----------------------------------------------------------------------
Total Enthalpy                    ...   -327.03709468 Eh

-------
ENTROPY
-------

The entropy contributions are T*S = T*(S(el)+S(vib)+S(rot)+S(trans)
     S(el)   - electronic entropy
     S(vib)  - vibrational entropy
     S(rot)  - rotational entropy
     S(trans)- translational entropy
The entropies will be listed as mutliplied by the temperature to get
units of energy

Electronic entropy                ...      0.00000000 Eh      0.00 kcal/mol
Vibrational entropy               ...      0.00622205 Eh      3.90 kcal/mol
Rotational entropy                ...      0.01186775 Eh      7.45 kcal/mol
Translational entropy             ...      0.01890147 Eh     11.86 kcal/mol
-----------------------------------------------------------------------
Final entropy term                ...      0.03699126 Eh     23.21 kcal/mol

CAUTION: The rotational entropy is not quite correctly treated here
         because it includes a symmetry number that is not yet correctly
         implemented in ORCA!
For a nonlinear molecule the correct rotational entropy is:
    S(rot) = R*(ln(qrot/sn)+1.5)
    R    = 8.31441 J/mol/K = 1.987191683e-3 kcal/mol/K
    qrot = 192522.8286107
    sn is the rotational symmetry number. We have assumed 3 here
       if it is different for your molecule then you should correct
       the printed rotational entropy by manually evaluating the equation
       as given above

For convenience we print out the resulting values for sn=1 - 12:
 sn= 1  qrot/sn=  192522.8286 T*S(rot)=     8.10 kcal/mol T*S(tot)=    23.86 kcal/mol
 sn= 2  qrot/sn=   96261.4143 T*S(rot)=     7.69 kcal/mol T*S(tot)=    23.45 kcal/mol
 sn= 3  qrot/sn=   64174.2762 T*S(rot)=     7.45 kcal/mol T*S(tot)=    23.21 kcal/mol
 sn= 4  qrot/sn=   48130.7072 T*S(rot)=     7.28 kcal/mol T*S(tot)=    23.04 kcal/mol
 sn= 5  qrot/sn=   38504.5657 T*S(rot)=     7.14 kcal/mol T*S(tot)=    22.91 kcal/mol
 sn= 6  qrot/sn=   32087.1381 T*S(rot)=     7.04 kcal/mol T*S(tot)=    22.80 kcal/mol
 sn= 7  qrot/sn=   27503.2612 T*S(rot)=     6.95 kcal/mol T*S(tot)=    22.71 kcal/mol
 sn= 8  qrot/sn=   24065.3536 T*S(rot)=     6.87 kcal/mol T*S(tot)=    22.63 kcal/mol
 sn= 9  qrot/sn=   21391.4254 T*S(rot)=     6.80 kcal/mol T*S(tot)=    22.56 kcal/mol
 sn=10  qrot/sn=   19252.2829 T*S(rot)=     6.73 kcal/mol T*S(tot)=    22.50 kcal/mol
 sn=11  qrot/sn=   17502.0753 T*S(rot)=     6.68 kcal/mol T*S(tot)=    22.44 kcal/mol
 sn=12  qrot/sn=   16043.5691 T*S(rot)=     6.63 kcal/mol T*S(tot)=    22.39 kcal/mol

-------------------
GIBBS FREE ENTHALPY
-------------------

The Gibbs free enthalpy is G = H - T*S

Total enthalpy                    ...   -327.03709468 Eh
Total entropy correction          ...     -0.03699126 Eh    -23.21 kcal/mol
-----------------------------------------------------------------------
Final Gibbs free enthalpy         ...   -327.07408594 Eh

For completeness - the Gibbs free enthalpy minus the electronic energy
G-E(el)                           ...      0.14926634 Eh     93.67 kcal/mol

                             ****ORCA TERMINATED NORMALLY****
TOTAL RUN TIME: 0 days 0 hours 40 minutes 27 seconds 9 msec
