                         Program Version 3.0.3 - RELEASE   -
|  1> ! NORI PBE0 def2-TZVP UseSym TightOPT Freq TightSCF Grid3 FinalGrid5 XYZFile
|  2> % pal
|  3>     nprocs 8
|  4> end
|  5> %method
|  6>     SymThresh 5.0e-2
|  7> end
|  8> % geom
|  9>     MaxIter 10
| 10> end
| 11> % maxcore 2000
| 12> % output
| 13>     printlevel mini
| 14>     print[ P_Basis ] 0
| 15>     print[ P_SCFInfo ] 1
| 16>     print[ P_SCFIterInfo ] 1
| 17>     print[ P_OrbEn ] 0
| 18>     print[ P_Cartesian ] 0
| 19> end
| 20> % elprop
| 21>     Dipole false
| 22> end
| 23> *xyz 1 1
| 24>  C        1.1683693767    -0.0773903536     0.3865866869
| 25>  C        2.6017549429     0.1957199774     0.0159749801
| 26>  C        2.8459764034     0.1899006762    -1.4780134410
| 27>  O        4.2414271796     0.1097268233    -1.6567030791
| 28>  C        3.2858804328     1.3231796931     0.8220452816
| 29>  C        3.9689289691     0.2552514220     1.6779743574
| 30>  N        3.5639709514    -0.8067098368     0.6847780327
| 31>  H        0.8169966785    -1.0262245057    -0.0257822538
| 32>  H        0.5396326564     0.7168639316    -0.0214014356
| 33>  H        1.0232731778    -0.0828356832     1.4690296702
| 34>  H        2.3321951986    -0.6613743132    -1.9426774381
| 35>  H        2.4255740852     1.1137258307    -1.8926228676
| 36>  H        4.4672140304     0.1104147716    -2.5910180874
| 37>  H        2.6097431790     1.9955615398     1.3453136603
| 38>  H        3.9905720337     1.8971910112     0.2223702791
| 39>  H        5.0473185598     0.3069364169     1.8074656775
| 40>  H        3.4867755455     0.0595493037     2.6329470629
| 41>  H        4.3151165372    -1.0139891632     0.0172209979
| 42>  H        3.1648800620    -1.6686575419     1.0512319160
| 43> *
| 44>
| 45>                          ****END OF INPUT****
 Total Charge           Charge          ....    1
 Multiplicity           Mult            ....    1
 Number of Electrons    NEL             ....   56
FINAL SINGLE POINT ENERGY      -327.220765034828

CARTESIAN COORDINATES (ANGSTROEM)
---------------------------------
  C     -0.670284    1.279076   -1.382210
  C     -0.301316    0.318003   -0.283791
  C     -0.697538    0.802941    1.094473
  O      0.000490    0.000593    2.019205
  C     -0.571909   -1.171517   -0.595397
  C      0.915056   -1.344723   -0.908500
  N      1.207525   -0.000067   -0.288704
  H     -0.236944    2.268442   -1.217244
  H     -1.756426    1.389927   -1.405722
  H     -0.360247    0.912608   -2.363187
  H     -0.442055    1.863862    1.210630
  H     -1.784611    0.697954    1.189698
  H     -0.214269    0.252970    2.921534
  H     -1.258840   -1.356037   -1.418094
  H     -0.885624   -1.732195    0.283455
  H      1.457148   -2.149536   -0.418205
  H      1.164194   -1.316595   -1.966991
  H      1.513695   -0.085705    0.686851
  H      1.819493    0.632655   -0.800095

FINAL SINGLE POINT ENERGY      -327.220765896963
                    ***********************HURRAY********************
 Multiplicity           Mult            ....    1
 Number of Electrons    NEL             ....   56
 Basis Dimension        Dim             ....  289
FINAL SINGLE POINT ENERGY      -327.220766425773

VIBRATIONAL FREQUENCIES
-----------------------

   0:         0.00 cm**-1
   1:         0.00 cm**-1
   2:         0.00 cm**-1
   3:         0.00 cm**-1
   4:         0.00 cm**-1
   5:         0.00 cm**-1
   6:       111.84 cm**-1
   7:       146.29 cm**-1
   8:       242.42 cm**-1
   9:       263.50 cm**-1
  10:       291.73 cm**-1
  11:       316.93 cm**-1
  12:       350.02 cm**-1
  13:       389.27 cm**-1
  14:       537.27 cm**-1
  15:       635.46 cm**-1
  16:       736.43 cm**-1
  17:       796.83 cm**-1
  18:       856.71 cm**-1
  19:       903.09 cm**-1
  20:       933.78 cm**-1
  21:       944.69 cm**-1
  22:       975.76 cm**-1
  23:      1006.96 cm**-1
  24:      1018.20 cm**-1
  25:      1108.71 cm**-1
  26:      1114.37 cm**-1
  27:      1140.14 cm**-1
  28:      1186.35 cm**-1
  29:      1225.51 cm**-1
  30:      1251.56 cm**-1
  31:      1257.61 cm**-1
  32:      1280.97 cm**-1
  33:      1298.90 cm**-1
  34:      1332.36 cm**-1
  35:      1346.69 cm**-1
  36:      1359.07 cm**-1
  37:      1422.34 cm**-1
  38:      1450.42 cm**-1
  39:      1477.36 cm**-1
  40:      1486.49 cm**-1
  41:      1488.92 cm**-1
  42:      1500.33 cm**-1
  43:      1506.78 cm**-1
  44:      1619.16 cm**-1
  45:      3027.72 cm**-1
  46:      3057.81 cm**-1
  47:      3078.59 cm**-1
  48:      3122.83 cm**-1
  49:      3128.58 cm**-1
  50:      3138.54 cm**-1
  51:      3142.83 cm**-1
  52:      3181.75 cm**-1
  53:      3198.72 cm**-1
  54:      3385.20 cm**-1
  55:      3525.60 cm**-1
  56:      3869.27 cm**-1

IR SPECTRUM
-----------

 Mode    freq (cm**-1)   T**2         TX         TY         TZ
-------------------------------------------------------------------
   6:       111.84    0.139313  ( -0.054254   0.289387   0.229402)
   7:       146.29    8.966982  ( -2.176390  -1.815493   0.966589)
   8:       242.42    1.381676  ( -0.741167  -0.552797   0.725785)
   9:       263.50   16.654432  ( -2.832052  -1.297424   2.636400)
  10:       291.73   57.477000  (  4.522441   5.574146   2.439965)
  11:       316.93   59.564577  ( -5.496968  -5.248118   1.343568)
  12:       350.02   10.521206  ( -0.865741  -0.827814   3.014369)
  13:       389.27    4.614806  (  2.060849   0.458438  -0.396915)
  14:       537.27    6.750790  ( -1.861819   0.529687  -1.733162)
  15:       635.46   13.310064  ( -1.003558   1.498236  -3.171470)
  16:       736.43    4.960318  ( -0.520458   1.509236  -1.552948)
  17:       796.83    2.386050  ( -1.245599   0.584890  -0.701738)
  18:       856.71    7.698067  ( -1.910597   0.350385   1.981140)
  19:       903.09    4.018047  ( -0.366731   0.808034  -1.797397)
  20:       933.78    4.790111  ( -0.603711  -2.034860  -0.533845)
  21:       944.69    5.354225  (  0.693221  -0.529832  -2.143116)
  22:       975.76    7.404108  (  0.894215   2.561214  -0.211349)
  23:      1006.96    0.424730  ( -0.226973  -0.601310   0.107886)
  24:      1018.20    0.402015  ( -0.116997  -0.026754  -0.622584)
  25:      1108.71    0.232757  (  0.039323   0.066218   0.476263)
  26:      1114.37   97.004916  ( -5.094734   4.850248  -6.893743)
  27:      1140.14   15.258922  ( -3.729141   1.146934  -0.192275)
  28:      1186.35   18.766145  ( -0.091889  -1.887820   3.897927)
  29:      1225.51    1.893440  (  0.149856  -1.119572   0.785838)
  30:      1251.56    9.733962  ( -2.223062   0.132688   2.185029)
  31:      1257.61   75.060628  (  6.343585  -5.893705  -0.289486)
  32:      1280.97   10.367541  (  2.232628  -2.319781  -0.039136)
  33:      1298.90    6.029482  ( -2.309120   0.834040   0.042716)
  34:      1332.36   24.921290  ( -2.567790   3.221657   2.819338)
  35:      1346.69    1.611985  ( -0.684923   1.069018  -0.008170)
  36:      1359.07   43.540619  (  4.801697  -3.900981  -2.294924)
  37:      1422.34   13.632975  (  0.317699  -1.181214   3.483788)
  38:      1450.42    2.520585  ( -0.387250   0.892054  -1.254935)
  39:      1477.36   25.248146  (  4.271395   2.630664   0.287994)
  40:      1486.49    0.480248  ( -0.681662   0.078147  -0.097353)
  41:      1488.92    2.063249  ( -0.857550   0.453517   1.059330)
  42:      1500.33   12.072154  ( -0.657467   2.708236   2.074933)
  43:      1506.78    7.429122  (  0.470084  -1.470156  -2.246505)
  44:      1619.16   53.939182  (  6.988372   2.035895   0.978249)
  45:      3027.72   19.630772  (  1.522033  -3.944494   1.324824)
  46:      3057.81    1.820293  (  0.818719   0.873952  -0.621450)
  47:      3078.59    7.243977  (  1.935301   1.702839   0.773904)
  48:      3122.83    0.852612  (  0.808382   0.347248   0.280266)
  49:      3128.58    1.766350  ( -1.013497   0.453874   0.730187)
  50:      3138.54    5.427958  (  0.026308  -1.907560  -1.337342)
  51:      3142.83    1.318877  ( -0.507863  -0.492249   0.904789)
  52:      3181.75    0.107858  ( -0.130866  -0.123361  -0.274798)
  53:      3198.72    0.133571  ( -0.233555   0.278867  -0.035446)
  54:      3385.20  107.403047  (  3.088892   1.712322   9.743190)
  55:      3525.60   81.869323  (  4.439247   3.836545  -6.887912)
  56:      3869.27  133.964084  (  0.999628  -1.065646 -11.481691)

--------------------------
THERMOCHEMISTRY AT 298.15K
--------------------------

Temperature         ... 298.15 K
Pressure            ... 1.00 atm
Total Mass          ... 102.16 AMU

Throughout the following assumptions are being made:
  (1) The electronic state is orbitally nondegenerate
  (2) There are no thermally accessible electronically excited states
  (3) Hindered rotations indicated by low frequency modes) are not
      treated as such but are treated as vibrations and this may
      case some error
  (4) All equations used are the standard statistical mechanics
      equations for an ideal gas
  (5) All vibrations are strinctly harmonic

------------
INNER ENERGY
------------

The inner energy is: U= E(el) + E(ZPE) + E(vib) + E(rot) + E(trans)
    E(el)   - is the total energy from the electronic structure calculation
              = E(kin-el) + E(nuc-el) + E(el-el) + E(nuc-nuc)
    E(ZPE)  - the the zero temperature vibrational energy from the frequency calculation
    E(vib)  - the the finite temperature correction to E(ZPE) due to population
              of excietd vibrational states
    E(rot)  - is the rotational thermal energy
    E(trans)- is the translational thermal energy

Summary of contributions to the inner energy U:
Electronic energy                ...   -327.22076643 Eh
Zero point energy                ...      0.17580309 Eh     110.32 kcal/mol
Thermal vibrational correction   ...      0.00489783 Eh       3.07 kcal/mol
Thermal rotational correction    ...      0.00141627 Eh       0.89 kcal/mol
Thermal translational correction ...      0.00141627 Eh       0.89 kcal/mol
-----------------------------------------------------------------------
Total thermal energy                   -327.03723296 Eh

Summary of corrections to the electronic energy:
(perhaps to be used in another calculation)
Total thermal correction                  0.00773037 Eh       4.85 kcal/mol
Non-thermal (ZPE) correction              0.17580309 Eh     110.32 kcal/mol
-----------------------------------------------------------------------
Total correction                          0.18353347 Eh     115.17 kcal/mol

--------
ENTHALPY
--------

The enthalpy is H = U + kB*T
                kB is Boltzmann's constant
Total free energy                 ...   -327.03723296 Eh
Thermal Enthalpy correction       ...      0.00094421 Eh       0.59 kcal/mol
-----------------------------------------------------------------------
Total Enthalpy                    ...   -327.03628875 Eh

-------
ENTROPY
-------

The entropy contributions are T*S = T*(S(el)+S(vib)+S(rot)+S(trans)
     S(el)   - electronic entropy
     S(vib)  - vibrational entropy
     S(rot)  - rotational entropy
     S(trans)- translational entropy
The entropies will be listed as mutliplied by the temperature to get
units of energy

Electronic entropy                ...      0.00000000 Eh      0.00 kcal/mol
Vibrational entropy               ...      0.00814604 Eh      5.11 kcal/mol
Rotational entropy                ...      0.01195314 Eh      7.50 kcal/mol
Translational entropy             ...      0.01890147 Eh     11.86 kcal/mol
-----------------------------------------------------------------------
Final entropy term                ...      0.03900064 Eh     24.47 kcal/mol

CAUTION: The rotational entropy is not quite correctly treated here
         because it includes a symmetry number that is not yet correctly
         implemented in ORCA!
For a nonlinear molecule the correct rotational entropy is:
    S(rot) = R*(ln(qrot/sn)+1.5)
    R    = 8.31441 J/mol/K = 1.987191683e-3 kcal/mol/K
    qrot = 210745.6319117
    sn is the rotational symmetry number. We have assumed 3 here
       if it is different for your molecule then you should correct
       the printed rotational entropy by manually evaluating the equation
       as given above

For convenience we print out the resulting values for sn=1 - 12:
 sn= 1  qrot/sn=  210745.6319 T*S(rot)=     8.15 kcal/mol T*S(tot)=    25.12 kcal/mol
 sn= 2  qrot/sn=  105372.8160 T*S(rot)=     7.74 kcal/mol T*S(tot)=    24.71 kcal/mol
 sn= 3  qrot/sn=   70248.5440 T*S(rot)=     7.50 kcal/mol T*S(tot)=    24.47 kcal/mol
 sn= 4  qrot/sn=   52686.4080 T*S(rot)=     7.33 kcal/mol T*S(tot)=    24.30 kcal/mol
 sn= 5  qrot/sn=   42149.1264 T*S(rot)=     7.20 kcal/mol T*S(tot)=    24.17 kcal/mol
 sn= 6  qrot/sn=   35124.2720 T*S(rot)=     7.09 kcal/mol T*S(tot)=    24.06 kcal/mol
 sn= 7  qrot/sn=   30106.5188 T*S(rot)=     7.00 kcal/mol T*S(tot)=    23.97 kcal/mol
 sn= 8  qrot/sn=   26343.2040 T*S(rot)=     6.92 kcal/mol T*S(tot)=    23.89 kcal/mol
 sn= 9  qrot/sn=   23416.1813 T*S(rot)=     6.85 kcal/mol T*S(tot)=    23.82 kcal/mol
 sn=10  qrot/sn=   21074.5632 T*S(rot)=     6.79 kcal/mol T*S(tot)=    23.76 kcal/mol
 sn=11  qrot/sn=   19158.6938 T*S(rot)=     6.73 kcal/mol T*S(tot)=    23.70 kcal/mol
 sn=12  qrot/sn=   17562.1360 T*S(rot)=     6.68 kcal/mol T*S(tot)=    23.65 kcal/mol

-------------------
GIBBS FREE ENTHALPY
-------------------

The Gibbs free enthalpy is G = H - T*S

Total enthalpy                    ...   -327.03628875 Eh
Total entropy correction          ...     -0.03900064 Eh    -24.47 kcal/mol
-----------------------------------------------------------------------
Final Gibbs free enthalpy         ...   -327.07528939 Eh

For completeness - the Gibbs free enthalpy minus the electronic energy
G-E(el)                           ...      0.14547703 Eh     91.29 kcal/mol

                             ****ORCA TERMINATED NORMALLY****
TOTAL RUN TIME: 0 days 0 hours 38 minutes 43 seconds 148 msec
