                         Program Version 3.0.3 - RELEASE   -
|  1> ! NORI PBE0 def2-TZVP UseSym TightOPT Freq TightSCF Grid3 FinalGrid5 XYZFile
|  2> % pal
|  3>     nprocs 8
|  4> end
|  5> %method
|  6>     SymThresh 5.0e-2
|  7> end
|  8> % geom
|  9>     MaxIter 10
| 10> end
| 11> % maxcore 2000
| 12> % output
| 13>     printlevel mini
| 14>     print[ P_Basis ] 0
| 15>     print[ P_SCFInfo ] 1
| 16>     print[ P_SCFIterInfo ] 1
| 17>     print[ P_OrbEn ] 0
| 18>     print[ P_Cartesian ] 0
| 19> end
| 20> % elprop
| 21>     Dipole false
| 22> end
| 23> *xyz 1 1
| 24>  C        0.8345459957    -0.1177672118     0.4052801236
| 25>  C        2.2773809761    -0.1321184234    -0.0145354269
| 26>  C        3.2170133665     0.8901500188     0.6877466759
| 27>  O        2.6840025807     2.0104514906     1.2760319250
| 28>  C        3.7266838615    -0.2623814119     1.5733816502
| 29>  N        3.0651225630    -1.2668971742     0.6527174837
| 30>  C        3.9756385083    -2.0277069970    -0.2275908679
| 31>  H        0.2887450907    -0.9642932136    -0.0170882174
| 32>  H        0.3671393881     0.7949974440     0.0312250431
| 33>  H        0.7108372791    -0.1346513552     1.4925470230
| 34>  H        2.3811224251    -0.2025723368    -1.0977802294
| 35>  H        3.9907844390     1.2473947879     0.0072597427
| 36>  H        2.0114137224     1.7867595773     1.9273706841
| 37>  H        4.7990378694    -0.4244990267     1.6653993377
| 38>  H        3.2585298608    -0.2959522377     2.5567306646
| 39>  H        2.4563114897    -1.9187789157     1.1454704501
| 40>  H        4.6314036038    -1.3305290494    -0.7473796815
| 41>  H        3.3844514266    -2.5876260573    -0.9514990023
| 42>  H        4.5701655536    -2.7119199077     0.3769826218
| 43> *
| 44>
| 45>                          ****END OF INPUT****
 Total Charge           Charge          ....    1
 Multiplicity           Mult            ....    1
 Number of Electrons    NEL             ....   56
FINAL SINGLE POINT ENERGY      -327.202784085694
FINAL SINGLE POINT ENERGY      -327.202785519707

CARTESIAN COORDINATES (ANGSTROEM)
---------------------------------
  C     -1.139811   -1.636183    0.050538
  C     -0.806841   -0.187105   -0.167362
  C      0.005933    0.518303    0.956803
  O      0.002259   -0.000720    2.227746
  C      1.261241    0.363288    0.077975
  N      0.391192    0.000247   -1.107563
  C      0.247055    1.045777   -2.141578
  H     -1.566451   -2.086021   -0.848270
  H     -1.886960   -1.710942    0.842676
  H     -0.271378   -2.228638    0.353935
  H     -1.662925    0.368836   -0.550035
  H     -0.287851    1.563658    1.058268
  H      0.291331   -0.918738    2.240642
  H      1.884766    1.234614   -0.112902
  H      1.884183   -0.487546    0.354025
  H      0.669768   -0.872526   -1.553349
  H     -0.044541    1.979358   -1.663190
  H     -0.519690    0.739639   -2.852241
  H      1.199542    1.175892   -2.653916

FINAL SINGLE POINT ENERGY      -327.202786260513
                    ***********************HURRAY********************
 Multiplicity           Mult            ....    1
 Number of Electrons    NEL             ....   56
 Basis Dimension        Dim             ....  289
FINAL SINGLE POINT ENERGY      -327.202786429257

VIBRATIONAL FREQUENCIES
-----------------------

   0:         0.00 cm**-1
   1:         0.00 cm**-1
   2:         0.00 cm**-1
   3:         0.00 cm**-1
   4:         0.00 cm**-1
   5:         0.00 cm**-1
   6:        69.68 cm**-1
   7:       220.53 cm**-1
   8:       239.06 cm**-1
   9:       255.16 cm**-1
  10:       273.32 cm**-1
  11:       278.81 cm**-1
  12:       341.10 cm**-1
  13:       406.07 cm**-1
  14:       444.48 cm**-1
  15:       570.06 cm**-1
  16:       688.49 cm**-1
  17:       797.81 cm**-1
  18:       810.60 cm**-1
  19:       880.13 cm**-1
  20:       926.05 cm**-1
  21:       980.97 cm**-1
  22:      1037.41 cm**-1
  23:      1041.96 cm**-1
  24:      1082.82 cm**-1
  25:      1103.10 cm**-1
  26:      1106.33 cm**-1
  27:      1185.57 cm**-1
  28:      1205.59 cm**-1
  29:      1250.35 cm**-1
  30:      1263.22 cm**-1
  31:      1286.33 cm**-1
  32:      1315.02 cm**-1
  33:      1321.72 cm**-1
  34:      1345.61 cm**-1
  35:      1368.66 cm**-1
  36:      1414.99 cm**-1
  37:      1426.49 cm**-1
  38:      1449.80 cm**-1
  39:      1456.60 cm**-1
  40:      1484.38 cm**-1
  41:      1485.74 cm**-1
  42:      1488.53 cm**-1
  43:      1491.53 cm**-1
  44:      1498.55 cm**-1
  45:      3052.00 cm**-1
  46:      3082.88 cm**-1
  47:      3110.07 cm**-1
  48:      3117.97 cm**-1
  49:      3122.54 cm**-1
  50:      3137.30 cm**-1
  51:      3149.09 cm**-1
  52:      3180.68 cm**-1
  53:      3183.78 cm**-1
  54:      3185.55 cm**-1
  55:      3486.34 cm**-1
  56:      3839.51 cm**-1

IR SPECTRUM
-----------

 Mode    freq (cm**-1)   T**2         TX         TY         TZ
-------------------------------------------------------------------
   6:        69.68    1.475131  (  0.391834   1.097274  -0.342909)
   7:       220.53    2.047236  (  0.697227   1.162157  -0.458803)
   8:       239.06    0.400968  ( -0.595755  -0.157197  -0.146059)
   9:       255.16    1.837613  ( -0.960816   0.366804  -0.883119)
  10:       273.32    5.670010  ( -2.225806  -0.407395  -0.741504)
  11:       278.81    7.606300  (  2.470234   1.087050   0.567949)
  12:       341.10  110.757887  ( -9.739354  -3.267270  -2.286440)
  13:       406.07    0.611050  (  0.719373  -0.232130   0.199168)
  14:       444.48    7.342907  (  2.405240   0.325113   1.205002)
  15:       570.06    0.956043  (  0.232774   0.775856  -0.547637)
  16:       688.49    5.898589  (  0.444562  -0.341959   2.363053)
  17:       797.81    1.723658  (  0.980794   0.067873  -0.870111)
  18:       810.60    1.142179  (  0.642635   0.155175  -0.839714)
  19:       880.13   20.231519  (  3.177086   2.993883  -1.083654)
  20:       926.05    5.235498  ( -0.879645   0.004399  -2.112275)
  21:       980.97   23.406486  ( -3.028179   0.255993  -3.764450)
  22:      1037.41   28.711586  (  3.740828   0.889644  -3.731799)
  23:      1041.96    3.270128  ( -0.585904   1.067938  -1.336545)
  24:      1082.82    0.751773  (  0.655458   0.413740   0.388544)
  25:      1103.10    0.625321  ( -0.471879  -0.633745   0.031925)
  26:      1106.33    8.739805  ( -1.094793  -1.329757   2.402702)
  27:      1185.57   63.118129  (  0.736567   1.819553  -7.698365)
  28:      1205.59  115.023868  ( -0.570673   2.663121 -10.373331)
  29:      1250.35    3.253970  ( -1.793583   0.036534   0.188930)
  30:      1263.22    7.037976  (  1.865784   1.532970  -1.098557)
  31:      1286.33    2.118616  ( -1.404890  -0.213471   0.315165)
  32:      1315.02    9.408748  ( -1.694623  -2.392066  -0.902784)
  33:      1321.72   10.825616  (  3.225517   0.181271  -0.623538)
  34:      1345.61    0.326015  ( -0.117781   0.156421   0.536354)
  35:      1368.66    2.872007  ( -1.643514   0.277192   0.306651)
  36:      1414.99   12.496915  (  1.255741   2.903342  -1.578175)
  37:      1426.49   20.127353  (  0.329490   2.542942  -3.681336)
  38:      1449.80   30.321513  ( -0.243356  -0.074205   5.500617)
  39:      1456.60   10.056544  (  1.414394  -1.868189   2.136797)
  40:      1484.38   30.235418  (  5.066681   1.439972   1.578176)
  41:      1485.74   17.882187  ( -0.493606  -0.271130   4.191065)
  42:      1488.53   14.550792  ( -3.587346   1.100511   0.686013)
  43:      1491.53    3.035637  ( -0.914316   1.442290   0.345632)
  44:      1498.55   26.150877  (  1.886139  -2.208078  -4.209245)
  45:      3052.00    4.330195  ( -1.899194   0.820534   0.223563)
  46:      3082.88    0.106822  ( -0.058120   0.252409  -0.199333)
  47:      3110.07    0.135953  (  0.363591   0.029882  -0.053495)
  48:      3117.97    1.783815  (  0.359186  -0.871305   0.946376)
  49:      3122.54    1.441491  (  0.246837   1.154355  -0.219153)
  50:      3137.30    6.093390  (  1.554457  -1.114995   1.560077)
  51:      3149.09    0.738184  (  0.440343   0.688877  -0.264065)
  52:      3180.68    0.156213  ( -0.348988  -0.094733   0.159517)
  53:      3183.78    0.502967  (  0.312934   0.196775  -0.605243)
  54:      3185.55    0.068037  (  0.241550   0.018701  -0.096647)
  55:      3486.34   47.926303  (  2.041809  -5.600662  -3.519929)
  56:      3839.51   45.275391  (  1.327925  -5.561580   3.546948)

--------------------------
THERMOCHEMISTRY AT 298.15K
--------------------------

Temperature         ... 298.15 K
Pressure            ... 1.00 atm
Total Mass          ... 102.16 AMU

Throughout the following assumptions are being made:
  (1) The electronic state is orbitally nondegenerate
  (2) There are no thermally accessible electronically excited states
  (3) Hindered rotations indicated by low frequency modes) are not
      treated as such but are treated as vibrations and this may
      case some error
  (4) All equations used are the standard statistical mechanics
      equations for an ideal gas
  (5) All vibrations are strinctly harmonic

------------
INNER ENERGY
------------

The inner energy is: U= E(el) + E(ZPE) + E(vib) + E(rot) + E(trans)
    E(el)   - is the total energy from the electronic structure calculation
              = E(kin-el) + E(nuc-el) + E(el-el) + E(nuc-nuc)
    E(ZPE)  - the the zero temperature vibrational energy from the frequency calculation
    E(vib)  - the the finite temperature correction to E(ZPE) due to population
              of excietd vibrational states
    E(rot)  - is the rotational thermal energy
    E(trans)- is the translational thermal energy

Summary of contributions to the inner energy U:
Electronic energy                ...   -327.20278643 Eh
Zero point energy                ...      0.17528301 Eh     109.99 kcal/mol
Thermal vibrational correction   ...      0.00504737 Eh       3.17 kcal/mol
Thermal rotational correction    ...      0.00141627 Eh       0.89 kcal/mol
Thermal translational correction ...      0.00141627 Eh       0.89 kcal/mol
-----------------------------------------------------------------------
Total thermal energy                   -327.01962351 Eh

Summary of corrections to the electronic energy:
(perhaps to be used in another calculation)
Total thermal correction                  0.00787991 Eh       4.94 kcal/mol
Non-thermal (ZPE) correction              0.17528301 Eh     109.99 kcal/mol
-----------------------------------------------------------------------
Total correction                          0.18316292 Eh     114.94 kcal/mol

--------
ENTHALPY
--------

The enthalpy is H = U + kB*T
                kB is Boltzmann's constant
Total free energy                 ...   -327.01962351 Eh
Thermal Enthalpy correction       ...      0.00094421 Eh       0.59 kcal/mol
-----------------------------------------------------------------------
Total Enthalpy                    ...   -327.01867930 Eh

-------
ENTROPY
-------

The entropy contributions are T*S = T*(S(el)+S(vib)+S(rot)+S(trans)
     S(el)   - electronic entropy
     S(vib)  - vibrational entropy
     S(rot)  - rotational entropy
     S(trans)- translational entropy
The entropies will be listed as mutliplied by the temperature to get
units of energy

Electronic entropy                ...      0.00000000 Eh      0.00 kcal/mol
Vibrational entropy               ...      0.00857737 Eh      5.38 kcal/mol
Rotational entropy                ...      0.01202818 Eh      7.55 kcal/mol
Translational entropy             ...      0.01890147 Eh     11.86 kcal/mol
-----------------------------------------------------------------------
Final entropy term                ...      0.03950702 Eh     24.79 kcal/mol

CAUTION: The rotational entropy is not quite correctly treated here
         because it includes a symmetry number that is not yet correctly
         implemented in ORCA!
For a nonlinear molecule the correct rotational entropy is:
    S(rot) = R*(ln(qrot/sn)+1.5)
    R    = 8.31441 J/mol/K = 1.987191683e-3 kcal/mol/K
    qrot = 228178.9105716
    sn is the rotational symmetry number. We have assumed 3 here
       if it is different for your molecule then you should correct
       the printed rotational entropy by manually evaluating the equation
       as given above

For convenience we print out the resulting values for sn=1 - 12:
 sn= 1  qrot/sn=  228178.9106 T*S(rot)=     8.20 kcal/mol T*S(tot)=    25.44 kcal/mol
 sn= 2  qrot/sn=  114089.4553 T*S(rot)=     7.79 kcal/mol T*S(tot)=    25.03 kcal/mol
 sn= 3  qrot/sn=   76059.6369 T*S(rot)=     7.55 kcal/mol T*S(tot)=    24.79 kcal/mol
 sn= 4  qrot/sn=   57044.7276 T*S(rot)=     7.38 kcal/mol T*S(tot)=    24.62 kcal/mol
 sn= 5  qrot/sn=   45635.7821 T*S(rot)=     7.25 kcal/mol T*S(tot)=    24.49 kcal/mol
 sn= 6  qrot/sn=   38029.8184 T*S(rot)=     7.14 kcal/mol T*S(tot)=    24.38 kcal/mol
 sn= 7  qrot/sn=   32596.9872 T*S(rot)=     7.05 kcal/mol T*S(tot)=    24.29 kcal/mol
 sn= 8  qrot/sn=   28522.3638 T*S(rot)=     6.97 kcal/mol T*S(tot)=    24.21 kcal/mol
 sn= 9  qrot/sn=   25353.2123 T*S(rot)=     6.90 kcal/mol T*S(tot)=    24.14 kcal/mol
 sn=10  qrot/sn=   22817.8911 T*S(rot)=     6.83 kcal/mol T*S(tot)=    24.08 kcal/mol
 sn=11  qrot/sn=   20743.5373 T*S(rot)=     6.78 kcal/mol T*S(tot)=    24.02 kcal/mol
 sn=12  qrot/sn=   19014.9092 T*S(rot)=     6.73 kcal/mol T*S(tot)=    23.97 kcal/mol

-------------------
GIBBS FREE ENTHALPY
-------------------

The Gibbs free enthalpy is G = H - T*S

Total enthalpy                    ...   -327.01867930 Eh
Total entropy correction          ...     -0.03950702 Eh    -24.79 kcal/mol
-----------------------------------------------------------------------
Final Gibbs free enthalpy         ...   -327.05818632 Eh

For completeness - the Gibbs free enthalpy minus the electronic energy
G-E(el)                           ...      0.14460011 Eh     90.74 kcal/mol

                             ****ORCA TERMINATED NORMALLY****
TOTAL RUN TIME: 0 days 0 hours 38 minutes 57 seconds 732 msec
