                         Program Version 3.0.3 - RELEASE   -
|  1> ! NORI PBE0 def2-TZVP UseSym TightOPT Freq TightSCF Grid3 FinalGrid5 XYZFile
|  2> % pal
|  3>     nprocs 8
|  4> end
|  5> %method
|  6>     SymThresh 5.0e-2
|  7> end
|  8> % geom
|  9>     MaxIter 10
| 10> end
| 11> % maxcore 2000
| 12> % output
| 13>     printlevel mini
| 14>     print[ P_Basis ] 0
| 15>     print[ P_SCFInfo ] 1
| 16>     print[ P_SCFIterInfo ] 1
| 17>     print[ P_OrbEn ] 0
| 18>     print[ P_Cartesian ] 0
| 19> end
| 20> % elprop
| 21>     Dipole false
| 22> end
| 23> *xyz 1 1
| 24>  C        0.9208052140     0.0419546349     0.1265639262
| 25>  C        2.4293946835     0.0725596632     0.0791871903
| 26>  C        2.9487131373    -0.0203610706    -1.3459828335
| 27>  O        4.3661418451     0.0171974866    -1.2996961978
| 28>  C        3.1383220186     1.2076798347     0.8534113910
| 29>  N        4.1568658923     0.2056834673     1.3420586181
| 30>  C        3.1873877248    -0.9031470368     1.0087496829
| 31>  H        0.4961311472     0.8745323755    -0.4386484553
| 32>  H        0.5547946707     0.1104819945     1.1527520595
| 33>  H        0.5348433609    -0.8831341595    -0.3074740500
| 34>  H        2.5950353203    -0.9538245101    -1.7990302265
| 35>  H        2.5532260783     0.8187376741    -1.9302697608
| 36>  H        4.7327414830    -0.0439053751    -2.1856585715
| 37>  H        2.5629569422     1.5734441016     1.7024717945
| 38>  H        3.5865971321     2.0296614815     0.2991337154
| 39>  H        4.4922930222     0.2837479301     2.2999150489
| 40>  H        4.9357000112     0.1744523736     0.6782140494
| 41>  H        3.6755641489    -1.7755802365     0.5794914353
| 42>  H        2.6272961673    -1.1683106291     1.9041911838
| 43> *
| 44>
| 45>                          ****END OF INPUT****
 Total Charge           Charge          ....    1
 Multiplicity           Mult            ....    1
 Number of Electrons    NEL             ....   56
FINAL SINGLE POINT ENERGY      -327.216617987531
FINAL SINGLE POINT ENERGY      -327.216618596786

CARTESIAN COORDINATES (ANGSTROEM)
---------------------------------
  C     -1.496886    1.540288   -0.000000
  C     -0.432040    0.469931    0.000000
  C      0.965215    1.067914    0.000000
  O      1.898440   -0.000887   -0.000000
  C     -0.553560   -0.650609    1.058551
  N     -0.174775   -1.658669    0.000000
  C     -0.553560   -0.650609   -1.058551
  H     -1.407408    2.178896    0.881561
  H     -2.497938    1.104760    0.000000
  H     -1.407408    2.178896   -0.881561
  H      1.089177    1.697012   -0.889034
  H      1.089177    1.697012    0.889034
  H      2.797108    0.338890   -0.000000
  H     -1.579387   -0.834428    1.374717
  H      0.125959   -0.655108    1.907996
  H     -0.645958   -2.560929   -0.000000
  H      0.842805   -1.771792    0.000000
  H      0.125959   -0.655108   -1.907996
  H     -1.579387   -0.834428   -1.374717

FINAL SINGLE POINT ENERGY      -327.216618852298
                    ***********************HURRAY********************
 Multiplicity           Mult            ....    1
 Number of Electrons    NEL             ....   56
 Basis Dimension        Dim             ....  289
FINAL SINGLE POINT ENERGY      -327.216618904825

VIBRATIONAL FREQUENCIES
-----------------------

   0:         0.00 cm**-1
   1:         0.00 cm**-1
   2:         0.00 cm**-1
   3:         0.00 cm**-1
   4:         0.00 cm**-1
   5:         0.00 cm**-1
   6:       155.28 cm**-1
   7:       203.21 cm**-1
   8:       205.17 cm**-1
   9:       275.57 cm**-1
  10:       286.98 cm**-1
  11:       302.48 cm**-1
  12:       360.45 cm**-1
  13:       381.69 cm**-1
  14:       515.82 cm**-1
  15:       623.71 cm**-1
  16:       743.21 cm**-1
  17:       842.42 cm**-1
  18:       891.42 cm**-1
  19:       898.95 cm**-1
  20:       927.62 cm**-1
  21:       933.46 cm**-1
  22:       981.21 cm**-1
  23:      1001.16 cm**-1
  24:      1019.73 cm**-1
  25:      1093.29 cm**-1
  26:      1107.92 cm**-1
  27:      1180.45 cm**-1
  28:      1182.81 cm**-1
  29:      1244.86 cm**-1
  30:      1268.24 cm**-1
  31:      1281.13 cm**-1
  32:      1288.98 cm**-1
  33:      1323.37 cm**-1
  34:      1328.72 cm**-1
  35:      1353.50 cm**-1
  36:      1371.37 cm**-1
  37:      1420.84 cm**-1
  38:      1448.18 cm**-1
  39:      1473.64 cm**-1
  40:      1486.62 cm**-1
  41:      1486.93 cm**-1
  42:      1498.19 cm**-1
  43:      1512.70 cm**-1
  44:      1600.92 cm**-1
  45:      3033.23 cm**-1
  46:      3059.37 cm**-1
  47:      3081.75 cm**-1
  48:      3116.03 cm**-1
  49:      3119.24 cm**-1
  50:      3137.62 cm**-1
  51:      3139.73 cm**-1
  52:      3192.94 cm**-1
  53:      3193.08 cm**-1
  54:      3419.43 cm**-1
  55:      3531.92 cm**-1
  56:      3873.09 cm**-1

IR SPECTRUM
-----------

 Mode    freq (cm**-1)   T**2         TX         TY         TZ
-------------------------------------------------------------------
   6:       155.28    9.498201  ( -0.000011  -0.000012   3.081915)
   7:       203.21    0.977679  ( -0.000130  -0.000129   0.988776)
   8:       205.17   14.995972  (  2.815423   2.658828   0.000057)
   9:       275.57   10.029916  ( -2.841202  -1.399103   0.000025)
  10:       286.98   86.231079  ( -0.000019  -0.000006  -9.286069)
  11:       302.48   34.994459  (  0.000011  -0.000002  -5.915611)
  12:       360.45    3.632400  (  1.280402  -1.411726   0.000011)
  13:       381.69    0.866748  ( -0.000012   0.000014   0.930993)
  14:       515.82   10.301774  ( -2.730856   1.686475   0.000008)
  15:       623.71    6.939864  ( -1.837723  -1.887495   0.000004)
  16:       743.21   19.647208  ( -4.377899  -0.693693   0.000007)
  17:       842.42    2.442149  (  0.000006   0.000003   1.562738)
  18:       891.42    0.321545  ( -0.000011   0.000004  -0.567050)
  19:       898.95    9.368114  ( -2.353973  -1.956253   0.000011)
  20:       927.62    5.370613  ( -0.285508   2.299804   0.000014)
  21:       933.46    1.218169  ( -0.000003   0.000019  -1.103707)
  22:       981.21    0.555756  ( -0.724341   0.176311   0.000007)
  23:      1001.16   11.927249  (  1.065208  -3.285206  -0.000011)
  24:      1019.73    2.049356  ( -0.000014   0.000025  -1.431557)
  25:      1093.29   63.665255  (  6.026429  -5.229475   0.000005)
  26:      1107.92    0.110114  ( -0.000004   0.000011  -0.331834)
  27:      1180.45   43.691875  (  3.933163  -5.312448   0.000003)
  28:      1182.81    1.828200  ( -0.000024   0.000026  -1.352109)
  29:      1244.86   36.974023  ( -0.000014   0.000027   6.080627)
  30:      1268.24    3.004434  (  0.690129   1.590017  -0.000008)
  31:      1281.13   23.490528  ( -2.431200   4.192827  -0.000021)
  32:      1288.98    0.793085  (  0.000004   0.000008   0.890553)
  33:      1323.37    2.862052  ( -1.622990  -0.477448  -0.000045)
  34:      1328.72    5.659363  (  0.000037   0.000012  -2.378942)
  35:      1353.50   30.358361  (  0.000001  -0.000005  -5.509842)
  36:      1371.37    1.116376  (  1.045983  -0.149312   0.000031)
  37:      1420.84    7.023181  ( -1.979655   1.761859   0.000015)
  38:      1448.18    0.032406  (  0.094853   0.153000  -0.000011)
  39:      1473.64   17.209686  ( -0.000005   0.000003  -4.148456)
  40:      1486.62    9.812915  ( -0.000068   0.000598   3.132557)
  41:      1486.93    1.209770  (  0.209548  -1.079748   0.001662)
  42:      1498.19   15.890191  ( -3.458696  -1.981820   0.000039)
  43:      1512.70    4.008081  ( -1.742676  -0.985476   0.000020)
  44:      1600.92   93.786429  ( -1.471616   9.571874  -0.000003)
  45:      3033.23   21.516505  ( -0.629500   4.595676   0.000015)
  46:      3059.37    3.606259  (  1.398659  -1.284528   0.000027)
  47:      3081.75   11.368272  (  0.000007  -0.000025   3.371687)
  48:      3116.03    1.874171  (  0.000018  -0.000002   1.369004)
  49:      3119.24    1.739525  (  1.285816   0.293603  -0.000005)
  50:      3137.62    3.847810  (  0.000673   0.000521  -1.961583)
  51:      3139.73    7.132203  ( -2.043030  -1.719951  -0.000618)
  52:      3192.94    0.231467  ( -0.383921  -0.289951  -0.000038)
  53:      3193.08    0.430729  ( -0.000028  -0.000010   0.656300)
  54:      3419.43   87.639166  ( -8.894741   2.919374   0.000000)
  55:      3531.92  103.314078  ( -7.450719  -6.913817   0.000000)
  56:      3873.09  120.609950  (-10.854950  -1.667337  -0.000000)

--------------------------
THERMOCHEMISTRY AT 298.15K
--------------------------

Temperature         ... 298.15 K
Pressure            ... 1.00 atm
Total Mass          ... 102.16 AMU

Throughout the following assumptions are being made:
  (1) The electronic state is orbitally nondegenerate
  (2) There are no thermally accessible electronically excited states
  (3) Hindered rotations indicated by low frequency modes) are not
      treated as such but are treated as vibrations and this may
      case some error
  (4) All equations used are the standard statistical mechanics
      equations for an ideal gas
  (5) All vibrations are strinctly harmonic

------------
INNER ENERGY
------------

The inner energy is: U= E(el) + E(ZPE) + E(vib) + E(rot) + E(trans)
    E(el)   - is the total energy from the electronic structure calculation
              = E(kin-el) + E(nuc-el) + E(el-el) + E(nuc-nuc)
    E(ZPE)  - the the zero temperature vibrational energy from the frequency calculation
    E(vib)  - the the finite temperature correction to E(ZPE) due to population
              of excietd vibrational states
    E(rot)  - is the rotational thermal energy
    E(trans)- is the translational thermal energy

Summary of contributions to the inner energy U:
Electronic energy                ...   -327.21661890 Eh
Zero point energy                ...      0.17632930 Eh     110.65 kcal/mol
Thermal vibrational correction   ...      0.00478126 Eh       3.00 kcal/mol
Thermal rotational correction    ...      0.00141627 Eh       0.89 kcal/mol
Thermal translational correction ...      0.00141627 Eh       0.89 kcal/mol
-----------------------------------------------------------------------
Total thermal energy                   -327.03267580 Eh

Summary of corrections to the electronic energy:
(perhaps to be used in another calculation)
Total thermal correction                  0.00761380 Eh       4.78 kcal/mol
Non-thermal (ZPE) correction              0.17632930 Eh     110.65 kcal/mol
-----------------------------------------------------------------------
Total correction                          0.18394310 Eh     115.43 kcal/mol

--------
ENTHALPY
--------

The enthalpy is H = U + kB*T
                kB is Boltzmann's constant
Total free energy                 ...   -327.03267580 Eh
Thermal Enthalpy correction       ...      0.00094421 Eh       0.59 kcal/mol
-----------------------------------------------------------------------
Total Enthalpy                    ...   -327.03173159 Eh

-------
ENTROPY
-------

The entropy contributions are T*S = T*(S(el)+S(vib)+S(rot)+S(trans)
     S(el)   - electronic entropy
     S(vib)  - vibrational entropy
     S(rot)  - rotational entropy
     S(trans)- translational entropy
The entropies will be listed as mutliplied by the temperature to get
units of energy

Electronic entropy                ...      0.00000000 Eh      0.00 kcal/mol
Vibrational entropy               ...      0.00770226 Eh      4.83 kcal/mol
Rotational entropy                ...      0.01192910 Eh      7.49 kcal/mol
Translational entropy             ...      0.01890147 Eh     11.86 kcal/mol
-----------------------------------------------------------------------
Final entropy term                ...      0.03853282 Eh     24.18 kcal/mol

CAUTION: The rotational entropy is not quite correctly treated here
         because it includes a symmetry number that is not yet correctly
         implemented in ORCA!
For a nonlinear molecule the correct rotational entropy is:
    S(rot) = R*(ln(qrot/sn)+1.5)
    R    = 8.31441 J/mol/K = 1.987191683e-3 kcal/mol/K
    qrot = 205447.0650371
    sn is the rotational symmetry number. We have assumed 3 here
       if it is different for your molecule then you should correct
       the printed rotational entropy by manually evaluating the equation
       as given above

For convenience we print out the resulting values for sn=1 - 12:
 sn= 1  qrot/sn=  205447.0650 T*S(rot)=     8.14 kcal/mol T*S(tot)=    24.83 kcal/mol
 sn= 2  qrot/sn=  102723.5325 T*S(rot)=     7.73 kcal/mol T*S(tot)=    24.42 kcal/mol
 sn= 3  qrot/sn=   68482.3550 T*S(rot)=     7.49 kcal/mol T*S(tot)=    24.18 kcal/mol
 sn= 4  qrot/sn=   51361.7663 T*S(rot)=     7.32 kcal/mol T*S(tot)=    24.01 kcal/mol
 sn= 5  qrot/sn=   41089.4130 T*S(rot)=     7.18 kcal/mol T*S(tot)=    23.88 kcal/mol
 sn= 6  qrot/sn=   34241.1775 T*S(rot)=     7.07 kcal/mol T*S(tot)=    23.77 kcal/mol
 sn= 7  qrot/sn=   29349.5807 T*S(rot)=     6.98 kcal/mol T*S(tot)=    23.68 kcal/mol
 sn= 8  qrot/sn=   25680.8831 T*S(rot)=     6.90 kcal/mol T*S(tot)=    23.60 kcal/mol
 sn= 9  qrot/sn=   22827.4517 T*S(rot)=     6.83 kcal/mol T*S(tot)=    23.53 kcal/mol
 sn=10  qrot/sn=   20544.7065 T*S(rot)=     6.77 kcal/mol T*S(tot)=    23.47 kcal/mol
 sn=11  qrot/sn=   18677.0059 T*S(rot)=     6.72 kcal/mol T*S(tot)=    23.41 kcal/mol
 sn=12  qrot/sn=   17120.5888 T*S(rot)=     6.66 kcal/mol T*S(tot)=    23.36 kcal/mol

-------------------
GIBBS FREE ENTHALPY
-------------------

The Gibbs free enthalpy is G = H - T*S

Total enthalpy                    ...   -327.03173159 Eh
Total entropy correction          ...     -0.03853282 Eh    -24.18 kcal/mol
-----------------------------------------------------------------------
Final Gibbs free enthalpy         ...   -327.07026441 Eh

For completeness - the Gibbs free enthalpy minus the electronic energy
G-E(el)                           ...      0.14635449 Eh     91.84 kcal/mol

                             ****ORCA TERMINATED NORMALLY****
TOTAL RUN TIME: 0 days 0 hours 41 minutes 59 seconds 507 msec
