                         Program Version 3.0.3 - RELEASE   -
|  1> ! NORI PBE0 def2-TZVP UseSym TightOPT Freq TightSCF Grid3 FinalGrid5 XYZFile
|  2> % pal
|  3>     nprocs 8
|  4> end
|  5> %method
|  6>     SymThresh 5.0e-2
|  7> end
|  8> % geom
|  9>     MaxIter 10
| 10> end
| 11> % maxcore 2000
| 12> % output
| 13>     printlevel mini
| 14>     print[ P_Basis ] 0
| 15>     print[ P_SCFInfo ] 1
| 16>     print[ P_SCFIterInfo ] 1
| 17>     print[ P_OrbEn ] 0
| 18>     print[ P_Cartesian ] 0
| 19> end
| 20> % elprop
| 21>     Dipole false
| 22> end
| 23> *xyz 1 1
| 24>  C        1.0275034949    -0.1620301707    -0.0278563850
| 25>  C        2.5124945938    -0.0197954512    -0.0241565072
| 26>  N        3.2534016895    -0.5232477440    -1.2274126778
| 27>  C        3.2274663859     0.9342671791    -0.8897891554
| 28>  C        4.5194810300     1.5544500466    -0.4909857068
| 29>  C        5.1529308847     2.5680636504    -1.3353218130
| 30>  O        4.3957504336     2.9197668963    -0.1896588467
| 31>  H        0.7274362143    -1.1799411964     0.2246400360
| 32>  H        0.5930006474     0.1149723119    -0.9910603233
| 33>  H        0.6141542509     0.5082084306     0.7283537498
| 34>  H        3.0281374218    -0.3074787304     0.8875414899
| 35>  H        4.1224158014    -1.0292096263    -1.0917979493
| 36>  H        2.7095471779    -0.8406408850    -2.0228627432
| 37>  H        2.6306478158     1.5097008229    -1.5904000821
| 38>  H        5.1302892825     0.9734671064     0.2024595798
| 39>  H        4.7053854692     2.8346612988    -2.2890133900
| 40>  H        6.2244474063     2.7205660610    -1.2489192756
| 41> *
| 42>
| 43>                          ****END OF INPUT****
 Total Charge           Charge          ....    1
 Multiplicity           Mult            ....    1
 Number of Electrons    NEL             ....   54
FINAL SINGLE POINT ENERGY      -325.953158513776

CARTESIAN COORDINATES (ANGSTROEM)
---------------------------------
  C     -1.883488   -0.014600   -2.003198
  C     -0.726909   -0.534732   -1.217553
  N      0.631997    0.000254   -1.560557
  C      0.003350    0.281485   -0.232206
  C      0.661283   -0.314543    0.961690
  C      1.297672    0.537716    1.966494
  O      0.000159    0.000182    2.159115
  H     -1.948723   -0.499447   -2.978303
  H     -1.830561    1.067892   -2.139912
  H     -2.801294   -0.235945   -1.454904
  H     -0.684849   -1.609137   -1.063854
  H      1.417846   -0.640928   -1.590524
  H      0.689409    0.757166   -2.233511
  H     -0.297863    1.319238   -0.129226
  H      0.978658   -1.353790    0.858834
  H      1.338521    1.613378    1.816288
  H      2.075189    0.110884    2.592447

FINAL SINGLE POINT ENERGY      -325.953158926226
                    ***********************HURRAY********************
 Multiplicity           Mult            ....    1
 Number of Electrons    NEL             ....   54
 Basis Dimension        Dim             ....  277
FINAL SINGLE POINT ENERGY      -325.953159099996

VIBRATIONAL FREQUENCIES
-----------------------

   0:         0.00 cm**-1
   1:         0.00 cm**-1
   2:         0.00 cm**-1
   3:         0.00 cm**-1
   4:         0.00 cm**-1
   5:         0.00 cm**-1
   6:        66.29 cm**-1
   7:       159.70 cm**-1
   8:       180.55 cm**-1
   9:       225.48 cm**-1
  10:       357.48 cm**-1
  11:       378.66 cm**-1
  12:       394.23 cm**-1
  13:       499.69 cm**-1
  14:       762.89 cm**-1
  15:       808.78 cm**-1
  16:       864.43 cm**-1
  17:       903.16 cm**-1
  18:       923.75 cm**-1
  19:       935.20 cm**-1
  20:       974.10 cm**-1
  21:       998.24 cm**-1
  22:      1018.73 cm**-1
  23:      1051.13 cm**-1
  24:      1101.28 cm**-1
  25:      1139.11 cm**-1
  26:      1157.34 cm**-1
  27:      1175.38 cm**-1
  28:      1179.22 cm**-1
  29:      1222.50 cm**-1
  30:      1231.58 cm**-1
  31:      1266.24 cm**-1
  32:      1302.19 cm**-1
  33:      1325.68 cm**-1
  34:      1413.26 cm**-1
  35:      1434.04 cm**-1
  36:      1472.66 cm**-1
  37:      1482.66 cm**-1
  38:      1503.20 cm**-1
  39:      1533.31 cm**-1
  40:      1625.01 cm**-1
  41:      3063.80 cm**-1
  42:      3108.43 cm**-1
  43:      3121.85 cm**-1
  44:      3143.76 cm**-1
  45:      3153.58 cm**-1
  46:      3181.80 cm**-1
  47:      3193.58 cm**-1
  48:      3221.60 cm**-1
  49:      3507.43 cm**-1
  50:      3614.21 cm**-1

IR SPECTRUM
-----------

 Mode    freq (cm**-1)   T**2         TX         TY         TZ
-------------------------------------------------------------------
   6:        66.29    0.334953  ( -0.345659  -0.375411  -0.273019)
   7:       159.70    2.203413  ( -1.078575   0.860034  -0.548115)
   8:       180.55    0.509728  (  0.411433  -0.578962   0.072486)
   9:       225.48    0.531457  ( -0.069115  -0.703652  -0.177633)
  10:       357.48    0.594752  ( -0.605399  -0.466141  -0.104675)
  11:       378.66    4.604674  ( -0.092300  -0.015294   2.143810)
  12:       394.23    0.396455  (  0.567738  -0.173182   0.210089)
  13:       499.69    8.204814  (  0.418960  -0.102724   2.831737)
  14:       762.89   11.715360  ( -1.337365   1.083160  -2.958645)
  15:       808.78    4.293194  (  1.773720   0.007741  -1.071004)
  16:       864.43   34.631452  (  4.511508   1.443489  -3.492003)
  17:       903.16    0.653276  ( -0.055076   0.252386   0.765861)
  18:       923.75    9.430489  (  3.034134   0.340479  -0.329538)
  19:       935.20   44.141466  ( -3.472549   2.320059   5.167223)
  20:       974.10    6.760175  ( -0.002609  -0.676018  -2.510611)
  21:       998.24   42.944503  (  4.491031   4.155759   2.346233)
  22:      1018.73   64.432953  (  3.837095   3.311140   6.224629)
  23:      1051.13    3.230962  (  1.231581   0.936512  -0.914940)
  24:      1101.28    2.111439  (  0.265904   0.200476  -1.414406)
  25:      1139.11    7.102511  ( -1.432095   0.657504   2.149257)
  26:      1157.34    2.405003  ( -0.911156   1.133720   0.538031)
  27:      1175.38    1.794651  ( -0.653259  -0.612488   0.996375)
  28:      1179.22    1.241916  (  0.861867  -0.706247  -0.017794)
  29:      1222.50    1.457762  ( -0.442046   1.068861  -0.346256)
  30:      1231.58    3.058656  ( -0.966546  -0.013556  -1.457485)
  31:      1266.24    1.518877  ( -0.486973   1.026372   0.477801)
  32:      1302.19   12.624052  ( -3.063332  -1.781089  -0.260326)
  33:      1325.68    7.993494  ( -0.129777   0.339332  -2.803838)
  34:      1413.26    3.507353  (  0.231112  -1.540693   1.039330)
  35:      1434.04   15.129564  (  3.816338  -0.656003  -0.367134)
  36:      1472.66    9.805164  ( -1.195541   1.191053   2.637658)
  37:      1482.66    8.608140  (  1.012124   2.753831   0.012605)
  38:      1503.20    8.098871  (  0.352805   2.792513  -0.419849)
  39:      1533.31    2.707474  ( -0.947574   0.622180   1.192673)
  40:      1625.01   69.927945  ( -6.359072  -0.714819   5.383232)
  41:      3063.80    2.127014  (  1.031181   0.961244  -0.373751)
  42:      3108.43    8.533225  ( -0.886731   2.247536   1.641802)
  43:      3121.85    5.560822  (  1.736872   1.491605  -0.564989)
  44:      3143.76    1.473679  ( -0.195208   1.166652   0.272940)
  45:      3153.58    1.429545  (  1.032102   0.510473   0.322069)
  46:      3181.80    0.900937  (  0.932876   0.174924   0.008978)
  47:      3193.58    2.144405  (  0.091396  -1.366364  -0.518750)
  48:      3221.60    1.737732  ( -0.500046   1.144623  -0.421338)
  49:      3507.43  101.540748  (  7.407705   0.738860  -6.791225)
  50:      3614.21  114.079485  ( -4.523384   8.531409  -4.564378)

--------------------------
THERMOCHEMISTRY AT 298.15K
--------------------------

Temperature         ... 298.15 K
Pressure            ... 1.00 atm
Total Mass          ... 100.14 AMU

Throughout the following assumptions are being made:
  (1) The electronic state is orbitally nondegenerate
  (2) There are no thermally accessible electronically excited states
  (3) Hindered rotations indicated by low frequency modes) are not
      treated as such but are treated as vibrations and this may
      case some error
  (4) All equations used are the standard statistical mechanics
      equations for an ideal gas
  (5) All vibrations are strinctly harmonic

------------
INNER ENERGY
------------

The inner energy is: U= E(el) + E(ZPE) + E(vib) + E(rot) + E(trans)
    E(el)   - is the total energy from the electronic structure calculation
              = E(kin-el) + E(nuc-el) + E(el-el) + E(nuc-nuc)
    E(ZPE)  - the the zero temperature vibrational energy from the frequency calculation
    E(vib)  - the the finite temperature correction to E(ZPE) due to population
              of excietd vibrational states
    E(rot)  - is the rotational thermal energy
    E(trans)- is the translational thermal energy

Summary of contributions to the inner energy U:
Electronic energy                ...   -325.95315910 Eh
Zero point energy                ...      0.15121837 Eh      94.89 kcal/mol
Thermal vibrational correction   ...      0.00448777 Eh       2.82 kcal/mol
Thermal rotational correction    ...      0.00141627 Eh       0.89 kcal/mol
Thermal translational correction ...      0.00141627 Eh       0.89 kcal/mol
-----------------------------------------------------------------------
Total thermal energy                   -325.79462041 Eh

Summary of corrections to the electronic energy:
(perhaps to be used in another calculation)
Total thermal correction                  0.00732031 Eh       4.59 kcal/mol
Non-thermal (ZPE) correction              0.15121837 Eh      94.89 kcal/mol
-----------------------------------------------------------------------
Total correction                          0.15853869 Eh      99.48 kcal/mol

--------
ENTHALPY
--------

The enthalpy is H = U + kB*T
                kB is Boltzmann's constant
Total free energy                 ...   -325.79462041 Eh
Thermal Enthalpy correction       ...      0.00094421 Eh       0.59 kcal/mol
-----------------------------------------------------------------------
Total Enthalpy                    ...   -325.79367620 Eh

-------
ENTROPY
-------

The entropy contributions are T*S = T*(S(el)+S(vib)+S(rot)+S(trans)
     S(el)   - electronic entropy
     S(vib)  - vibrational entropy
     S(rot)  - rotational entropy
     S(trans)- translational entropy
The entropies will be listed as mutliplied by the temperature to get
units of energy

Electronic entropy                ...      0.00000000 Eh      0.00 kcal/mol
Vibrational entropy               ...      0.00794400 Eh      4.98 kcal/mol
Rotational entropy                ...      0.01206471 Eh      7.57 kcal/mol
Translational entropy             ...      0.01887324 Eh     11.84 kcal/mol
-----------------------------------------------------------------------
Final entropy term                ...      0.03888194 Eh     24.40 kcal/mol

CAUTION: The rotational entropy is not quite correctly treated here
         because it includes a symmetry number that is not yet correctly
         implemented in ORCA!
For a nonlinear molecule the correct rotational entropy is:
    S(rot) = R*(ln(qrot/sn)+1.5)
    R    = 8.31441 J/mol/K = 1.987191683e-3 kcal/mol/K
    qrot = 237179.0992066
    sn is the rotational symmetry number. We have assumed 3 here
       if it is different for your molecule then you should correct
       the printed rotational entropy by manually evaluating the equation
       as given above

For convenience we print out the resulting values for sn=1 - 12:
 sn= 1  qrot/sn=  237179.0992 T*S(rot)=     8.22 kcal/mol T*S(tot)=    25.05 kcal/mol
 sn= 2  qrot/sn=  118589.5496 T*S(rot)=     7.81 kcal/mol T*S(tot)=    24.64 kcal/mol
 sn= 3  qrot/sn=   79059.6997 T*S(rot)=     7.57 kcal/mol T*S(tot)=    24.40 kcal/mol
 sn= 4  qrot/sn=   59294.7748 T*S(rot)=     7.40 kcal/mol T*S(tot)=    24.23 kcal/mol
 sn= 5  qrot/sn=   47435.8198 T*S(rot)=     7.27 kcal/mol T*S(tot)=    24.10 kcal/mol
 sn= 6  qrot/sn=   39529.8499 T*S(rot)=     7.16 kcal/mol T*S(tot)=    23.99 kcal/mol
 sn= 7  qrot/sn=   33882.7285 T*S(rot)=     7.07 kcal/mol T*S(tot)=    23.90 kcal/mol
 sn= 8  qrot/sn=   29647.3874 T*S(rot)=     6.99 kcal/mol T*S(tot)=    23.82 kcal/mol
 sn= 9  qrot/sn=   26353.2332 T*S(rot)=     6.92 kcal/mol T*S(tot)=    23.75 kcal/mol
 sn=10  qrot/sn=   23717.9099 T*S(rot)=     6.86 kcal/mol T*S(tot)=    23.69 kcal/mol
 sn=11  qrot/sn=   21561.7363 T*S(rot)=     6.80 kcal/mol T*S(tot)=    23.63 kcal/mol
 sn=12  qrot/sn=   19764.9249 T*S(rot)=     6.75 kcal/mol T*S(tot)=    23.58 kcal/mol

-------------------
GIBBS FREE ENTHALPY
-------------------

The Gibbs free enthalpy is G = H - T*S

Total enthalpy                    ...   -325.79367620 Eh
Total entropy correction          ...     -0.03888194 Eh    -24.40 kcal/mol
-----------------------------------------------------------------------
Final Gibbs free enthalpy         ...   -325.83255814 Eh

For completeness - the Gibbs free enthalpy minus the electronic energy
G-E(el)                           ...      0.12060096 Eh     75.68 kcal/mol

                             ****ORCA TERMINATED NORMALLY****
TOTAL RUN TIME: 0 days 0 hours 32 minutes 25 seconds 242 msec
