                         Program Version 3.0.3 - RELEASE   -
|  1> ! NORI PBE0 def2-TZVP UseSym TightOPT Freq TightSCF Grid3 FinalGrid5 XYZFile
|  2> % pal
|  3>     nprocs 8
|  4> end
|  5> %method
|  6>     SymThresh 5.0e-2
|  7> end
|  8> % geom
|  9>     MaxIter 10
| 10> end
| 11> % maxcore 2000
| 12> % output
| 13>     printlevel mini
| 14>     print[ P_Basis ] 0
| 15>     print[ P_SCFInfo ] 1
| 16>     print[ P_SCFIterInfo ] 1
| 17>     print[ P_OrbEn ] 0
| 18>     print[ P_Cartesian ] 0
| 19> end
| 20> % elprop
| 21>     Dipole false
| 22> end
| 23> *xyz 1 1
| 24>  C        0.7823848118    -0.1242284984    -0.3564940250
| 25>  C        2.2489490957    -0.2005528173    -0.0865380676
| 26>  N        3.0591751848    -1.0430932612    -1.0042913961
| 27>  C        3.2581189715     0.4375281301    -0.9556815712
| 28>  C        4.5929078455     0.9047435682    -0.4258718240
| 29>  C        5.7822225396     0.1517733158    -0.9904064832
| 30>  O        5.6707180301    -1.1963925787    -0.5386664869
| 31>  H        0.3707801529     0.7448357422     0.1596397050
| 32>  H        0.2674473372    -1.0108939138     0.0171192855
| 33>  H        0.5709192727    -0.0107814264    -1.4224265579
| 34>  H        2.5456649883    -0.3509404281     0.9466402037
| 35>  H        3.8809759039    -1.5629442539    -0.6672245495
| 36>  H        2.5927899812    -1.4331491016    -1.8148108596
| 37>  H        2.8867957441     0.9199927847    -1.8540287863
| 38>  H        4.6922583561     1.9670838495    -0.6592981243
| 39>  H        4.6152572899     0.8133176082     0.6634384239
| 40>  H        5.7987603054     0.1930823470    -2.0861012071
| 41>  H        6.7035702499     0.6065898415    -0.6174289199
| 42>  H        6.4778339393    -1.6829409079    -0.7287687596
| 43> *
| 44>
| 45>                          ****END OF INPUT****
 Total Charge           Charge          ....    1
 Multiplicity           Mult            ....    1
 Number of Electrons    NEL             ....   56
FINAL SINGLE POINT ENERGY      -327.214323155270
FINAL SINGLE POINT ENERGY      -327.214324045871
FINAL SINGLE POINT ENERGY      -327.214324935736

CARTESIAN COORDINATES (ANGSTROEM)
---------------------------------
  C      1.023630   -0.772470   -2.609028
  C      0.399801   -0.776540   -1.252463
  N      1.091359   -0.000092   -0.190408
  C     -0.263163    0.408179   -0.671747
  C     -1.382299    0.285799    0.335032
  C     -1.041285    0.823902    1.711672
  O      0.001150    0.000574    2.231027
  H      0.281624   -1.094713   -3.341606
  H      1.865139   -1.465376   -2.656448
  H      1.365101    0.224717   -2.896339
  H      0.060026   -1.736519   -0.876713
  H      1.083112   -0.311464    0.790673
  H      1.885228    0.565743   -0.466146
  H     -0.221316    1.320938   -1.257171
  H     -2.248042    0.821803   -0.059579
  H     -1.675972   -0.761746    0.440326
  H     -0.719886    1.871248    1.663730
  H     -1.928299    0.768113    2.347996
  H      0.148946    0.191317    3.161608

FINAL SINGLE POINT ENERGY      -327.214325230756
                    ***********************HURRAY********************
 Multiplicity           Mult            ....    1
 Number of Electrons    NEL             ....   56
 Basis Dimension        Dim             ....  289
FINAL SINGLE POINT ENERGY      -327.214325431532

VIBRATIONAL FREQUENCIES
-----------------------

   0:         0.00 cm**-1
   1:         0.00 cm**-1
   2:         0.00 cm**-1
   3:         0.00 cm**-1
   4:         0.00 cm**-1
   5:         0.00 cm**-1
   6:        43.13 cm**-1
   7:       178.15 cm**-1
   8:       199.37 cm**-1
   9:       223.68 cm**-1
  10:       264.07 cm**-1
  11:       311.17 cm**-1
  12:       343.72 cm**-1
  13:       421.67 cm**-1
  14:       434.92 cm**-1
  15:       533.44 cm**-1
  16:       756.41 cm**-1
  17:       833.18 cm**-1
  18:       867.00 cm**-1
  19:       878.54 cm**-1
  20:       933.37 cm**-1
  21:       950.79 cm**-1
  22:       987.32 cm**-1
  23:      1033.96 cm**-1
  24:      1048.71 cm**-1
  25:      1080.89 cm**-1
  26:      1113.19 cm**-1
  27:      1139.85 cm**-1
  28:      1158.55 cm**-1
  29:      1173.70 cm**-1
  30:      1226.00 cm**-1
  31:      1236.06 cm**-1
  32:      1261.97 cm**-1
  33:      1281.30 cm**-1
  34:      1331.23 cm**-1
  35:      1346.64 cm**-1
  36:      1390.60 cm**-1
  37:      1422.49 cm**-1
  38:      1445.19 cm**-1
  39:      1464.86 cm**-1
  40:      1472.10 cm**-1
  41:      1475.72 cm**-1
  42:      1497.54 cm**-1
  43:      1518.51 cm**-1
  44:      1641.03 cm**-1
  45:      3037.32 cm**-1
  46:      3063.10 cm**-1
  47:      3077.41 cm**-1
  48:      3102.77 cm**-1
  49:      3131.36 cm**-1
  50:      3142.39 cm**-1
  51:      3151.99 cm**-1
  52:      3184.05 cm**-1
  53:      3191.38 cm**-1
  54:      3291.39 cm**-1
  55:      3585.16 cm**-1
  56:      3864.61 cm**-1

IR SPECTRUM
-----------

 Mode    freq (cm**-1)   T**2         TX         TY         TZ
-------------------------------------------------------------------
   6:        43.13    4.264118  ( -0.002237   1.800991   1.010220)
   7:       178.15    5.298666  ( -1.137681  -1.872172   0.706627)
   8:       199.37   15.455846  ( -2.142839  -0.674819   3.226253)
   9:       223.68    3.478240  ( -0.394879  -1.759418   0.476191)
  10:       264.07   19.166121  ( -2.111777  -2.092469   3.213735)
  11:       311.17   96.196661  (  5.769123   7.806649  -1.403609)
  12:       343.72   14.552849  (  1.919177   1.308014  -3.026335)
  13:       421.67   13.241352  ( -3.590620   0.590385   0.015768)
  14:       434.92    3.587873  ( -0.235667  -0.830221  -1.686140)
  15:       533.44   15.611913  ( -0.246544  -0.456952   3.916928)
  16:       756.41    1.829078  ( -0.568922  -0.486755   1.126266)
  17:       833.18    1.181618  (  0.314087  -0.059150  -1.038975)
  18:       867.00    9.355845  ( -1.766851  -0.840121   2.351229)
  19:       878.54   27.452797  (  4.885003  -1.118654   1.529104)
  20:       933.37   13.710960  (  2.942744  -1.542143   1.634935)
  21:       950.79    2.139194  ( -0.908339   1.139653   0.123711)
  22:       987.32   39.507764  (  2.689748  -4.642634  -3.273984)
  23:      1033.96    8.673805  ( -1.354287   1.481014   2.155530)
  24:      1048.71   95.443667  ( -6.100291   6.650460   3.741859)
  25:      1080.89   26.828429  ( -4.535480   2.498079   0.132119)
  26:      1113.19   39.162793  (  3.175991  -0.596337   5.359128)
  27:      1139.85    6.909957  ( -1.134201   0.676308   2.272917)
  28:      1158.55    4.025131  ( -1.042565  -0.704155   1.562803)
  29:      1173.70    5.603686  (  1.602025  -1.469703  -0.936577)
  30:      1226.00   45.396497  ( -4.124566   4.445387  -2.936493)
  31:      1236.06    3.102645  (  0.207382  -0.461966   1.687076)
  32:      1261.97    0.146223  (  0.298604  -0.222364   0.087250)
  33:      1281.30    7.248450  ( -1.402472   0.778945  -2.162121)
  34:      1331.23   37.624040  (  4.218299  -4.094338  -1.751111)
  35:      1346.64    4.446490  (  1.614823   0.058811  -1.354761)
  36:      1390.60    3.812658  ( -0.497398  -0.534612  -1.810923)
  37:      1422.49    9.205951  ( -0.250811  -0.960223   2.867232)
  38:      1445.19    8.781669  ( -0.653163   1.814417   2.250097)
  39:      1464.86    4.866971  ( -1.369979   1.572572   0.719128)
  40:      1472.10   17.644196  ( -2.243613  -3.422422  -0.947325)
  41:      1475.72   11.124867  (  2.884952   0.423003   1.619564)
  42:      1497.54    9.366696  ( -0.599900  -2.794381   1.094647)
  43:      1518.51    5.079891  (  0.334888   1.472901   1.672813)
  44:      1641.03   51.414816  ( -6.862721  -0.672342  -1.966170)
  45:      3037.32   25.739753  (  1.391629  -4.832946  -0.667652)
  46:      3063.10    1.687046  (  0.781463   1.031608  -0.110206)
  47:      3077.41    2.378022  (  0.271922  -1.376047  -0.640761)
  48:      3102.77   11.041624  ( -2.754049  -1.214982   1.407358)
  49:      3131.36    1.601854  ( -0.350702  -1.208570  -0.134987)
  50:      3142.39    2.520800  (  0.010312  -1.587414   0.028456)
  51:      3151.99    0.779941  (  0.431886  -0.522699  -0.565863)
  52:      3184.05    0.138896  ( -0.285421  -0.196638   0.136984)
  53:      3191.38    1.085764  (  0.655900  -0.517647  -0.622576)
  54:      3291.39  406.298922  ( -0.922852   0.211813  20.134607)
  55:      3585.16  120.964465  (  8.491645   4.555833  -5.301020)
  56:      3864.61  113.822581  ( -2.702558  -0.510345 -10.308167)

--------------------------
THERMOCHEMISTRY AT 298.15K
--------------------------

Temperature         ... 298.15 K
Pressure            ... 1.00 atm
Total Mass          ... 102.16 AMU

Throughout the following assumptions are being made:
  (1) The electronic state is orbitally nondegenerate
  (2) There are no thermally accessible electronically excited states
  (3) Hindered rotations indicated by low frequency modes) are not
      treated as such but are treated as vibrations and this may
      case some error
  (4) All equations used are the standard statistical mechanics
      equations for an ideal gas
  (5) All vibrations are strinctly harmonic

------------
INNER ENERGY
------------

The inner energy is: U= E(el) + E(ZPE) + E(vib) + E(rot) + E(trans)
    E(el)   - is the total energy from the electronic structure calculation
              = E(kin-el) + E(nuc-el) + E(el-el) + E(nuc-nuc)
    E(ZPE)  - the the zero temperature vibrational energy from the frequency calculation
    E(vib)  - the the finite temperature correction to E(ZPE) due to population
              of excietd vibrational states
    E(rot)  - is the rotational thermal energy
    E(trans)- is the translational thermal energy

Summary of contributions to the inner energy U:
Electronic energy                ...   -327.21432543 Eh
Zero point energy                ...      0.17483329 Eh     109.71 kcal/mol
Thermal vibrational correction   ...      0.00524785 Eh       3.29 kcal/mol
Thermal rotational correction    ...      0.00141627 Eh       0.89 kcal/mol
Thermal translational correction ...      0.00141627 Eh       0.89 kcal/mol
-----------------------------------------------------------------------
Total thermal energy                   -327.03141176 Eh

Summary of corrections to the electronic energy:
(perhaps to be used in another calculation)
Total thermal correction                  0.00808039 Eh       5.07 kcal/mol
Non-thermal (ZPE) correction              0.17483329 Eh     109.71 kcal/mol
-----------------------------------------------------------------------
Total correction                          0.18291368 Eh     114.78 kcal/mol

--------
ENTHALPY
--------

The enthalpy is H = U + kB*T
                kB is Boltzmann's constant
Total free energy                 ...   -327.03141176 Eh
Thermal Enthalpy correction       ...      0.00094421 Eh       0.59 kcal/mol
-----------------------------------------------------------------------
Total Enthalpy                    ...   -327.03046755 Eh

-------
ENTROPY
-------

The entropy contributions are T*S = T*(S(el)+S(vib)+S(rot)+S(trans)
     S(el)   - electronic entropy
     S(vib)  - vibrational entropy
     S(rot)  - rotational entropy
     S(trans)- translational entropy
The entropies will be listed as mutliplied by the temperature to get
units of energy

Electronic entropy                ...      0.00000000 Eh      0.00 kcal/mol
Vibrational entropy               ...      0.00942042 Eh      5.91 kcal/mol
Rotational entropy                ...      0.01210580 Eh      7.60 kcal/mol
Translational entropy             ...      0.01890147 Eh     11.86 kcal/mol
-----------------------------------------------------------------------
Final entropy term                ...      0.04042769 Eh     25.37 kcal/mol

CAUTION: The rotational entropy is not quite correctly treated here
         because it includes a symmetry number that is not yet correctly
         implemented in ORCA!
For a nonlinear molecule the correct rotational entropy is:
    S(rot) = R*(ln(qrot/sn)+1.5)
    R    = 8.31441 J/mol/K = 1.987191683e-3 kcal/mol/K
    qrot = 247731.2295930
    sn is the rotational symmetry number. We have assumed 3 here
       if it is different for your molecule then you should correct
       the printed rotational entropy by manually evaluating the equation
       as given above

For convenience we print out the resulting values for sn=1 - 12:
 sn= 1  qrot/sn=  247731.2296 T*S(rot)=     8.25 kcal/mol T*S(tot)=    26.02 kcal/mol
 sn= 2  qrot/sn=  123865.6148 T*S(rot)=     7.84 kcal/mol T*S(tot)=    25.61 kcal/mol
 sn= 3  qrot/sn=   82577.0765 T*S(rot)=     7.60 kcal/mol T*S(tot)=    25.37 kcal/mol
 sn= 4  qrot/sn=   61932.8074 T*S(rot)=     7.43 kcal/mol T*S(tot)=    25.20 kcal/mol
 sn= 5  qrot/sn=   49546.2459 T*S(rot)=     7.29 kcal/mol T*S(tot)=    25.07 kcal/mol
 sn= 6  qrot/sn=   41288.5383 T*S(rot)=     7.19 kcal/mol T*S(tot)=    24.96 kcal/mol
 sn= 7  qrot/sn=   35390.1757 T*S(rot)=     7.09 kcal/mol T*S(tot)=    24.87 kcal/mol
 sn= 8  qrot/sn=   30966.4037 T*S(rot)=     7.02 kcal/mol T*S(tot)=    24.79 kcal/mol
 sn= 9  qrot/sn=   27525.6922 T*S(rot)=     6.95 kcal/mol T*S(tot)=    24.72 kcal/mol
 sn=10  qrot/sn=   24773.1230 T*S(rot)=     6.88 kcal/mol T*S(tot)=    24.66 kcal/mol
 sn=11  qrot/sn=   22521.0209 T*S(rot)=     6.83 kcal/mol T*S(tot)=    24.60 kcal/mol
 sn=12  qrot/sn=   20644.2691 T*S(rot)=     6.78 kcal/mol T*S(tot)=    24.55 kcal/mol

-------------------
GIBBS FREE ENTHALPY
-------------------

The Gibbs free enthalpy is G = H - T*S

Total enthalpy                    ...   -327.03046755 Eh
Total entropy correction          ...     -0.04042769 Eh    -25.37 kcal/mol
-----------------------------------------------------------------------
Final Gibbs free enthalpy         ...   -327.07089524 Eh

For completeness - the Gibbs free enthalpy minus the electronic energy
G-E(el)                           ...      0.14343020 Eh     90.00 kcal/mol

                             ****ORCA TERMINATED NORMALLY****
TOTAL RUN TIME: 0 days 0 hours 37 minutes 8 seconds 441 msec
