                         Program Version 3.0.3 - RELEASE   -
|  1> ! NORI PBE0 def2-TZVP UseSym TightOPT Freq TightSCF Grid3 FinalGrid5 XYZFile
|  2> % pal
|  3>     nprocs 8
|  4> end
|  5> %method
|  6>     SymThresh 5.0e-2
|  7> end
|  8> % geom
|  9>     MaxIter 10
| 10> end
| 11> % maxcore 2000
| 12> % output
| 13>     printlevel mini
| 14>     print[ P_Basis ] 0
| 15>     print[ P_SCFInfo ] 1
| 16>     print[ P_SCFIterInfo ] 1
| 17>     print[ P_OrbEn ] 0
| 18>     print[ P_Cartesian ] 0
| 19> end
| 20> % elprop
| 21>     Dipole false
| 22> end
| 23> *xyz 1 1
| 24>  C        0.8689597354    -0.2566131106    -0.1165846292
| 25>  C        2.3525980120    -0.4246588164    -0.1340936789
| 26>  N        2.9723523109    -1.0988728228    -1.3187238014
| 27>  C        3.2859075807     0.3327652096    -0.9969238850
| 28>  C        2.8232977135     1.3681876369    -1.9743180510
| 29>  C        4.7146424590     0.4877956941    -0.5236726021
| 30>  O        5.0816944163    -0.7063656605     0.1200578304
| 31>  H        0.3842344641    -1.1887816904     0.1782929642
| 32>  H        0.4599328444     0.0634669339    -1.0746395933
| 33>  H        0.6112723911     0.4989449216     0.6284287508
| 34>  H        2.7952105004    -0.8148261457     0.7764052522
| 35>  H        3.7230347605    -1.7575235083    -1.1193700386
| 36>  H        2.3871999012    -1.3032712306    -2.1203192078
| 37>  H        3.4830145162     1.4027050820    -2.8431364957
| 38>  H        2.8539722053     2.3471369600    -1.4906855681
| 39>  H        1.8024886177     1.2036729388    -2.3162204412
| 40>  H        4.7523832112     1.3527499873     0.1494900455
| 41>  H        5.3557151644     0.6950134128    -1.3888578837
| 42>  H        5.9845091957    -0.6527057917     0.4450510330
| 43> *
| 44>
| 45>                          ****END OF INPUT****
 Total Charge           Charge          ....    1
 Multiplicity           Mult            ....    1
 Number of Electrons    NEL             ....   56
FINAL SINGLE POINT ENERGY      -327.216512797262

CARTESIAN COORDINATES (ANGSTROEM)
---------------------------------
  C      0.114271   -1.643651   -1.755159
  C      0.129743   -0.987140   -0.413944
  N      1.217238    0.000595   -0.124553
  C     -0.221330    0.426267   -0.152458
  C     -0.631244    1.372163   -1.238129
  C     -0.714531    0.783832    1.232465
  O     -0.000438   -0.001427    2.153582
  H      0.841222   -2.456749   -1.788628
  H      0.320166   -0.955344   -2.574717
  H     -0.873712   -2.077700   -1.920903
  H      0.005315   -1.647862    0.437595
  H      1.632329   -0.047141    0.804095
  H      1.826496    0.285672   -0.882366
  H     -0.318385    2.390916   -1.002377
  H     -1.720480    1.365755   -1.317786
  H     -0.229957    1.099581   -2.213169
  H     -1.792870    0.587452    1.265159
  H     -0.553205    1.855037    1.402461
  H     -0.284219    0.187524    3.052098

FINAL SINGLE POINT ENERGY      -327.216513666901
                    ***********************HURRAY********************
 Multiplicity           Mult            ....    1
 Number of Electrons    NEL             ....   56
 Basis Dimension        Dim             ....  289
FINAL SINGLE POINT ENERGY      -327.216513949396

VIBRATIONAL FREQUENCIES
-----------------------

   0:         0.00 cm**-1
   1:         0.00 cm**-1
   2:         0.00 cm**-1
   3:         0.00 cm**-1
   4:         0.00 cm**-1
   5:         0.00 cm**-1
   6:       123.45 cm**-1
   7:       165.65 cm**-1
   8:       177.77 cm**-1
   9:       218.80 cm**-1
  10:       241.55 cm**-1
  11:       266.18 cm**-1
  12:       298.57 cm**-1
  13:       366.88 cm**-1
  14:       435.13 cm**-1
  15:       444.96 cm**-1
  16:       566.64 cm**-1
  17:       676.13 cm**-1
  18:       765.74 cm**-1
  19:       875.74 cm**-1
  20:       917.44 cm**-1
  21:       922.14 cm**-1
  22:       951.17 cm**-1
  23:      1006.42 cm**-1
  24:      1026.88 cm**-1
  25:      1055.31 cm**-1
  26:      1071.90 cm**-1
  27:      1123.73 cm**-1
  28:      1128.88 cm**-1
  29:      1174.19 cm**-1
  30:      1217.43 cm**-1
  31:      1229.03 cm**-1
  32:      1268.21 cm**-1
  33:      1312.21 cm**-1
  34:      1359.51 cm**-1
  35:      1418.50 cm**-1
  36:      1428.16 cm**-1
  37:      1444.65 cm**-1
  38:      1458.77 cm**-1
  39:      1472.20 cm**-1
  40:      1478.62 cm**-1
  41:      1489.41 cm**-1
  42:      1503.34 cm**-1
  43:      1519.59 cm**-1
  44:      1584.00 cm**-1
  45:      3032.64 cm**-1
  46:      3070.65 cm**-1
  47:      3074.32 cm**-1
  48:      3078.26 cm**-1
  49:      3145.58 cm**-1
  50:      3148.80 cm**-1
  51:      3155.93 cm**-1
  52:      3168.06 cm**-1
  53:      3195.65 cm**-1
  54:      3471.47 cm**-1
  55:      3608.65 cm**-1
  56:      3873.26 cm**-1

IR SPECTRUM
-----------

 Mode    freq (cm**-1)   T**2         TX         TY         TZ
-------------------------------------------------------------------
   6:       123.45   11.155164  ( -2.296246  -2.365589   0.535168)
   7:       165.65    2.313887  (  1.018598   1.128267   0.057963)
   8:       177.77    1.498896  (  0.764568   0.950532  -0.104023)
   9:       218.80   11.720829  ( -2.677634  -2.132279   0.067052)
  10:       241.55    6.035069  ( -0.227973  -1.053983  -2.207310)
  11:       266.18  111.843542  (  6.935660   7.969655   0.474088)
  12:       298.57    7.584424  ( -0.669719   0.294341   2.655045)
  13:       366.88    2.745850  (  0.126762  -0.474627   1.582565)
  14:       435.13    6.044265  (  0.739102  -0.534704  -2.282999)
  15:       444.96    0.309445  ( -0.380770  -0.368083  -0.170217)
  16:       566.64   14.436807  ( -1.949823   1.785876  -2.728671)
  17:       676.13    6.019577  ( -0.827371  -0.596752  -2.231350)
  18:       765.74    8.897769  ( -2.863996   0.189426  -0.812041)
  19:       875.74    8.854945  (  2.780126   0.911465   0.543212)
  20:       917.44   10.441010  (  0.080606   3.187995   0.520769)
  21:       922.14   14.587998  ( -0.982615   0.768880  -3.609888)
  22:       951.17    2.348190  ( -1.018599  -0.109827   1.139554)
  23:      1006.42    7.134652  (  0.637007  -2.577951   0.288172)
  24:      1026.88   68.266283  ( -3.836968   6.984000   2.183508)
  25:      1055.31   21.139945  ( -1.508303   4.265647  -0.818059)
  26:      1071.90   15.770357  ( -0.613429   3.707873  -1.282864)
  27:      1123.73   14.163531  ( -0.634547  -2.654699   2.591034)
  28:      1128.88   53.057406  (  4.285757  -1.049288   5.795575)
  29:      1174.19   37.558409  ( -4.409357   3.939253  -1.611914)
  30:      1217.43   32.679045  ( -2.381681   2.481266  -4.566176)
  31:      1229.03    2.265966  (  1.101425  -0.732825   0.718190)
  32:      1268.21    1.882796  ( -1.265733  -0.356983   0.391510)
  33:      1312.21    8.068953  (  1.332626  -1.568116  -1.958079)
  34:      1359.51    7.229508  ( -2.010677   1.676639  -0.612837)
  35:      1418.50    6.804192  (  1.236585   0.730962   2.177325)
  36:      1428.16   12.378038  (  1.318615  -0.679174   3.190300)
  37:      1444.65    1.066768  ( -0.544214   0.576563  -0.661948)
  38:      1458.77    1.901046  ( -0.780063  -0.623019   0.950997)
  39:      1472.20    8.940636  ( -0.138209   2.986748  -0.029521)
  40:      1478.62    9.142155  ( -0.190672   3.014774  -0.130140)
  41:      1489.41    9.732964  ( -2.971437  -0.924043  -0.222872)
  42:      1503.34    8.437991  (  1.844083   1.863104  -1.251476)
  43:      1519.59   17.549678  (  2.350307  -0.352815  -3.449820)
  44:      1584.00   88.849532  ( -9.328057  -1.170181   0.683784)
  45:      3032.64   18.954656  ( -2.294149   3.473695  -1.274748)
  46:      3070.65    0.123053  (  0.162838  -0.095518  -0.295658)
  47:      3074.32    1.490680  ( -0.673382  -0.775395   0.660303)
  48:      3078.26    7.335525  ( -1.625605  -2.065776  -0.652307)
  49:      3145.58    0.866056  (  0.010210   0.930275  -0.023258)
  50:      3148.80    0.396940  (  0.149527  -0.429237  -0.436276)
  51:      3155.93    3.583629  (  0.141473  -1.775504   0.641250)
  52:      3168.06    4.200520  (  0.529871  -0.043850  -1.979352)
  53:      3195.65    1.436000  (  0.198964   0.655244  -0.983397)
  54:      3471.47  107.172138  ( -7.694178  -1.373431  -6.788626)
  55:      3608.65  123.345875  (  3.894866   1.891729 -10.227280)
  56:      3873.26  141.513743  ( -1.582934   0.457911  11.781272)

--------------------------
THERMOCHEMISTRY AT 298.15K
--------------------------

Temperature         ... 298.15 K
Pressure            ... 1.00 atm
Total Mass          ... 102.16 AMU

Throughout the following assumptions are being made:
  (1) The electronic state is orbitally nondegenerate
  (2) There are no thermally accessible electronically excited states
  (3) Hindered rotations indicated by low frequency modes) are not
      treated as such but are treated as vibrations and this may
      case some error
  (4) All equations used are the standard statistical mechanics
      equations for an ideal gas
  (5) All vibrations are strinctly harmonic

------------
INNER ENERGY
------------

The inner energy is: U= E(el) + E(ZPE) + E(vib) + E(rot) + E(trans)
    E(el)   - is the total energy from the electronic structure calculation
              = E(kin-el) + E(nuc-el) + E(el-el) + E(nuc-nuc)
    E(ZPE)  - the the zero temperature vibrational energy from the frequency calculation
    E(vib)  - the the finite temperature correction to E(ZPE) due to population
              of excietd vibrational states
    E(rot)  - is the rotational thermal energy
    E(trans)- is the translational thermal energy

Summary of contributions to the inner energy U:
Electronic energy                ...   -327.21651395 Eh
Zero point energy                ...      0.17361500 Eh     108.94 kcal/mol
Thermal vibrational correction   ...      0.00561018 Eh       3.52 kcal/mol
Thermal rotational correction    ...      0.00141627 Eh       0.89 kcal/mol
Thermal translational correction ...      0.00141627 Eh       0.89 kcal/mol
-----------------------------------------------------------------------
Total thermal energy                   -327.03445622 Eh

Summary of corrections to the electronic energy:
(perhaps to be used in another calculation)
Total thermal correction                  0.00844272 Eh       5.30 kcal/mol
Non-thermal (ZPE) correction              0.17361500 Eh     108.94 kcal/mol
-----------------------------------------------------------------------
Total correction                          0.18205773 Eh     114.24 kcal/mol

--------
ENTHALPY
--------

The enthalpy is H = U + kB*T
                kB is Boltzmann's constant
Total free energy                 ...   -327.03445622 Eh
Thermal Enthalpy correction       ...      0.00094421 Eh       0.59 kcal/mol
-----------------------------------------------------------------------
Total Enthalpy                    ...   -327.03351201 Eh

-------
ENTROPY
-------

The entropy contributions are T*S = T*(S(el)+S(vib)+S(rot)+S(trans)
     S(el)   - electronic entropy
     S(vib)  - vibrational entropy
     S(rot)  - rotational entropy
     S(trans)- translational entropy
The entropies will be listed as mutliplied by the temperature to get
units of energy

Electronic entropy                ...      0.00000000 Eh      0.00 kcal/mol
Vibrational entropy               ...      0.00941022 Eh      5.90 kcal/mol
Rotational entropy                ...      0.01206329 Eh      7.57 kcal/mol
Translational entropy             ...      0.01890147 Eh     11.86 kcal/mol
-----------------------------------------------------------------------
Final entropy term                ...      0.04037498 Eh     25.34 kcal/mol

CAUTION: The rotational entropy is not quite correctly treated here
         because it includes a symmetry number that is not yet correctly
         implemented in ORCA!
For a nonlinear molecule the correct rotational entropy is:
    S(rot) = R*(ln(qrot/sn)+1.5)
    R    = 8.31441 J/mol/K = 1.987191683e-3 kcal/mol/K
    qrot = 236824.8472277
    sn is the rotational symmetry number. We have assumed 3 here
       if it is different for your molecule then you should correct
       the printed rotational entropy by manually evaluating the equation
       as given above

For convenience we print out the resulting values for sn=1 - 12:
 sn= 1  qrot/sn=  236824.8472 T*S(rot)=     8.22 kcal/mol T*S(tot)=    25.99 kcal/mol
 sn= 2  qrot/sn=  118412.4236 T*S(rot)=     7.81 kcal/mol T*S(tot)=    25.58 kcal/mol
 sn= 3  qrot/sn=   78941.6157 T*S(rot)=     7.57 kcal/mol T*S(tot)=    25.34 kcal/mol
 sn= 4  qrot/sn=   59206.2118 T*S(rot)=     7.40 kcal/mol T*S(tot)=    25.17 kcal/mol
 sn= 5  qrot/sn=   47364.9694 T*S(rot)=     7.27 kcal/mol T*S(tot)=    25.03 kcal/mol
 sn= 6  qrot/sn=   39470.8079 T*S(rot)=     7.16 kcal/mol T*S(tot)=    24.92 kcal/mol
 sn= 7  qrot/sn=   33832.1210 T*S(rot)=     7.07 kcal/mol T*S(tot)=    24.83 kcal/mol
 sn= 8  qrot/sn=   29603.1059 T*S(rot)=     6.99 kcal/mol T*S(tot)=    24.75 kcal/mol
 sn= 9  qrot/sn=   26313.8719 T*S(rot)=     6.92 kcal/mol T*S(tot)=    24.68 kcal/mol
 sn=10  qrot/sn=   23682.4847 T*S(rot)=     6.86 kcal/mol T*S(tot)=    24.62 kcal/mol
 sn=11  qrot/sn=   21529.5316 T*S(rot)=     6.80 kcal/mol T*S(tot)=    24.57 kcal/mol
 sn=12  qrot/sn=   19735.4039 T*S(rot)=     6.75 kcal/mol T*S(tot)=    24.51 kcal/mol

-------------------
GIBBS FREE ENTHALPY
-------------------

The Gibbs free enthalpy is G = H - T*S

Total enthalpy                    ...   -327.03351201 Eh
Total entropy correction          ...     -0.04037498 Eh    -25.34 kcal/mol
-----------------------------------------------------------------------
Final Gibbs free enthalpy         ...   -327.07388700 Eh

For completeness - the Gibbs free enthalpy minus the electronic energy
G-E(el)                           ...      0.14262695 Eh     89.50 kcal/mol

                             ****ORCA TERMINATED NORMALLY****
TOTAL RUN TIME: 0 days 0 hours 38 minutes 10 seconds 162 msec
