                         Program Version 3.0.3 - RELEASE   -
|  1> ! NORI PBE0 def2-TZVP UseSym TightOPT Freq TightSCF Grid3 FinalGrid5 XYZFile
|  2> % pal
|  3>     nprocs 8
|  4> end
|  5> %method
|  6>     SymThresh 5.0e-2
|  7> end
|  8> % geom
|  9>     MaxIter 10
| 10> end
| 11> % maxcore 2000
| 12> % output
| 13>     printlevel mini
| 14>     print[ P_Basis ] 0
| 15>     print[ P_SCFInfo ] 1
| 16>     print[ P_SCFIterInfo ] 1
| 17>     print[ P_OrbEn ] 0
| 18>     print[ P_Cartesian ] 0
| 19> end
| 20> % elprop
| 21>     Dipole false
| 22> end
| 23> *xyz 1 1
| 24>  C        1.0230198586     0.0017493901    -0.4600249236
| 25>  C        2.4369947015     0.2236399483    -0.0394554824
| 26>  N        3.3394702658    -0.9527685514     0.0092986853
| 27>  C        3.5804629920     0.1086559907    -0.9811518662
| 28>  C        4.8489943736     0.8688620416    -0.6214118612
| 29>  C        5.3492000050     1.8703818860    -1.5930855746
| 30>  O        5.3449069749     0.6103581742     0.4459865803
| 31>  H        0.5918223906     0.9567143893    -0.7655093557
| 32>  H        0.4291641061    -0.3807959548     0.3720917251
| 33>  H        0.9473433161    -0.6875232886    -1.3039249623
| 34>  H        2.6058070547     0.8682923542     0.8179727892
| 35>  H        4.0714533574    -0.9393279284     0.7316437236
| 36>  H        2.9958047393    -1.8566102233    -0.2960744598
| 37>  H        3.3792004860    -0.1582023294    -2.0123164108
| 38>  H        4.5414020221     2.5368210077    -1.9099482112
| 39>  H        5.7031995475     1.3543275378    -2.4923679734
| 40>  H        6.1656438088     2.4421955562    -1.1575524222
| 41> *
| 42>
| 43>                          ****END OF INPUT****
 Total Charge           Charge          ....    1
 Multiplicity           Mult            ....    1
 Number of Electrons    NEL             ....   54
FINAL SINGLE POINT ENERGY      -326.001889047912

CARTESIAN COORDINATES (ANGSTROEM)
---------------------------------
  C      0.587942   -1.138855   -2.385388
  C      0.426259   -0.872447   -0.926454
  N      1.427523   -0.000289   -0.264629
  C      0.035045    0.458288   -0.393880
  C     -0.626500    0.485560    0.976857
  C     -1.981223    1.079525    1.074476
  O     -0.000195    0.000616    1.884875
  H     -0.362718   -1.494753   -2.786542
  H      1.333306   -1.917865   -2.554372
  H      0.872565   -0.241555   -2.938856
  H      0.178369   -1.717318   -0.290742
  H      1.643131   -0.213990    0.717911
  H      2.154129    0.435352   -0.822164
  H     -0.128266    1.269887   -1.093640
  H     -2.639839    0.665706    0.304960
  H     -1.916442    2.157245    0.887782
  H     -2.397448    0.906942    2.064501

FINAL SINGLE POINT ENERGY      -326.001889626640
                    ***********************HURRAY********************
 Multiplicity           Mult            ....    1
 Number of Electrons    NEL             ....   54
 Basis Dimension        Dim             ....  277
FINAL SINGLE POINT ENERGY      -326.001889887630

VIBRATIONAL FREQUENCIES
-----------------------

   0:         0.00 cm**-1
   1:         0.00 cm**-1
   2:         0.00 cm**-1
   3:         0.00 cm**-1
   4:         0.00 cm**-1
   5:         0.00 cm**-1
   6:        94.56 cm**-1
   7:       119.23 cm**-1
   8:       170.09 cm**-1
   9:       200.81 cm**-1
  10:       231.05 cm**-1
  11:       343.66 cm**-1
  12:       358.55 cm**-1
  13:       423.75 cm**-1
  14:       585.27 cm**-1
  15:       617.43 cm**-1
  16:       777.53 cm**-1
  17:       814.26 cm**-1
  18:       870.11 cm**-1
  19:       931.76 cm**-1
  20:       964.52 cm**-1
  21:       984.19 cm**-1
  22:      1009.78 cm**-1
  23:      1047.32 cm**-1
  24:      1073.98 cm**-1
  25:      1098.64 cm**-1
  26:      1127.41 cm**-1
  27:      1187.58 cm**-1
  28:      1219.52 cm**-1
  29:      1238.21 cm**-1
  30:      1263.34 cm**-1
  31:      1352.78 cm**-1
  32:      1393.12 cm**-1
  33:      1416.50 cm**-1
  34:      1440.44 cm**-1
  35:      1448.25 cm**-1
  36:      1455.93 cm**-1
  37:      1472.23 cm**-1
  38:      1490.88 cm**-1
  39:      1561.63 cm**-1
  40:      1826.54 cm**-1
  41:      3049.38 cm**-1
  42:      3065.92 cm**-1
  43:      3113.23 cm**-1
  44:      3147.61 cm**-1
  45:      3152.60 cm**-1
  46:      3185.26 cm**-1
  47:      3186.68 cm**-1
  48:      3208.69 cm**-1
  49:      3347.22 cm**-1
  50:      3581.73 cm**-1

IR SPECTRUM
-----------

 Mode    freq (cm**-1)   T**2         TX         TY         TZ
-------------------------------------------------------------------
   6:        94.56    8.012335  ( -0.548031  -2.750536  -0.382818)
   7:       119.23    0.081566  (  0.038669  -0.274708   0.067865)
   8:       170.09    4.383238  (  1.459532   1.401400  -0.537663)
   9:       200.81    6.509542  ( -1.735108   0.568204   1.782157)
  10:       231.05    2.786178  (  0.781521   0.171816  -1.464883)
  11:       343.66   12.246474  (  2.361833  -0.484576  -2.536416)
  12:       358.55    6.270303  ( -2.262815   0.946890  -0.503362)
  13:       423.75   19.935671  ( -3.385410   1.746683   2.328898)
  14:       585.27    1.877099  (  0.529928  -0.693722  -1.055947)
  15:       617.43   13.261114  ( -2.323374   0.613207   2.736243)
  16:       777.53    8.307213  ( -1.686438   0.779616   2.203483)
  17:       814.26    2.058587  (  1.324535  -0.530675   0.150259)
  18:       870.11   21.581674  (  4.520430   0.467351  -0.963832)
  19:       931.76    8.945153  ( -1.238764  -1.655292  -2.161163)
  20:       964.52   13.726782  ( -1.616024   2.893924   1.655431)
  21:       984.19    5.410588  (  0.267882  -2.206652  -0.685212)
  22:      1009.78    1.133147  (  0.300812  -0.320989  -0.969342)
  23:      1047.32   40.613553  (  2.334949  -5.903858  -0.553202)
  24:      1073.98   34.756685  ( -2.957248   5.006582   0.972370)
  25:      1098.64   32.110866  ( -4.803806   2.418141   1.785192)
  26:      1127.41    2.342056  (  0.387728   1.073203   1.019783)
  27:      1187.58   28.726848  (  3.429113  -1.552511  -3.815461)
  28:      1219.52   51.188393  ( -4.967216   1.966770   4.758883)
  29:      1238.21   24.214830  (  2.035453  -1.525078  -4.212588)
  30:      1263.34   10.176124  (  1.553683  -2.490577  -1.248686)
  31:      1352.78   11.077222  ( -0.851596   0.722645   3.135250)
  32:      1393.12   52.605541  ( -6.211066   3.571033   1.129569)
  33:      1416.50   11.409798  (  2.506028  -2.252571  -0.235678)
  34:      1440.44   49.083852  ( -0.579676  -1.466038  -6.826314)
  35:      1448.25   28.899136  (  1.925989  -4.440296  -2.339546)
  36:      1455.93   14.369430  ( -3.178361  -1.822512   0.972572)
  37:      1472.23   10.835948  (  2.997560  -0.999478   0.922837)
  38:      1490.88   22.974124  ( -2.623367  -2.930626   2.739253)
  39:      1561.63  108.010491  (  9.685726   1.308361   3.533467)
  40:      1826.54  112.897264  ( -5.316065   3.886111  -8.338756)
  41:      3049.38   10.447565  ( -2.565486   1.487009   1.286332)
  42:      3065.92    1.738156  ( -0.603425  -1.147420  -0.239713)
  43:      3113.23    0.366193  ( -0.044107  -0.580108   0.166501)
  44:      3147.61    1.805470  (  0.103590   1.058728  -0.820874)
  45:      3152.60    0.513407  (  0.400748   0.515608   0.294883)
  46:      3185.26    1.513199  (  0.497026   1.017173  -0.481169)
  47:      3186.68    1.183313  ( -0.368562   0.662007  -0.780527)
  48:      3208.69    3.727882  ( -0.149931   1.546589  -1.146065)
  49:      3347.22  142.740260  (  2.614957   0.913625  11.621857)
  50:      3581.73  153.911160  ( -8.886821  -3.863007   7.746789)

--------------------------
THERMOCHEMISTRY AT 298.15K
--------------------------

Temperature         ... 298.15 K
Pressure            ... 1.00 atm
Total Mass          ... 100.14 AMU

Throughout the following assumptions are being made:
  (1) The electronic state is orbitally nondegenerate
  (2) There are no thermally accessible electronically excited states
  (3) Hindered rotations indicated by low frequency modes) are not
      treated as such but are treated as vibrations and this may
      case some error
  (4) All equations used are the standard statistical mechanics
      equations for an ideal gas
  (5) All vibrations are strinctly harmonic

------------
INNER ENERGY
------------

The inner energy is: U= E(el) + E(ZPE) + E(vib) + E(rot) + E(trans)
    E(el)   - is the total energy from the electronic structure calculation
              = E(kin-el) + E(nuc-el) + E(el-el) + E(nuc-nuc)
    E(ZPE)  - the the zero temperature vibrational energy from the frequency calculation
    E(vib)  - the the finite temperature correction to E(ZPE) due to population
              of excietd vibrational states
    E(rot)  - is the rotational thermal energy
    E(trans)- is the translational thermal energy

Summary of contributions to the inner energy U:
Electronic energy                ...   -326.00188989 Eh
Zero point energy                ...      0.14955982 Eh      93.85 kcal/mol
Thermal vibrational correction   ...      0.00506062 Eh       3.18 kcal/mol
Thermal rotational correction    ...      0.00141627 Eh       0.89 kcal/mol
Thermal translational correction ...      0.00141627 Eh       0.89 kcal/mol
-----------------------------------------------------------------------
Total thermal energy                   -325.84443690 Eh

Summary of corrections to the electronic energy:
(perhaps to be used in another calculation)
Total thermal correction                  0.00789316 Eh       4.95 kcal/mol
Non-thermal (ZPE) correction              0.14955982 Eh      93.85 kcal/mol
-----------------------------------------------------------------------
Total correction                          0.15745299 Eh      98.80 kcal/mol

--------
ENTHALPY
--------

The enthalpy is H = U + kB*T
                kB is Boltzmann's constant
Total free energy                 ...   -325.84443690 Eh
Thermal Enthalpy correction       ...      0.00094421 Eh       0.59 kcal/mol
-----------------------------------------------------------------------
Total Enthalpy                    ...   -325.84349269 Eh

-------
ENTROPY
-------

The entropy contributions are T*S = T*(S(el)+S(vib)+S(rot)+S(trans)
     S(el)   - electronic entropy
     S(vib)  - vibrational entropy
     S(rot)  - rotational entropy
     S(trans)- translational entropy
The entropies will be listed as mutliplied by the temperature to get
units of energy

Electronic entropy                ...      0.00000000 Eh      0.00 kcal/mol
Vibrational entropy               ...      0.00891317 Eh      5.59 kcal/mol
Rotational entropy                ...      0.01206837 Eh      7.57 kcal/mol
Translational entropy             ...      0.01887324 Eh     11.84 kcal/mol
-----------------------------------------------------------------------
Final entropy term                ...      0.03985477 Eh     25.01 kcal/mol

CAUTION: The rotational entropy is not quite correctly treated here
         because it includes a symmetry number that is not yet correctly
         implemented in ORCA!
For a nonlinear molecule the correct rotational entropy is:
    S(rot) = R*(ln(qrot/sn)+1.5)
    R    = 8.31441 J/mol/K = 1.987191683e-3 kcal/mol/K
    qrot = 238101.9668578
    sn is the rotational symmetry number. We have assumed 3 here
       if it is different for your molecule then you should correct
       the printed rotational entropy by manually evaluating the equation
       as given above

For convenience we print out the resulting values for sn=1 - 12:
 sn= 1  qrot/sn=  238101.9669 T*S(rot)=     8.22 kcal/mol T*S(tot)=    25.66 kcal/mol
 sn= 2  qrot/sn=  119050.9834 T*S(rot)=     7.81 kcal/mol T*S(tot)=    25.25 kcal/mol
 sn= 3  qrot/sn=   79367.3223 T*S(rot)=     7.57 kcal/mol T*S(tot)=    25.01 kcal/mol
 sn= 4  qrot/sn=   59525.4917 T*S(rot)=     7.40 kcal/mol T*S(tot)=    24.84 kcal/mol
 sn= 5  qrot/sn=   47620.3934 T*S(rot)=     7.27 kcal/mol T*S(tot)=    24.71 kcal/mol
 sn= 6  qrot/sn=   39683.6611 T*S(rot)=     7.16 kcal/mol T*S(tot)=    24.60 kcal/mol
 sn= 7  qrot/sn=   34014.5667 T*S(rot)=     7.07 kcal/mol T*S(tot)=    24.51 kcal/mol
 sn= 8  qrot/sn=   29762.7459 T*S(rot)=     6.99 kcal/mol T*S(tot)=    24.43 kcal/mol
 sn= 9  qrot/sn=   26455.7741 T*S(rot)=     6.92 kcal/mol T*S(tot)=    24.36 kcal/mol
 sn=10  qrot/sn=   23810.1967 T*S(rot)=     6.86 kcal/mol T*S(tot)=    24.30 kcal/mol
 sn=11  qrot/sn=   21645.6334 T*S(rot)=     6.80 kcal/mol T*S(tot)=    24.24 kcal/mol
 sn=12  qrot/sn=   19841.8306 T*S(rot)=     6.75 kcal/mol T*S(tot)=    24.19 kcal/mol

-------------------
GIBBS FREE ENTHALPY
-------------------

The Gibbs free enthalpy is G = H - T*S

Total enthalpy                    ...   -325.84349269 Eh
Total entropy correction          ...     -0.03985477 Eh    -25.01 kcal/mol
-----------------------------------------------------------------------
Final Gibbs free enthalpy         ...   -325.88334747 Eh

For completeness - the Gibbs free enthalpy minus the electronic energy
G-E(el)                           ...      0.11854242 Eh     74.39 kcal/mol

                             ****ORCA TERMINATED NORMALLY****
TOTAL RUN TIME: 0 days 0 hours 35 minutes 6 seconds 85 msec
