                         Program Version 3.0.3 - RELEASE   -
|  1> ! NORI PBE0 def2-TZVP UseSym TightOPT Freq TightSCF Grid3 FinalGrid5 XYZFile
|  2> % pal
|  3>     nprocs 8
|  4> end
|  5> %method
|  6>     SymThresh 5.0e-2
|  7> end
|  8> % geom
|  9>     MaxIter 10
| 10> end
| 11> % maxcore 2000
| 12> % output
| 13>     printlevel mini
| 14>     print[ P_Basis ] 0
| 15>     print[ P_SCFInfo ] 1
| 16>     print[ P_SCFIterInfo ] 1
| 17>     print[ P_OrbEn ] 0
| 18>     print[ P_Cartesian ] 0
| 19> end
| 20> % elprop
| 21>     Dipole false
| 22> end
| 23> *xyz 1 1
| 24>  C        0.8257879655     0.2271473310    -0.3941108405
| 25>  C        2.2767925378     0.2596737938    -0.0528572304
| 26>  N        3.1386032402    -0.8553153643    -0.5819816993
| 27>  C        3.3163748486     0.5537769552    -1.0468391669
| 28>  C        4.5938347359     1.2533443033    -0.7029977938
| 29>  C        4.3676793038     2.7524272836    -0.7638498263
| 30>  O        3.2869871450     3.2222768823    -0.9744784903
| 31>  H        0.4227120632     1.2327145108    -0.2563897527
| 32>  H        0.2776141482    -0.4528626024     0.2588511162
| 33>  H        0.6592813046    -0.0555986110    -1.4358410680
| 34>  H        2.5292830772     0.4771430435     0.9804429358
| 35>  H        3.8446519910    -1.2584687323     0.0239135712
| 36>  H        2.7108715210    -1.5192996759    -1.2183969197
| 37>  H        2.9688680730     0.6801547366    -2.0668446911
| 38>  H        5.4017207616     0.9854487596    -1.3922365640
| 39>  H        4.9448364268     1.0044409532     0.3059792962
| 40>  H        5.2625208567     3.3786564329    -0.5957128763
| 41> *
| 42>
| 43>                          ****END OF INPUT****
 Total Charge           Charge          ....    1
 Multiplicity           Mult            ....    1
 Number of Electrons    NEL             ....   54
FINAL SINGLE POINT ENERGY      -325.987343863810
FINAL SINGLE POINT ENERGY      -325.987342943149
FINAL SINGLE POINT ENERGY      -325.987344913219

CARTESIAN COORDINATES (ANGSTROEM)
---------------------------------
  C     -1.560251    1.550947   -1.035469
  C     -0.849080    0.244757   -0.931122
  N      0.294110    0.000500   -1.879127
  C      0.517220    0.126312   -0.406645
  C      0.998944   -1.078761    0.338826
  C      0.643009   -0.925998    1.806228
  O      0.000016   -0.000233    2.209042
  H     -2.097491    1.719845   -0.100050
  H     -2.285570    1.545511   -1.850074
  H     -0.865815    2.382816   -1.172835
  H     -1.469851   -0.642395   -0.848715
  H      0.387981   -0.913698   -2.307408
  H      0.583750    0.768591   -2.475062
  H      1.008825    1.061572   -0.160126
  H      2.082625   -1.207201    0.245266
  H      0.539181   -2.005712   -0.026411
  H      1.012259   -1.725261    2.474030

FINAL SINGLE POINT ENERGY      -325.987345089072
                    ***********************HURRAY********************
 Multiplicity           Mult            ....    1
 Number of Electrons    NEL             ....   54
 Basis Dimension        Dim             ....  277
FINAL SINGLE POINT ENERGY      -325.987345230193

VIBRATIONAL FREQUENCIES
-----------------------

   0:         0.00 cm**-1
   1:         0.00 cm**-1
   2:         0.00 cm**-1
   3:         0.00 cm**-1
   4:         0.00 cm**-1
   5:         0.00 cm**-1
   6:        48.20 cm**-1
   7:       123.57 cm**-1
   8:       174.27 cm**-1
   9:       218.73 cm**-1
  10:       265.99 cm**-1
  11:       286.74 cm**-1
  12:       413.66 cm**-1
  13:       420.12 cm**-1
  14:       653.28 cm**-1
  15:       730.72 cm**-1
  16:       789.62 cm**-1
  17:       824.31 cm**-1
  18:       871.96 cm**-1
  19:       906.10 cm**-1
  20:       930.83 cm**-1
  21:       982.79 cm**-1
  22:      1004.30 cm**-1
  23:      1017.52 cm**-1
  24:      1068.72 cm**-1
  25:      1144.62 cm**-1
  26:      1156.66 cm**-1
  27:      1172.74 cm**-1
  28:      1231.56 cm**-1
  29:      1258.34 cm**-1
  30:      1290.71 cm**-1
  31:      1326.57 cm**-1
  32:      1365.11 cm**-1
  33:      1402.86 cm**-1
  34:      1420.83 cm**-1
  35:      1447.49 cm**-1
  36:      1472.09 cm**-1
  37:      1478.30 cm**-1
  38:      1504.57 cm**-1
  39:      1626.69 cm**-1
  40:      1840.83 cm**-1
  41:      2987.87 cm**-1
  42:      3047.84 cm**-1
  43:      3064.44 cm**-1
  44:      3096.83 cm**-1
  45:      3143.98 cm**-1
  46:      3155.64 cm**-1
  47:      3183.74 cm**-1
  48:      3196.86 cm**-1
  49:      3512.23 cm**-1
  50:      3619.33 cm**-1

IR SPECTRUM
-----------

 Mode    freq (cm**-1)   T**2         TX         TY         TZ
-------------------------------------------------------------------
   6:        48.20    2.603128  (  1.219538  -0.098425   1.051745)
   7:       123.57    4.512056  (  0.253588   1.139323  -1.774737)
   8:       174.27    5.997103  ( -1.972544  -0.987406  -1.063580)
   9:       218.73    1.294454  (  0.927591   0.650363  -0.105149)
  10:       265.99    6.318272  (  0.109110   0.059634   2.510540)
  11:       286.74    5.070634  ( -0.112879   0.302414  -2.228551)
  12:       413.66    2.024576  (  0.769969  -0.806216   0.884160)
  13:       420.12    1.130476  ( -0.705580   0.602714  -0.519008)
  14:       653.28   11.188521  ( -0.580461  -1.743262   2.795107)
  15:       730.72    7.905901  (  1.540143   0.088800   2.350739)
  16:       789.62   10.077992  ( -1.120615   1.712632   2.426748)
  17:       824.31    1.922227  (  0.918357   0.359321   0.974544)
  18:       871.96   43.179947  ( -2.177762  -0.448956   6.183505)
  19:       906.10    2.392673  (  0.808385  -0.757156  -1.079769)
  20:       930.83   15.423063  ( -0.841205  -0.784297  -3.755039)
  21:       982.79    1.545383  (  1.195370  -0.340978  -0.014398)
  22:      1004.30   81.758290  (  8.576104  -0.163953   2.860395)
  23:      1017.52   10.023921  ( -2.683603   1.030969  -1.326386)
  24:      1068.72    6.376693  (  2.051556  -0.622318  -1.334365)
  25:      1144.62    8.870216  ( -0.757480   0.498105  -2.836958)
  26:      1156.66   10.022527  (  1.322037  -0.281081   2.862820)
  27:      1172.74    1.542146  ( -1.085169   0.563108  -0.217864)
  28:      1231.56    2.288959  ( -1.067537   1.069412  -0.075374)
  29:      1258.34    3.778198  ( -0.099591   0.939184  -1.698886)
  30:      1290.71    0.567573  ( -0.733964   0.044190  -0.164063)
  31:      1326.57   38.289097  (  1.618262  -0.790405  -5.919931)
  32:      1365.11   12.826951  (  0.150617  -1.188564   3.375142)
  33:      1402.86   11.643771  (  1.343593  -2.777159   1.458053)
  34:      1420.83    9.294771  ( -0.804727   2.924328   0.309015)
  35:      1447.49   24.357613  ( -2.394822   3.307138   2.772233)
  36:      1472.09   10.793924  (  1.908955   1.306773   2.332844)
  37:      1478.30   14.027100  (  2.721775   1.815144  -1.823264)
  38:      1504.57    4.157372  ( -1.203391  -1.563964  -0.513067)
  39:      1626.69   76.783836  ( -3.262734   1.502863   7.992484)
  40:      1840.83  120.785398  (  5.144435  -7.254077  -6.457441)
  41:      2987.87   42.927172  ( -2.360719   4.554037  -4.076140)
  42:      3047.84    2.060721  ( -0.264455  -1.012050   0.983127)
  43:      3064.44    2.459905  ( -1.191301  -0.201939   0.999964)
  44:      3096.83    0.641280  ( -0.024705   0.090349  -0.795303)
  45:      3143.98    1.671013  ( -0.667783  -0.932369  -0.596462)
  46:      3155.64    1.945180  ( -1.321544   0.385373   0.224028)
  47:      3183.74    0.997007  ( -0.657024   0.639199   0.395917)
  48:      3196.86    2.879460  ( -1.172380  -0.818719  -0.913611)
  49:      3512.23  104.293910  (  3.458730  -0.875215  -9.568965)
  50:      3619.33  108.588961  ( -1.014285 -10.327213   0.953345)

--------------------------
THERMOCHEMISTRY AT 298.15K
--------------------------

Temperature         ... 298.15 K
Pressure            ... 1.00 atm
Total Mass          ... 100.14 AMU

Throughout the following assumptions are being made:
  (1) The electronic state is orbitally nondegenerate
  (2) There are no thermally accessible electronically excited states
  (3) Hindered rotations indicated by low frequency modes) are not
      treated as such but are treated as vibrations and this may
      case some error
  (4) All equations used are the standard statistical mechanics
      equations for an ideal gas
  (5) All vibrations are strinctly harmonic

------------
INNER ENERGY
------------

The inner energy is: U= E(el) + E(ZPE) + E(vib) + E(rot) + E(trans)
    E(el)   - is the total energy from the electronic structure calculation
              = E(kin-el) + E(nuc-el) + E(el-el) + E(nuc-nuc)
    E(ZPE)  - the the zero temperature vibrational energy from the frequency calculation
    E(vib)  - the the finite temperature correction to E(ZPE) due to population
              of excietd vibrational states
    E(rot)  - is the rotational thermal energy
    E(trans)- is the translational thermal energy

Summary of contributions to the inner energy U:
Electronic energy                ...   -325.98734523 Eh
Zero point energy                ...      0.15008606 Eh      94.18 kcal/mol
Thermal vibrational correction   ...      0.00499536 Eh       3.13 kcal/mol
Thermal rotational correction    ...      0.00141627 Eh       0.89 kcal/mol
Thermal translational correction ...      0.00141627 Eh       0.89 kcal/mol
-----------------------------------------------------------------------
Total thermal energy                   -325.82943127 Eh

Summary of corrections to the electronic energy:
(perhaps to be used in another calculation)
Total thermal correction                  0.00782790 Eh       4.91 kcal/mol
Non-thermal (ZPE) correction              0.15008606 Eh      94.18 kcal/mol
-----------------------------------------------------------------------
Total correction                          0.15791396 Eh      99.09 kcal/mol

--------
ENTHALPY
--------

The enthalpy is H = U + kB*T
                kB is Boltzmann's constant
Total free energy                 ...   -325.82943127 Eh
Thermal Enthalpy correction       ...      0.00094421 Eh       0.59 kcal/mol
-----------------------------------------------------------------------
Total Enthalpy                    ...   -325.82848706 Eh

-------
ENTROPY
-------

The entropy contributions are T*S = T*(S(el)+S(vib)+S(rot)+S(trans)
     S(el)   - electronic entropy
     S(vib)  - vibrational entropy
     S(rot)  - rotational entropy
     S(trans)- translational entropy
The entropies will be listed as mutliplied by the temperature to get
units of energy

Electronic entropy                ...      0.00000000 Eh      0.00 kcal/mol
Vibrational entropy               ...      0.00922145 Eh      5.79 kcal/mol
Rotational entropy                ...      0.01212968 Eh      7.61 kcal/mol
Translational entropy             ...      0.01887324 Eh     11.84 kcal/mol
-----------------------------------------------------------------------
Final entropy term                ...      0.04022437 Eh     25.24 kcal/mol

CAUTION: The rotational entropy is not quite correctly treated here
         because it includes a symmetry number that is not yet correctly
         implemented in ORCA!
For a nonlinear molecule the correct rotational entropy is:
    S(rot) = R*(ln(qrot/sn)+1.5)
    R    = 8.31441 J/mol/K = 1.987191683e-3 kcal/mol/K
    qrot = 254074.9510872
    sn is the rotational symmetry number. We have assumed 3 here
       if it is different for your molecule then you should correct
       the printed rotational entropy by manually evaluating the equation
       as given above

For convenience we print out the resulting values for sn=1 - 12:
 sn= 1  qrot/sn=  254074.9511 T*S(rot)=     8.26 kcal/mol T*S(tot)=    25.89 kcal/mol
 sn= 2  qrot/sn=  127037.4755 T*S(rot)=     7.85 kcal/mol T*S(tot)=    25.48 kcal/mol
 sn= 3  qrot/sn=   84691.6504 T*S(rot)=     7.61 kcal/mol T*S(tot)=    25.24 kcal/mol
 sn= 4  qrot/sn=   63518.7378 T*S(rot)=     7.44 kcal/mol T*S(tot)=    25.07 kcal/mol
 sn= 5  qrot/sn=   50814.9902 T*S(rot)=     7.31 kcal/mol T*S(tot)=    24.94 kcal/mol
 sn= 6  qrot/sn=   42345.8252 T*S(rot)=     7.20 kcal/mol T*S(tot)=    24.83 kcal/mol
 sn= 7  qrot/sn=   36296.4216 T*S(rot)=     7.11 kcal/mol T*S(tot)=    24.74 kcal/mol
 sn= 8  qrot/sn=   31759.3689 T*S(rot)=     7.03 kcal/mol T*S(tot)=    24.66 kcal/mol
 sn= 9  qrot/sn=   28230.5501 T*S(rot)=     6.96 kcal/mol T*S(tot)=    24.59 kcal/mol
 sn=10  qrot/sn=   25407.4951 T*S(rot)=     6.90 kcal/mol T*S(tot)=    24.53 kcal/mol
 sn=11  qrot/sn=   23097.7228 T*S(rot)=     6.84 kcal/mol T*S(tot)=    24.47 kcal/mol
 sn=12  qrot/sn=   21172.9126 T*S(rot)=     6.79 kcal/mol T*S(tot)=    24.42 kcal/mol

-------------------
GIBBS FREE ENTHALPY
-------------------

The Gibbs free enthalpy is G = H - T*S

Total enthalpy                    ...   -325.82848706 Eh
Total entropy correction          ...     -0.04022437 Eh    -25.24 kcal/mol
-----------------------------------------------------------------------
Final Gibbs free enthalpy         ...   -325.86871142 Eh

For completeness - the Gibbs free enthalpy minus the electronic energy
G-E(el)                           ...      0.11863381 Eh     74.44 kcal/mol

                             ****ORCA TERMINATED NORMALLY****
TOTAL RUN TIME: 0 days 0 hours 36 minutes 17 seconds 120 msec
