                         Program Version 3.0.3 - RELEASE   -
|  1> ! NORI PBE0 def2-TZVP UseSym TightOPT Freq TightSCF Grid3 FinalGrid5 XYZFile
|  2> % pal
|  3>     nprocs 8
|  4> end
|  5> %method
|  6>     SymThresh 5.0e-2
|  7> end
|  8> % geom
|  9>     MaxIter 10
| 10> end
| 11> % maxcore 2000
| 12> % output
| 13>     printlevel mini
| 14>     print[ P_Basis ] 0
| 15>     print[ P_SCFInfo ] 1
| 16>     print[ P_SCFIterInfo ] 1
| 17>     print[ P_OrbEn ] 0
| 18>     print[ P_Cartesian ] 0
| 19> end
| 20> % elprop
| 21>     Dipole false
| 22> end
| 23> *xyz 1 1
| 24>  C        0.9901286077     0.2481382501    -0.2352252713
| 25>  C        2.4620127594     0.2211213902     0.0092987160
| 26>  N        3.2637630557    -0.7797189227    -0.7564830787
| 27>  C        3.4421992332     0.7110371370    -0.9774816365
| 28>  C        4.7325318649     1.2944309709    -0.6023464561
| 29>  N        5.3247276942     1.9628867368    -1.5075178708
| 30>  O        6.4806118244     2.4982392553    -1.0902810176
| 31>  H        0.5906040602     1.1926045574     0.1391264341
| 32>  H        0.4887459276    -0.5623617407     0.2958656163
| 33>  H        0.7531616938     0.1843679197    -1.2996598292
| 34>  H        2.7804058478     0.2534817021     1.0473467451
| 35>  H        4.0087925474    -1.2804475033    -0.2841182775
| 36>  H        2.7958040654    -1.3126573893    -1.4821282140
| 37>  H        3.0698693284     1.0127814992    -1.9504478469
| 38>  H        5.1335630054     1.1840094034     0.4062471382
| 39>  H        6.8191984844     2.9845267340    -1.8527351509
| 40> *
| 41>
| 42>                          ****END OF INPUT****
 Total Charge           Charge          ....    1
 Multiplicity           Mult            ....    1
 Number of Electrons    NEL             ....   54
FINAL SINGLE POINT ENERGY      -341.974716219945

CARTESIAN COORDINATES (ANGSTROEM)
---------------------------------
  C     -0.973984   -0.069551   -2.820344
  C     -0.242039   -0.557057   -1.614641
  N      1.122440   -0.000278   -1.371979
  C     -0.026156    0.281555   -0.421104
  C      0.076076   -0.265450    0.934211
  N     -0.068951    0.569082    1.882678
  O      0.000640    0.000560    3.094537
  H     -2.032628   -0.311190   -2.708332
  H     -0.611396   -0.560158   -3.724946
  H     -0.889651    1.013190   -2.937436
  H     -0.254165   -1.629428   -1.442476
  H      1.858925   -0.620832   -1.053561
  H      1.441703    0.757898   -1.965874
  H     -0.335197    1.320107   -0.472186
  H      0.232181   -1.331538    1.106005
  H     -0.140098    0.724747    3.717609

FINAL SINGLE POINT ENERGY      -341.974716751903
                    ***********************HURRAY********************
 Multiplicity           Mult            ....    1
 Number of Electrons    NEL             ....   54
 Basis Dimension        Dim             ....  271
FINAL SINGLE POINT ENERGY      -341.974717048451

VIBRATIONAL FREQUENCIES
-----------------------

   0:         0.00 cm**-1
   1:         0.00 cm**-1
   2:         0.00 cm**-1
   3:         0.00 cm**-1
   4:         0.00 cm**-1
   5:         0.00 cm**-1
   6:        87.43 cm**-1
   7:       153.22 cm**-1
   8:       190.11 cm**-1
   9:       223.96 cm**-1
  10:       308.87 cm**-1
  11:       363.50 cm**-1
  12:       405.81 cm**-1
  13:       472.54 cm**-1
  14:       556.98 cm**-1
  15:       563.52 cm**-1
  16:       724.73 cm**-1
  17:       861.16 cm**-1
  18:       875.71 cm**-1
  19:       916.39 cm**-1
  20:       953.69 cm**-1
  21:       959.97 cm**-1
  22:       996.07 cm**-1
  23:      1054.58 cm**-1
  24:      1116.39 cm**-1
  25:      1146.54 cm**-1
  26:      1171.50 cm**-1
  27:      1221.91 cm**-1
  28:      1230.75 cm**-1
  29:      1262.40 cm**-1
  30:      1287.92 cm**-1
  31:      1343.88 cm**-1
  32:      1417.71 cm**-1
  33:      1440.72 cm**-1
  34:      1473.61 cm**-1
  35:      1483.90 cm**-1
  36:      1507.81 cm**-1
  37:      1622.63 cm**-1
  38:      1717.47 cm**-1
  39:      3064.04 cm**-1
  40:      3128.60 cm**-1
  41:      3144.41 cm**-1
  42:      3153.03 cm**-1
  43:      3181.63 cm**-1
  44:      3202.44 cm**-1
  45:      3505.53 cm**-1
  46:      3617.08 cm**-1
  47:      3808.86 cm**-1

IR SPECTRUM
-----------

 Mode    freq (cm**-1)   T**2         TX         TY         TZ
-------------------------------------------------------------------
   6:        87.43    1.697555  (  0.023689  -0.533758  -1.188316)
   7:       153.22    0.315723  (  0.000032   0.320192   0.461736)
   8:       190.11    1.200700  (  0.177315   0.872615   0.638594)
   9:       223.96    1.505749  (  0.005346   0.996067   0.716639)
  10:       308.87    3.412164  ( -0.835669   0.865651  -1.401596)
  11:       363.50    0.904832  ( -0.738037  -0.599963   0.013360)
  12:       405.81    7.201319  (  0.974407  -0.937540  -2.317945)
  13:       472.54    1.170463  (  0.988467  -0.289431  -0.331097)
  14:       556.98  126.832625  (-10.943267  -2.614291   0.492963)
  15:       563.52   26.796171  (  4.579936  -1.045164   2.174395)
  16:       724.73   47.039114  ( -1.518620  -0.906263   6.626583)
  17:       861.16   19.423382  ( -3.983550   0.053651   1.884631)
  18:       875.71   18.515211  ( -2.539166  -0.463341   3.442842)
  19:       916.39    5.644119  ( -1.285729  -1.997751  -0.003664)
  20:       953.69    9.578009  ( -2.320720   1.593856  -1.285259)
  21:       959.97   42.977803  (  2.962325  -2.681678  -5.197214)
  22:       996.07   81.907967  ( -3.394190  -4.443340  -7.116472)
  23:      1054.58   23.362513  (  2.879262   1.851551   3.412349)
  24:      1116.39  128.540476  (  2.433049  -1.344260 -10.991529)
  25:      1146.54   38.372167  ( -0.084981  -0.426694  -6.179229)
  26:      1171.50   27.715732  (  0.145061   0.556070   5.233113)
  27:      1221.91   15.912656  (  0.097740   1.660766   3.625598)
  28:      1230.75    4.298360  (  0.852477   0.021752   1.889754)
  29:      1262.40    3.178524  ( -0.054596   1.777055  -0.132738)
  30:      1287.92   36.393049  ( -0.381428   2.631663  -5.414971)
  31:      1343.88   16.424315  ( -0.495317  -1.181490   3.844874)
  32:      1417.71    6.292130  ( -1.368188   1.012122   1.842769)
  33:      1440.72   62.143502  ( -2.083033   1.410018  -7.471032)
  34:      1473.61    6.550153  (  2.177153  -1.216176  -0.575391)
  35:      1483.90   29.756883  (  1.379179   4.045137  -3.389928)
  36:      1507.81   15.948947  (  0.228710  -1.230316  -3.792487)
  37:      1622.63   69.023741  ( -7.934492  -1.011289   2.246080)
  38:      1717.47   43.259223  ( -0.596078   0.701809   6.512402)
  39:      3064.04    1.693248  ( -0.925961  -0.913828  -0.027612)
  40:      3128.60    0.620245  ( -0.210972   0.697792  -0.298029)
  41:      3144.41    1.521364  ( -0.144524   1.186637   0.303925)
  42:      3153.03    1.109631  ( -0.641430  -0.411223  -0.727389)
  43:      3181.63    0.663358  ( -0.690728  -0.103164  -0.419058)
  44:      3202.44    5.822735  (  0.598851  -2.047602  -1.127580)
  45:      3505.53  106.562687  ( -9.490937  -1.004233   3.933995)
  46:      3617.08  114.623550  ( -2.878801   8.366558  -6.027998)
  47:      3808.86  239.162653  ( -1.607111   7.442104  13.460867)

--------------------------
THERMOCHEMISTRY AT 298.15K
--------------------------

Temperature         ... 298.15 K
Pressure            ... 1.00 atm
Total Mass          ... 101.13 AMU

Throughout the following assumptions are being made:
  (1) The electronic state is orbitally nondegenerate
  (2) There are no thermally accessible electronically excited states
  (3) Hindered rotations indicated by low frequency modes) are not
      treated as such but are treated as vibrations and this may
      case some error
  (4) All equations used are the standard statistical mechanics
      equations for an ideal gas
  (5) All vibrations are strinctly harmonic

------------
INNER ENERGY
------------

The inner energy is: U= E(el) + E(ZPE) + E(vib) + E(rot) + E(trans)
    E(el)   - is the total energy from the electronic structure calculation
              = E(kin-el) + E(nuc-el) + E(el-el) + E(nuc-nuc)
    E(ZPE)  - the the zero temperature vibrational energy from the frequency calculation
    E(vib)  - the the finite temperature correction to E(ZPE) due to population
              of excietd vibrational states
    E(rot)  - is the rotational thermal energy
    E(trans)- is the translational thermal energy

Summary of contributions to the inner energy U:
Electronic energy                ...   -341.97471705 Eh
Zero point energy                ...      0.13878369 Eh      87.09 kcal/mol
Thermal vibrational correction   ...      0.00475924 Eh       2.99 kcal/mol
Thermal rotational correction    ...      0.00141627 Eh       0.89 kcal/mol
Thermal translational correction ...      0.00141627 Eh       0.89 kcal/mol
-----------------------------------------------------------------------
Total thermal energy                   -341.82834157 Eh

Summary of corrections to the electronic energy:
(perhaps to be used in another calculation)
Total thermal correction                  0.00759179 Eh       4.76 kcal/mol
Non-thermal (ZPE) correction              0.13878369 Eh      87.09 kcal/mol
-----------------------------------------------------------------------
Total correction                          0.14637548 Eh      91.85 kcal/mol

--------
ENTHALPY
--------

The enthalpy is H = U + kB*T
                kB is Boltzmann's constant
Total free energy                 ...   -341.82834157 Eh
Thermal Enthalpy correction       ...      0.00094421 Eh       0.59 kcal/mol
-----------------------------------------------------------------------
Total Enthalpy                    ...   -341.82739736 Eh

-------
ENTROPY
-------

The entropy contributions are T*S = T*(S(el)+S(vib)+S(rot)+S(trans)
     S(el)   - electronic entropy
     S(vib)  - vibrational entropy
     S(rot)  - rotational entropy
     S(trans)- translational entropy
The entropies will be listed as mutliplied by the temperature to get
units of energy

Electronic entropy                ...      0.00000000 Eh      0.00 kcal/mol
Vibrational entropy               ...      0.00817690 Eh      5.13 kcal/mol
Rotational entropy                ...      0.01215971 Eh      7.63 kcal/mol
Translational entropy             ...      0.01888714 Eh     11.85 kcal/mol
-----------------------------------------------------------------------
Final entropy term                ...      0.03922376 Eh     24.61 kcal/mol

CAUTION: The rotational entropy is not quite correctly treated here
         because it includes a symmetry number that is not yet correctly
         implemented in ORCA!
For a nonlinear molecule the correct rotational entropy is:
    S(rot) = R*(ln(qrot/sn)+1.5)
    R    = 8.31441 J/mol/K = 1.987191683e-3 kcal/mol/K
    qrot = 262286.3045130
    sn is the rotational symmetry number. We have assumed 3 here
       if it is different for your molecule then you should correct
       the printed rotational entropy by manually evaluating the equation
       as given above

For convenience we print out the resulting values for sn=1 - 12:
 sn= 1  qrot/sn=  262286.3045 T*S(rot)=     8.28 kcal/mol T*S(tot)=    25.26 kcal/mol
 sn= 2  qrot/sn=  131143.1523 T*S(rot)=     7.87 kcal/mol T*S(tot)=    24.85 kcal/mol
 sn= 3  qrot/sn=   87428.7682 T*S(rot)=     7.63 kcal/mol T*S(tot)=    24.61 kcal/mol
 sn= 4  qrot/sn=   65571.5761 T*S(rot)=     7.46 kcal/mol T*S(tot)=    24.44 kcal/mol
 sn= 5  qrot/sn=   52457.2609 T*S(rot)=     7.33 kcal/mol T*S(tot)=    24.31 kcal/mol
 sn= 6  qrot/sn=   43714.3841 T*S(rot)=     7.22 kcal/mol T*S(tot)=    24.20 kcal/mol
 sn= 7  qrot/sn=   37469.4721 T*S(rot)=     7.13 kcal/mol T*S(tot)=    24.11 kcal/mol
 sn= 8  qrot/sn=   32785.7881 T*S(rot)=     7.05 kcal/mol T*S(tot)=    24.03 kcal/mol
 sn= 9  qrot/sn=   29142.9227 T*S(rot)=     6.98 kcal/mol T*S(tot)=    23.96 kcal/mol
 sn=10  qrot/sn=   26228.6305 T*S(rot)=     6.92 kcal/mol T*S(tot)=    23.90 kcal/mol
 sn=11  qrot/sn=   23844.2095 T*S(rot)=     6.86 kcal/mol T*S(tot)=    23.84 kcal/mol
 sn=12  qrot/sn=   21857.1920 T*S(rot)=     6.81 kcal/mol T*S(tot)=    23.79 kcal/mol

-------------------
GIBBS FREE ENTHALPY
-------------------

The Gibbs free enthalpy is G = H - T*S

Total enthalpy                    ...   -341.82739736 Eh
Total entropy correction          ...     -0.03922376 Eh    -24.61 kcal/mol
-----------------------------------------------------------------------
Final Gibbs free enthalpy         ...   -341.86662112 Eh

For completeness - the Gibbs free enthalpy minus the electronic energy
G-E(el)                           ...      0.10809593 Eh     67.83 kcal/mol

                             ****ORCA TERMINATED NORMALLY****
TOTAL RUN TIME: 0 days 0 hours 23 minutes 18 seconds 394 msec
