                         Program Version 3.0.3 - RELEASE   -
|  1> ! NORI PBE0 def2-TZVP UseSym TightOPT Freq TightSCF Grid3 FinalGrid5 XYZFile
|  2> % pal
|  3>     nprocs 8
|  4> end
|  5> %method
|  6>     SymThresh 5.0e-2
|  7> end
|  8> % geom
|  9>     MaxIter 10
| 10> end
| 11> % maxcore 2000
| 12> % output
| 13>     printlevel mini
| 14>     print[ P_Basis ] 0
| 15>     print[ P_SCFInfo ] 1
| 16>     print[ P_SCFIterInfo ] 1
| 17>     print[ P_OrbEn ] 0
| 18>     print[ P_Cartesian ] 0
| 19> end
| 20> % elprop
| 21>     Dipole false
| 22> end
| 23> *xyz 1 1
| 24>  C        0.9535218107     0.0320216208    -0.1920953758
| 25>  C        2.4257031072     0.1315616942     0.0261891192
| 26>  N        3.2835806124    -0.9493181392    -0.5222483819
| 27>  C        3.3773184174     0.4081859559    -1.0814581353
| 28>  C        4.7159705010     1.0090532486    -0.6977791415
| 29>  O        5.0525486581     2.1605304162    -1.2327530170
| 30>  O        5.3940159233     0.4301002699     0.1008078924
| 31>  H        0.5067865974     1.0154737400    -0.0341071446
| 32>  H        0.5048490417    -0.6555559672     0.5267145626
| 33>  H        0.7068614799    -0.2935930225    -1.2046089474
| 34>  H        2.7666378542     0.4254198383     1.0137496766
| 35>  H        4.1297054911    -1.1821631016     0.0123488097
| 36>  H        2.8605192634    -1.6885870935    -1.0742020774
| 37>  H        2.9886611629     0.5201662480    -2.0877748895
| 38>  H        4.4103500794     2.5036242922    -1.8672729503
| 39> *
| 40>
| 41>                          ****END OF INPUT****
 Total Charge           Charge          ....    1
 Multiplicity           Mult            ....    1
 Number of Electrons    NEL             ....   54
FINAL SINGLE POINT ENERGY      -361.909309213419

CARTESIAN COORDINATES (ANGSTROEM)
---------------------------------
  C     -1.628326   -0.731088   -2.059695
  C     -0.459040   -0.565995   -1.148268
  N      0.320072    0.694748   -1.240399
  C     -0.456502    0.406657   -0.024333
  C      0.500581    0.126190    1.118544
  O      0.000599    0.000764    2.326734
  O      1.664415   -0.001861    0.870204
  H     -2.272311   -1.519918   -1.666684
  H     -1.298952   -1.036065   -3.054378
  H     -2.221724    0.182098   -2.140929
  H      0.204410   -1.416564   -1.025872
  H      1.328334    0.627718   -1.053324
  H      0.008496    1.427500   -1.869840
  H     -1.328560    1.034301    0.125263
  H     -0.953682    0.140723    2.375326

FINAL SINGLE POINT ENERGY      -361.909310133197
                    ***********************HURRAY********************
 Multiplicity           Mult            ....    1
 Number of Electrons    NEL             ....   54
 Basis Dimension        Dim             ....  265
FINAL SINGLE POINT ENERGY      -361.909310449055

VIBRATIONAL FREQUENCIES
-----------------------

   0:         0.00 cm**-1
   1:         0.00 cm**-1
   2:         0.00 cm**-1
   3:         0.00 cm**-1
   4:         0.00 cm**-1
   5:         0.00 cm**-1
   6:        95.58 cm**-1
   7:       174.46 cm**-1
   8:       208.24 cm**-1
   9:       236.71 cm**-1
  10:       342.87 cm**-1
  11:       395.00 cm**-1
  12:       455.20 cm**-1
  13:       489.39 cm**-1
  14:       667.77 cm**-1
  15:       736.75 cm**-1
  16:       801.79 cm**-1
  17:       857.83 cm**-1
  18:       879.71 cm**-1
  19:       941.31 cm**-1
  20:      1000.89 cm**-1
  21:      1022.32 cm**-1
  22:      1073.33 cm**-1
  23:      1094.96 cm**-1
  24:      1120.46 cm**-1
  25:      1187.82 cm**-1
  26:      1209.79 cm**-1
  27:      1235.13 cm**-1
  28:      1262.27 cm**-1
  29:      1308.80 cm**-1
  30:      1398.55 cm**-1
  31:      1421.42 cm**-1
  32:      1455.79 cm**-1
  33:      1471.87 cm**-1
  34:      1491.83 cm**-1
  35:      1564.14 cm**-1
  36:      1875.81 cm**-1
  37:      3064.52 cm**-1
  38:      3146.42 cm**-1
  39:      3153.06 cm**-1
  40:      3188.67 cm**-1
  41:      3196.64 cm**-1
  42:      3360.80 cm**-1
  43:      3574.97 cm**-1
  44:      3814.41 cm**-1

IR SPECTRUM
-----------

 Mode    freq (cm**-1)   T**2         TX         TY         TZ
-------------------------------------------------------------------
   6:        95.58   10.357083  (  0.313200  -2.953062  -1.240328)
   7:       174.46   14.116934  ( -0.529504  -3.648464   0.724754)
   8:       208.24   11.970128  ( -0.019628  -0.158034   3.456120)
   9:       236.71    6.007727  ( -0.802916  -0.498444  -2.261549)
  10:       342.87   19.617362  ( -0.757174   0.762353  -4.296844)
  11:       395.00    8.555249  ( -0.766036   1.527693  -2.373730)
  12:       455.20   29.787367  ( -0.694679  -5.348638   0.834782)
  13:       489.39   82.671309  (  1.465816   8.515861   2.828923)
  14:       667.77    6.494353  (  2.525061  -0.035882   0.342247)
  15:       736.75    4.762121  (  1.995373   0.806423  -0.360958)
  16:       801.79    6.115565  ( -2.433651  -0.433340   0.071592)
  17:       857.83    1.480155  (  1.089311  -0.379578  -0.386623)
  18:       879.71   15.163318  ( -0.573338   2.827395  -2.615424)
  19:       941.31   10.926096  (  2.458456   2.033850   0.863451)
  20:      1000.89   14.823711  (  0.132418   2.759389   2.681781)
  21:      1022.32    7.370645  ( -0.275187   1.550645   2.211428)
  22:      1073.33   58.776648  ( -1.531366   4.752504   5.817669)
  23:      1094.96   49.537054  ( -1.656063   0.465018   6.824827)
  24:      1120.46    2.677272  (  1.208372   1.021484  -0.416748)
  25:      1187.82    9.217095  ( -2.266878  -0.324184   1.993304)
  26:      1209.79   37.699583  (  2.492586   0.156556  -5.609108)
  27:      1235.13    4.439746  ( -2.024909  -0.494276   0.308516)
  28:      1262.27   64.471214  (  0.184287  -0.956840  -7.970051)
  29:      1308.80  167.346549  (  1.482687   1.713895 -12.736199)
  30:      1398.55  129.035793  (  1.698117   1.586259 -11.119171)
  31:      1421.42   37.331338  ( -3.257216  -0.560225   5.138874)
  32:      1455.79  123.386407  (  1.687184   1.920012  10.809874)
  33:      1471.87   12.525269  (  2.187369   0.713524  -2.689158)
  34:      1491.83   25.882432  (  1.884630  -3.724001   2.909024)
  35:      1564.14  104.518057  ( -6.866937  -5.934286   4.706111)
  36:      1875.81  208.542025  ( 13.898035  -1.062094  -3.776056)
  37:      3064.52    2.361109  ( -0.278220  -1.467173  -0.362084)
  38:      3146.42    1.716495  (  0.939223  -0.911444   0.060207)
  39:      3153.06    0.620288  ( -0.532719  -0.548133   0.189863)
  40:      3188.67    2.112544  ( -0.474641   1.371893  -0.071903)
  41:      3196.64    5.134548  ( -1.475069   1.716754   0.107127)
  42:      3360.80  154.466317  (-11.874405  -2.608938  -2.580361)
  43:      3574.97  151.622279  (  4.639299  -7.708826   8.406734)
  44:      3814.41  126.820712  (  9.630585  -1.007507  -5.749563)

--------------------------
THERMOCHEMISTRY AT 298.15K
--------------------------

Temperature         ... 298.15 K
Pressure            ... 1.00 atm
Total Mass          ... 102.11 AMU

Throughout the following assumptions are being made:
  (1) The electronic state is orbitally nondegenerate
  (2) There are no thermally accessible electronically excited states
  (3) Hindered rotations indicated by low frequency modes) are not
      treated as such but are treated as vibrations and this may
      case some error
  (4) All equations used are the standard statistical mechanics
      equations for an ideal gas
  (5) All vibrations are strinctly harmonic

------------
INNER ENERGY
------------

The inner energy is: U= E(el) + E(ZPE) + E(vib) + E(rot) + E(trans)
    E(el)   - is the total energy from the electronic structure calculation
              = E(kin-el) + E(nuc-el) + E(el-el) + E(nuc-nuc)
    E(ZPE)  - the the zero temperature vibrational energy from the frequency calculation
    E(vib)  - the the finite temperature correction to E(ZPE) due to population
              of excietd vibrational states
    E(rot)  - is the rotational thermal energy
    E(trans)- is the translational thermal energy

Summary of contributions to the inner energy U:
Electronic energy                ...   -361.90931045 Eh
Zero point energy                ...      0.12752561 Eh      80.02 kcal/mol
Thermal vibrational correction   ...      0.00429849 Eh       2.70 kcal/mol
Thermal rotational correction    ...      0.00141627 Eh       0.89 kcal/mol
Thermal translational correction ...      0.00141627 Eh       0.89 kcal/mol
-----------------------------------------------------------------------
Total thermal energy                   -361.77465380 Eh

Summary of corrections to the electronic energy:
(perhaps to be used in another calculation)
Total thermal correction                  0.00713104 Eh       4.47 kcal/mol
Non-thermal (ZPE) correction              0.12752561 Eh      80.02 kcal/mol
-----------------------------------------------------------------------
Total correction                          0.13465665 Eh      84.50 kcal/mol

--------
ENTHALPY
--------

The enthalpy is H = U + kB*T
                kB is Boltzmann's constant
Total free energy                 ...   -361.77465380 Eh
Thermal Enthalpy correction       ...      0.00094421 Eh       0.59 kcal/mol
-----------------------------------------------------------------------
Total Enthalpy                    ...   -361.77370959 Eh

-------
ENTROPY
-------

The entropy contributions are T*S = T*(S(el)+S(vib)+S(rot)+S(trans)
     S(el)   - electronic entropy
     S(vib)  - vibrational entropy
     S(rot)  - rotational entropy
     S(trans)- translational entropy
The entropies will be listed as mutliplied by the temperature to get
units of energy

Electronic entropy                ...      0.00000000 Eh      0.00 kcal/mol
Vibrational entropy               ...      0.00729154 Eh      4.58 kcal/mol
Rotational entropy                ...      0.01202471 Eh      7.55 kcal/mol
Translational entropy             ...      0.01890086 Eh     11.86 kcal/mol
-----------------------------------------------------------------------
Final entropy term                ...      0.03821710 Eh     23.98 kcal/mol

CAUTION: The rotational entropy is not quite correctly treated here
         because it includes a symmetry number that is not yet correctly
         implemented in ORCA!
For a nonlinear molecule the correct rotational entropy is:
    S(rot) = R*(ln(qrot/sn)+1.5)
    R    = 8.31441 J/mol/K = 1.987191683e-3 kcal/mol/K
    qrot = 227340.9461907
    sn is the rotational symmetry number. We have assumed 3 here
       if it is different for your molecule then you should correct
       the printed rotational entropy by manually evaluating the equation
       as given above

For convenience we print out the resulting values for sn=1 - 12:
 sn= 1  qrot/sn=  227340.9462 T*S(rot)=     8.20 kcal/mol T*S(tot)=    24.63 kcal/mol
 sn= 2  qrot/sn=  113670.4731 T*S(rot)=     7.79 kcal/mol T*S(tot)=    24.22 kcal/mol
 sn= 3  qrot/sn=   75780.3154 T*S(rot)=     7.55 kcal/mol T*S(tot)=    23.98 kcal/mol
 sn= 4  qrot/sn=   56835.2365 T*S(rot)=     7.38 kcal/mol T*S(tot)=    23.81 kcal/mol
 sn= 5  qrot/sn=   45468.1892 T*S(rot)=     7.24 kcal/mol T*S(tot)=    23.68 kcal/mol
 sn= 6  qrot/sn=   37890.1577 T*S(rot)=     7.13 kcal/mol T*S(tot)=    23.57 kcal/mol
 sn= 7  qrot/sn=   32477.2780 T*S(rot)=     7.04 kcal/mol T*S(tot)=    23.48 kcal/mol
 sn= 8  qrot/sn=   28417.6183 T*S(rot)=     6.96 kcal/mol T*S(tot)=    23.40 kcal/mol
 sn= 9  qrot/sn=   25260.1051 T*S(rot)=     6.89 kcal/mol T*S(tot)=    23.33 kcal/mol
 sn=10  qrot/sn=   22734.0946 T*S(rot)=     6.83 kcal/mol T*S(tot)=    23.27 kcal/mol
 sn=11  qrot/sn=   20667.3587 T*S(rot)=     6.78 kcal/mol T*S(tot)=    23.21 kcal/mol
 sn=12  qrot/sn=   18945.0788 T*S(rot)=     6.72 kcal/mol T*S(tot)=    23.16 kcal/mol

-------------------
GIBBS FREE ENTHALPY
-------------------

The Gibbs free enthalpy is G = H - T*S

Total enthalpy                    ...   -361.77370959 Eh
Total entropy correction          ...     -0.03821710 Eh    -23.98 kcal/mol
-----------------------------------------------------------------------
Final Gibbs free enthalpy         ...   -361.81192669 Eh

For completeness - the Gibbs free enthalpy minus the electronic energy
G-E(el)                           ...      0.09738376 Eh     61.11 kcal/mol

                             ****ORCA TERMINATED NORMALLY****
TOTAL RUN TIME: 0 days 0 hours 23 minutes 43 seconds 922 msec
