                         Program Version 3.0.3 - RELEASE   -
|  1> ! NORI PBE0 def2-TZVP UseSym TightOPT Freq TightSCF Grid3 FinalGrid5 XYZFile
|  2> % pal
|  3>     nprocs 8
|  4> end
|  5> %method
|  6>     SymThresh 5.0e-2
|  7> end
|  8> % geom
|  9>     MaxIter 10
| 10> end
| 11> % maxcore 2000
| 12> % output
| 13>     printlevel mini
| 14>     print[ P_Basis ] 0
| 15>     print[ P_SCFInfo ] 1
| 16>     print[ P_SCFIterInfo ] 1
| 17>     print[ P_OrbEn ] 0
| 18>     print[ P_Cartesian ] 0
| 19> end
| 20> % elprop
| 21>     Dipole false
| 22> end
| 23> *xyz 1 1
| 24>  C        0.8297554372    -0.0722492449    -0.2968774098
| 25>  C        2.3168307602     0.0486653848    -0.1599774643
| 26>  N        2.7241032144     0.4687458914     1.2222707253
| 27>  C        3.2486735160    -0.8476010551    -0.8969798664
| 28>  C        3.1648269048     0.6106855624    -1.2631451960
| 29>  C        4.3275957463     1.5192655989    -0.9430923642
| 30>  O        3.8925648723     2.4770111790     0.0300822022
| 31>  H        0.5752406881    -0.3564825584    -1.3173912411
| 32>  H        0.3292021580     0.8773107611    -0.0860656927
| 33>  H        0.4290894406    -0.8440447133     0.3667854567
| 34>  H        3.2699403188    -0.2454222711     1.7034384369
| 35>  H        1.8977782509     0.6619162922     1.7882040476
| 36>  H        3.2734515410     1.3601485292     1.1283188792
| 37>  H        4.1638487401    -1.1696496470    -0.4100994290
| 38>  H        2.8067324631    -1.5901874891    -1.5485599678
| 39>  H        2.6107530851     0.8687768404    -2.1581346259
| 40>  H        4.6608901132     2.0260043066    -1.8507371409
| 41>  H        5.1767411475     0.9491863220    -0.5483935636
| 42>  H        4.5593416025     3.1612203107     0.1473142137
| 43> *
| 44>
| 45>                          ****END OF INPUT****
 Total Charge           Charge          ....    1
 Multiplicity           Mult            ....    1
 Number of Electrons    NEL             ....   56
FINAL SINGLE POINT ENERGY      -327.210850240472
FINAL SINGLE POINT ENERGY      -327.210851579478
FINAL SINGLE POINT ENERGY      -327.210851934183

CARTESIAN COORDINATES (ANGSTROEM)
---------------------------------
  C      0.328096   -1.525507   -1.607134
  C      0.255647   -0.262335   -0.804379
  N      1.525112   -0.000164   -0.047992
  C     -0.509368    0.923583   -1.276148
  C     -0.999918    0.139344   -0.087407
  C     -0.928223    0.759502    1.287457
  O      0.000777    0.002128    2.072766
  H     -0.620367   -1.692535   -2.117164
  H      0.516270   -2.394656   -0.970449
  H      1.106056   -1.467595   -2.373945
  H      1.997371    0.849070   -0.355995
  H      2.173812   -0.777509   -0.172059
  H      1.275359    0.058688    0.971329
  H     -0.119487    1.915987   -1.073022
  H     -1.021905    0.833576   -2.225119
  H     -1.832860   -0.535360   -0.246181
  H     -1.916375    0.743719    1.751223
  H     -0.601971    1.804269    1.231929
  H     -0.039309    0.275833    2.994683

FINAL SINGLE POINT ENERGY      -327.210852736195
                    ***********************HURRAY********************
 Multiplicity           Mult            ....    1
 Number of Electrons    NEL             ....   56
 Basis Dimension        Dim             ....  289
FINAL SINGLE POINT ENERGY      -327.210852939263

VIBRATIONAL FREQUENCIES
-----------------------

   0:         0.00 cm**-1
   1:         0.00 cm**-1
   2:         0.00 cm**-1
   3:         0.00 cm**-1
   4:         0.00 cm**-1
   5:         0.00 cm**-1
   6:        52.74 cm**-1
   7:       179.57 cm**-1
   8:       239.01 cm**-1
   9:       256.48 cm**-1
  10:       292.71 cm**-1
  11:       352.57 cm**-1
  12:       375.64 cm**-1
  13:       392.39 cm**-1
  14:       432.40 cm**-1
  15:       440.21 cm**-1
  16:       588.68 cm**-1
  17:       717.56 cm**-1
  18:       800.76 cm**-1
  19:       880.37 cm**-1
  20:       923.34 cm**-1
  21:       950.81 cm**-1
  22:       974.63 cm**-1
  23:      1015.85 cm**-1
  24:      1036.31 cm**-1
  25:      1064.98 cm**-1
  26:      1085.69 cm**-1
  27:      1102.05 cm**-1
  28:      1134.55 cm**-1
  29:      1172.43 cm**-1
  30:      1196.69 cm**-1
  31:      1230.88 cm**-1
  32:      1276.08 cm**-1
  33:      1292.83 cm**-1
  34:      1329.01 cm**-1
  35:      1415.12 cm**-1
  36:      1427.42 cm**-1
  37:      1450.91 cm**-1
  38:      1482.20 cm**-1
  39:      1483.17 cm**-1
  40:      1506.07 cm**-1
  41:      1512.83 cm**-1
  42:      1523.02 cm**-1
  43:      1640.63 cm**-1
  44:      1685.35 cm**-1
  45:      2955.37 cm**-1
  46:      3041.89 cm**-1
  47:      3049.48 cm**-1
  48:      3114.38 cm**-1
  49:      3120.57 cm**-1
  50:      3146.69 cm**-1
  51:      3157.53 cm**-1
  52:      3192.53 cm**-1
  53:      3242.71 cm**-1
  54:      3472.84 cm**-1
  55:      3532.13 cm**-1
  56:      3849.86 cm**-1

IR SPECTRUM
-----------

 Mode    freq (cm**-1)   T**2         TX         TY         TZ
-------------------------------------------------------------------
   6:        52.74    3.616705  (  0.738522   1.658767  -0.565494)
   7:       179.57    2.060908  ( -0.783806  -0.480780   1.102454)
   8:       239.01    0.197018  ( -0.230015   0.373498   0.067894)
   9:       256.48    1.261454  ( -0.468743   0.927768   0.425419)
  10:       292.71   34.393001  (  3.187308  -0.516892  -4.895599)
  11:       352.57   12.833416  ( -0.093203  -0.171459   3.577056)
  12:       375.64   44.257558  (  2.131726   6.246722  -0.831726)
  13:       392.39   38.260623  (  4.312541   3.717798  -2.416732)
  14:       432.40   47.617327  (  5.179082   4.271672  -1.596012)
  15:       440.21    6.490195  ( -2.314541  -1.053030   0.155638)
  16:       588.68   24.015956  ( -0.992444  -0.553866   4.766995)
  17:       717.56    5.696206  ( -0.218669   1.197220  -2.053060)
  18:       800.76    4.923318  (  1.069940  -0.555936   1.862654)
  19:       880.37    0.349537  (  0.468962  -0.335403   0.130831)
  20:       923.34    1.199512  ( -0.748641  -0.696082   0.393087)
  21:       950.81    5.186127  (  1.437599  -1.669883   0.575263)
  22:       974.63    1.937025  ( -0.561514   0.813424  -0.979831)
  23:      1015.85   23.856579  (  3.016754  -3.278922  -2.001111)
  24:      1036.31   23.217335  ( -3.325632   2.198344  -2.706436)
  25:      1064.98   32.166026  ( -2.653066   0.843771  -4.941186)
  26:      1085.69   10.560426  (  1.779665   0.948881  -2.548106)
  27:      1102.05   11.021107  ( -1.067002   0.201962  -3.137168)
  28:      1134.55   14.306500  ( -2.885408   2.185781  -1.096940)
  29:      1172.43   10.379604  (  3.128342  -0.219703  -0.738113)
  30:      1196.69   68.025265  (  1.538944  -3.260685   7.417874)
  31:      1230.88   27.158736  ( -3.187395   3.903342   1.327846)
  32:      1276.08   24.649692  ( -4.205831   0.835891  -2.502392)
  33:      1292.83    4.617853  ( -0.057583   1.900893   1.000571)
  34:      1329.01    2.290348  (  0.496557  -1.395699  -0.309522)
  35:      1415.12   14.600831  ( -2.651126  -2.685553  -0.600139)
  36:      1427.42    1.464823  (  0.925022   0.333540   0.705626)
  37:      1450.91   21.236952  ( -1.944857  -1.107858  -4.028291)
  38:      1482.20   10.661339  ( -1.383223   2.172745  -2.006791)
  39:      1483.17   19.602826  (  4.288515   0.536680  -0.960959)
  40:      1506.07   10.160758  ( -2.243977   2.149576   0.710386)
  41:      1512.83  102.150204  ( -9.711826  -2.732354  -0.604055)
  42:      1523.02   58.157820  ( -7.296056   1.822374   1.266623)
  43:      1640.63    8.266930  (  2.847666   0.285777  -0.275785)
  44:      1685.35   23.707909  ( -1.917848   4.295276  -1.257128)
  45:      2955.37  575.418721  ( 10.067510  -2.873297 -21.582588)
  46:      3041.89   24.048753  ( -0.171822  -4.453081   2.046778)
  47:      3049.48    5.970170  ( -1.816797   1.523071   0.591332)
  48:      3114.38    5.309746  (  2.200507   0.345683  -0.589932)
  49:      3120.57    5.137890  ( -0.772991  -1.056833   1.850265)
  50:      3146.69    1.910013  (  1.251927   0.561797   0.164545)
  51:      3157.53    1.699409  (  0.793452  -0.940480  -0.430513)
  52:      3192.53    0.222295  ( -0.184010   0.415430   0.125909)
  53:      3242.71    0.163716  (  0.297325  -0.202586   0.185129)
  54:      3472.84   70.539673  ( -7.533804   0.331174   3.697539)
  55:      3532.13   75.879802  ( -0.826704   8.596187  -1.141023)
  56:      3849.86  114.199922  (  0.639917   1.202270  10.599291)

--------------------------
THERMOCHEMISTRY AT 298.15K
--------------------------

Temperature         ... 298.15 K
Pressure            ... 1.00 atm
Total Mass          ... 102.16 AMU

Throughout the following assumptions are being made:
  (1) The electronic state is orbitally nondegenerate
  (2) There are no thermally accessible electronically excited states
  (3) Hindered rotations indicated by low frequency modes) are not
      treated as such but are treated as vibrations and this may
      case some error
  (4) All equations used are the standard statistical mechanics
      equations for an ideal gas
  (5) All vibrations are strinctly harmonic

------------
INNER ENERGY
------------

The inner energy is: U= E(el) + E(ZPE) + E(vib) + E(rot) + E(trans)
    E(el)   - is the total energy from the electronic structure calculation
              = E(kin-el) + E(nuc-el) + E(el-el) + E(nuc-nuc)
    E(ZPE)  - the the zero temperature vibrational energy from the frequency calculation
    E(vib)  - the the finite temperature correction to E(ZPE) due to population
              of excietd vibrational states
    E(rot)  - is the rotational thermal energy
    E(trans)- is the translational thermal energy

Summary of contributions to the inner energy U:
Electronic energy                ...   -327.21085294 Eh
Zero point energy                ...      0.17494039 Eh     109.78 kcal/mol
Thermal vibrational correction   ...      0.00523682 Eh       3.29 kcal/mol
Thermal rotational correction    ...      0.00141627 Eh       0.89 kcal/mol
Thermal translational correction ...      0.00141627 Eh       0.89 kcal/mol
-----------------------------------------------------------------------
Total thermal energy                   -327.02784318 Eh

Summary of corrections to the electronic energy:
(perhaps to be used in another calculation)
Total thermal correction                  0.00806937 Eh       5.06 kcal/mol
Non-thermal (ZPE) correction              0.17494039 Eh     109.78 kcal/mol
-----------------------------------------------------------------------
Total correction                          0.18300976 Eh     114.84 kcal/mol

--------
ENTHALPY
--------

The enthalpy is H = U + kB*T
                kB is Boltzmann's constant
Total free energy                 ...   -327.02784318 Eh
Thermal Enthalpy correction       ...      0.00094421 Eh       0.59 kcal/mol
-----------------------------------------------------------------------
Total Enthalpy                    ...   -327.02689897 Eh

-------
ENTROPY
-------

The entropy contributions are T*S = T*(S(el)+S(vib)+S(rot)+S(trans)
     S(el)   - electronic entropy
     S(vib)  - vibrational entropy
     S(rot)  - rotational entropy
     S(trans)- translational entropy
The entropies will be listed as mutliplied by the temperature to get
units of energy

Electronic entropy                ...      0.00000000 Eh      0.00 kcal/mol
Vibrational entropy               ...      0.00906742 Eh      5.69 kcal/mol
Rotational entropy                ...      0.01202504 Eh      7.55 kcal/mol
Translational entropy             ...      0.01890147 Eh     11.86 kcal/mol
-----------------------------------------------------------------------
Final entropy term                ...      0.03999393 Eh     25.10 kcal/mol

CAUTION: The rotational entropy is not quite correctly treated here
         because it includes a symmetry number that is not yet correctly
         implemented in ORCA!
For a nonlinear molecule the correct rotational entropy is:
    S(rot) = R*(ln(qrot/sn)+1.5)
    R    = 8.31441 J/mol/K = 1.987191683e-3 kcal/mol/K
    qrot = 227421.9000572
    sn is the rotational symmetry number. We have assumed 3 here
       if it is different for your molecule then you should correct
       the printed rotational entropy by manually evaluating the equation
       as given above

For convenience we print out the resulting values for sn=1 - 12:
 sn= 1  qrot/sn=  227421.9001 T*S(rot)=     8.20 kcal/mol T*S(tot)=    25.75 kcal/mol
 sn= 2  qrot/sn=  113710.9500 T*S(rot)=     7.79 kcal/mol T*S(tot)=    25.34 kcal/mol
 sn= 3  qrot/sn=   75807.3000 T*S(rot)=     7.55 kcal/mol T*S(tot)=    25.10 kcal/mol
 sn= 4  qrot/sn=   56855.4750 T*S(rot)=     7.38 kcal/mol T*S(tot)=    24.93 kcal/mol
 sn= 5  qrot/sn=   45484.3800 T*S(rot)=     7.24 kcal/mol T*S(tot)=    24.79 kcal/mol
 sn= 6  qrot/sn=   37903.6500 T*S(rot)=     7.14 kcal/mol T*S(tot)=    24.69 kcal/mol
 sn= 7  qrot/sn=   32488.8429 T*S(rot)=     7.04 kcal/mol T*S(tot)=    24.59 kcal/mol
 sn= 8  qrot/sn=   28427.7375 T*S(rot)=     6.96 kcal/mol T*S(tot)=    24.52 kcal/mol
 sn= 9  qrot/sn=   25269.1000 T*S(rot)=     6.89 kcal/mol T*S(tot)=    24.45 kcal/mol
 sn=10  qrot/sn=   22742.1900 T*S(rot)=     6.83 kcal/mol T*S(tot)=    24.38 kcal/mol
 sn=11  qrot/sn=   20674.7182 T*S(rot)=     6.78 kcal/mol T*S(tot)=    24.33 kcal/mol
 sn=12  qrot/sn=   18951.8250 T*S(rot)=     6.72 kcal/mol T*S(tot)=    24.28 kcal/mol

-------------------
GIBBS FREE ENTHALPY
-------------------

The Gibbs free enthalpy is G = H - T*S

Total enthalpy                    ...   -327.02689897 Eh
Total entropy correction          ...     -0.03999393 Eh    -25.10 kcal/mol
-----------------------------------------------------------------------
Final Gibbs free enthalpy         ...   -327.06689290 Eh

For completeness - the Gibbs free enthalpy minus the electronic energy
G-E(el)                           ...      0.14396004 Eh     90.34 kcal/mol

                             ****ORCA TERMINATED NORMALLY****
TOTAL RUN TIME: 0 days 0 hours 41 minutes 48 seconds 784 msec
