                         Program Version 3.0.3 - RELEASE   -
|  1> ! NORI PBE0 def2-TZVP UseSym TightOPT Freq TightSCF Grid3 FinalGrid5 XYZFile
|  2> % pal
|  3>     nprocs 8
|  4> end
|  5> %method
|  6>     SymThresh 5.0e-2
|  7> end
|  8> % geom
|  9>     MaxIter 10
| 10> end
| 11> % maxcore 2000
| 12> % output
| 13>     printlevel mini
| 14>     print[ P_Basis ] 0
| 15>     print[ P_SCFInfo ] 1
| 16>     print[ P_SCFIterInfo ] 1
| 17>     print[ P_OrbEn ] 0
| 18>     print[ P_Cartesian ] 0
| 19> end
| 20> % elprop
| 21>     Dipole false
| 22> end
| 23> *xyz 1 1
| 24>  C        0.9957521767    -0.2275356364    -0.6282486488
| 25>  C        2.2951192264     0.3946540541    -0.2254324696
| 26>  N        2.2204287222     1.0938020430     1.0848187523
| 27>  C        3.6304182889    -0.2268538914    -0.5197879570
| 28>  C        3.2616459708     1.0832123526    -1.1571844488
| 29>  C        2.9981243319     1.2322265148    -2.6221701246
| 30>  O        3.8082830774     2.2152778283    -0.5340146655
| 31>  H        1.0995200413    -0.7262087101    -1.5904788173
| 32>  H        0.2015863432     0.5181130929    -0.7282934756
| 33>  H        0.6807246299    -0.9855618871     0.0942917306
| 34>  H        1.3348147389     1.5946913357     1.1815475629
| 35>  H        2.9855263465     1.7915412748     1.0846030703
| 36>  H        2.3179425095     0.4575295132     1.8772140119
| 37>  H        4.3984561338    -0.2060127685     0.2461666110
| 38>  H        3.6154218261    -1.1276926879    -1.1210918883
| 39>  H        3.9402927674     1.3815793295    -3.1549519929
| 40>  H        2.3556850344     2.0939948284    -2.8112443406
| 41>  H        2.5279039570     0.3425379294    -3.0405114012
| 42>  H        4.7026338778     2.3736054847    -0.8550015086
| 43> *
| 44>
| 45>                          ****END OF INPUT****
 Total Charge           Charge          ....    1
 Multiplicity           Mult            ....    1
 Number of Electrons    NEL             ....   56
FINAL SINGLE POINT ENERGY      -327.215784396846
FINAL SINGLE POINT ENERGY      -327.215785417727

CARTESIAN COORDINATES (ANGSTROEM)
---------------------------------
  C      0.333416   -0.671296   -1.908719
  C      0.441294    0.053181   -0.604259
  N      1.810081    0.000647   -0.025504
  C     -0.310561    1.317508   -0.299044
  C     -0.608752    0.066305    0.478682
  C     -1.898851   -0.681566    0.358296
  O      0.000238   -0.000438    1.741183
  H     -0.682556   -0.604900   -2.294004
  H      0.577708   -1.732527   -1.804927
  H      0.992140   -0.229627   -2.661496
  H      2.230632   -0.920227   -0.165168
  H      1.699980    0.151965    0.992783
  H      2.434006    0.702936   -0.425192
  H      0.199883    2.117309    0.227090
  H     -1.014125    1.648669   -1.052690
  H     -2.645047   -0.241609    1.024636
  H     -1.764692   -1.728080    0.637261
  H     -2.301255   -0.634003   -0.653285
  H     -0.532670    0.467092    2.393526

FINAL SINGLE POINT ENERGY      -327.215786089248
                    ***********************HURRAY********************
 Multiplicity           Mult            ....    1
 Number of Electrons    NEL             ....   56
 Basis Dimension        Dim             ....  289
FINAL SINGLE POINT ENERGY      -327.215786248674

VIBRATIONAL FREQUENCIES
-----------------------

   0:         0.00 cm**-1
   1:         0.00 cm**-1
   2:         0.00 cm**-1
   3:         0.00 cm**-1
   4:         0.00 cm**-1
   5:         0.00 cm**-1
   6:       176.46 cm**-1
   7:       192.46 cm**-1
   8:       204.61 cm**-1
   9:       251.19 cm**-1
  10:       257.94 cm**-1
  11:       318.44 cm**-1
  12:       342.94 cm**-1
  13:       369.55 cm**-1
  14:       396.96 cm**-1
  15:       439.10 cm**-1
  16:       474.19 cm**-1
  17:       539.66 cm**-1
  18:       692.23 cm**-1
  19:       728.51 cm**-1
  20:       874.47 cm**-1
  21:       922.30 cm**-1
  22:       925.72 cm**-1
  23:       958.14 cm**-1
  24:       987.71 cm**-1
  25:      1033.28 cm**-1
  26:      1042.51 cm**-1
  27:      1066.74 cm**-1
  28:      1092.49 cm**-1
  29:      1196.62 cm**-1
  30:      1207.89 cm**-1
  31:      1227.41 cm**-1
  32:      1295.81 cm**-1
  33:      1334.08 cm**-1
  34:      1408.84 cm**-1
  35:      1421.98 cm**-1
  36:      1433.29 cm**-1
  37:      1467.58 cm**-1
  38:      1471.28 cm**-1
  39:      1478.09 cm**-1
  40:      1480.51 cm**-1
  41:      1487.71 cm**-1
  42:      1520.44 cm**-1
  43:      1639.59 cm**-1
  44:      1662.47 cm**-1
  45:      3052.58 cm**-1
  46:      3064.77 cm**-1
  47:      3120.69 cm**-1
  48:      3137.34 cm**-1
  49:      3149.22 cm**-1
  50:      3159.58 cm**-1
  51:      3169.39 cm**-1
  52:      3243.69 cm**-1
  53:      3259.16 cm**-1
  54:      3456.65 cm**-1
  55:      3510.15 cm**-1
  56:      3833.83 cm**-1

IR SPECTRUM
-----------

 Mode    freq (cm**-1)   T**2         TX         TY         TZ
-------------------------------------------------------------------
   6:       176.46    2.650962  ( -0.207956   1.595930   0.246423)
   7:       192.46    0.534229  ( -0.477644   0.494505   0.248093)
   8:       204.61    0.833094  (  0.034122   0.885772  -0.217571)
   9:       251.19    4.180601  (  1.309726  -1.157823  -1.060501)
  10:       257.94    8.860608  ( -1.153811  -2.743167  -0.066041)
  11:       318.44   85.508645  (  4.743815   6.354630  -4.756420)
  12:       342.94   30.331747  ( -0.219385  -5.455216  -0.724039)
  13:       369.55   11.096923  (  0.132318  -2.385583  -2.321294)
  14:       396.96   16.677752  (  2.578915   2.441467  -2.016479)
  15:       439.10    7.644391  (  2.560176   0.983450   0.350310)
  16:       474.19   12.725493  (  2.955371   1.503601  -1.315469)
  17:       539.66    6.928998  ( -1.998447  -1.534291  -0.762338)
  18:       692.23    2.132207  (  0.454742   0.598588   1.251842)
  19:       728.51    8.782086  (  1.857364   1.285290   1.918415)
  20:       874.47   11.570479  ( -1.110796   0.505473   3.175076)
  21:       922.30    3.415834  (  0.740118   0.550372  -1.601609)
  22:       925.72    6.391453  (  0.166997   1.357507   2.126203)
  23:       958.14    5.267847  (  1.385163  -0.511150   1.757241)
  24:       987.71   12.379425  (  2.918724  -0.851753  -1.770592)
  25:      1033.28   31.249075  ( -2.288204   1.198715   4.957447)
  26:      1042.51   12.029951  ( -1.858782   1.124372  -2.703825)
  27:      1066.74    3.643745  (  0.544400   1.447914   1.118445)
  28:      1092.49   26.819131  ( -0.396447   1.012346   5.063311)
  29:      1196.62   37.842214  ( -3.034678  -3.482913   4.062297)
  30:      1207.89   10.871282  ( -1.766905  -0.079451   2.782628)
  31:      1227.41  125.479408  ( -5.520601   1.563668  -9.620671)
  32:      1295.81    6.859912  ( -0.138086   1.847557   1.851318)
  33:      1334.08   14.086744  (  3.442690  -0.961671   1.144472)
  34:      1408.84    7.704529  ( -1.723867  -1.793568  -1.231229)
  35:      1421.98    3.502458  (  1.832884   0.364644  -0.100153)
  36:      1433.29   41.516829  (  5.288617   0.907522   3.567039)
  37:      1467.58  110.928739  (-10.412855   1.077640  -1.157531)
  38:      1471.28   25.916283  (  2.912768  -2.270871   3.503600)
  39:      1478.09   11.799185  (  3.165865   1.195677   0.588932)
  40:      1480.51   28.218939  ( -4.848787  -0.246071  -2.155842)
  41:      1487.71   13.292430  (  0.331355  -3.262998   1.592317)
  42:      1520.44   24.404846  (  3.216680   3.268599   1.836865)
  43:      1639.59   20.236126  ( -2.268356   3.346582   1.972581)
  44:      1662.47   32.973753  ( -1.321211  -4.321895   3.542509)
  45:      3052.58    5.530786  ( -1.752377   1.104173   1.113896)
  46:      3064.77    2.159081  ( -1.238947  -0.664924   0.426576)
  47:      3120.69    4.153441  ( -0.422396  -1.689880   1.057983)
  48:      3137.34    3.869137  ( -0.564011   1.405364   1.255381)
  49:      3149.22    1.234877  (  0.702768  -0.660831   0.551631)
  50:      3159.58    3.466209  (  0.237146   0.618405  -1.739984)
  51:      3169.39    0.997219  (  0.662356  -0.704775   0.248586)
  52:      3243.69    0.247708  ( -0.443869   0.156531  -0.161822)
  53:      3259.16  150.655759  ( -3.891377   1.104871  11.588451)
  54:      3456.65   77.086746  (  7.032532  -2.119978  -4.809982)
  55:      3510.15   77.309835  ( -1.964009  -8.377649   1.807624)
  56:      3833.83  103.891584  ( -3.704016   3.671065   8.757576)

--------------------------
THERMOCHEMISTRY AT 298.15K
--------------------------

Temperature         ... 298.15 K
Pressure            ... 1.00 atm
Total Mass          ... 102.16 AMU

Throughout the following assumptions are being made:
  (1) The electronic state is orbitally nondegenerate
  (2) There are no thermally accessible electronically excited states
  (3) Hindered rotations indicated by low frequency modes) are not
      treated as such but are treated as vibrations and this may
      case some error
  (4) All equations used are the standard statistical mechanics
      equations for an ideal gas
  (5) All vibrations are strinctly harmonic

------------
INNER ENERGY
------------

The inner energy is: U= E(el) + E(ZPE) + E(vib) + E(rot) + E(trans)
    E(el)   - is the total energy from the electronic structure calculation
              = E(kin-el) + E(nuc-el) + E(el-el) + E(nuc-nuc)
    E(ZPE)  - the the zero temperature vibrational energy from the frequency calculation
    E(vib)  - the the finite temperature correction to E(ZPE) due to population
              of excietd vibrational states
    E(rot)  - is the rotational thermal energy
    E(trans)- is the translational thermal energy

Summary of contributions to the inner energy U:
Electronic energy                ...   -327.21578625 Eh
Zero point energy                ...      0.17354678 Eh     108.90 kcal/mol
Thermal vibrational correction   ...      0.00551990 Eh       3.46 kcal/mol
Thermal rotational correction    ...      0.00141627 Eh       0.89 kcal/mol
Thermal translational correction ...      0.00141627 Eh       0.89 kcal/mol
-----------------------------------------------------------------------
Total thermal energy                   -327.03388703 Eh

Summary of corrections to the electronic energy:
(perhaps to be used in another calculation)
Total thermal correction                  0.00835244 Eh       5.24 kcal/mol
Non-thermal (ZPE) correction              0.17354678 Eh     108.90 kcal/mol
-----------------------------------------------------------------------
Total correction                          0.18189922 Eh     114.14 kcal/mol

--------
ENTHALPY
--------

The enthalpy is H = U + kB*T
                kB is Boltzmann's constant
Total free energy                 ...   -327.03388703 Eh
Thermal Enthalpy correction       ...      0.00094421 Eh       0.59 kcal/mol
-----------------------------------------------------------------------
Total Enthalpy                    ...   -327.03294282 Eh

-------
ENTROPY
-------

The entropy contributions are T*S = T*(S(el)+S(vib)+S(rot)+S(trans)
     S(el)   - electronic entropy
     S(vib)  - vibrational entropy
     S(rot)  - rotational entropy
     S(trans)- translational entropy
The entropies will be listed as mutliplied by the temperature to get
units of energy

Electronic entropy                ...      0.00000000 Eh      0.00 kcal/mol
Vibrational entropy               ...      0.00882012 Eh      5.53 kcal/mol
Rotational entropy                ...      0.01197095 Eh      7.51 kcal/mol
Translational entropy             ...      0.01890147 Eh     11.86 kcal/mol
-----------------------------------------------------------------------
Final entropy term                ...      0.03969253 Eh     24.91 kcal/mol

CAUTION: The rotational entropy is not quite correctly treated here
         because it includes a symmetry number that is not yet correctly
         implemented in ORCA!
For a nonlinear molecule the correct rotational entropy is:
    S(rot) = R*(ln(qrot/sn)+1.5)
    R    = 8.31441 J/mol/K = 1.987191683e-3 kcal/mol/K
    qrot = 214758.8742500
    sn is the rotational symmetry number. We have assumed 3 here
       if it is different for your molecule then you should correct
       the printed rotational entropy by manually evaluating the equation
       as given above

For convenience we print out the resulting values for sn=1 - 12:
 sn= 1  qrot/sn=  214758.8743 T*S(rot)=     8.16 kcal/mol T*S(tot)=    25.56 kcal/mol
 sn= 2  qrot/sn=  107379.4371 T*S(rot)=     7.75 kcal/mol T*S(tot)=    25.15 kcal/mol
 sn= 3  qrot/sn=   71586.2914 T*S(rot)=     7.51 kcal/mol T*S(tot)=    24.91 kcal/mol
 sn= 4  qrot/sn=   53689.7186 T*S(rot)=     7.34 kcal/mol T*S(tot)=    24.74 kcal/mol
 sn= 5  qrot/sn=   42951.7749 T*S(rot)=     7.21 kcal/mol T*S(tot)=    24.60 kcal/mol
 sn= 6  qrot/sn=   35793.1457 T*S(rot)=     7.10 kcal/mol T*S(tot)=    24.50 kcal/mol
 sn= 7  qrot/sn=   30679.8392 T*S(rot)=     7.01 kcal/mol T*S(tot)=    24.41 kcal/mol
 sn= 8  qrot/sn=   26844.8593 T*S(rot)=     6.93 kcal/mol T*S(tot)=    24.33 kcal/mol
 sn= 9  qrot/sn=   23862.0971 T*S(rot)=     6.86 kcal/mol T*S(tot)=    24.26 kcal/mol
 sn=10  qrot/sn=   21475.8874 T*S(rot)=     6.80 kcal/mol T*S(tot)=    24.19 kcal/mol
 sn=11  qrot/sn=   19523.5340 T*S(rot)=     6.74 kcal/mol T*S(tot)=    24.14 kcal/mol
 sn=12  qrot/sn=   17896.5729 T*S(rot)=     6.69 kcal/mol T*S(tot)=    24.09 kcal/mol

-------------------
GIBBS FREE ENTHALPY
-------------------

The Gibbs free enthalpy is G = H - T*S

Total enthalpy                    ...   -327.03294282 Eh
Total entropy correction          ...     -0.03969253 Eh    -24.91 kcal/mol
-----------------------------------------------------------------------
Final Gibbs free enthalpy         ...   -327.07263535 Eh

For completeness - the Gibbs free enthalpy minus the electronic energy
G-E(el)                           ...      0.14315090 Eh     89.83 kcal/mol

                             ****ORCA TERMINATED NORMALLY****
TOTAL RUN TIME: 0 days 0 hours 39 minutes 49 seconds 516 msec
