                         Program Version 3.0.3 - RELEASE   -
|  1> ! NORI PBE0 def2-TZVP UseSym TightOPT Freq TightSCF Grid3 FinalGrid5 XYZFile
|  2> % pal
|  3>     nprocs 8
|  4> end
|  5> %method
|  6>     SymThresh 5.0e-2
|  7> end
|  8> % geom
|  9>     MaxIter 10
| 10> end
| 11> % maxcore 2000
| 12> % output
| 13>     printlevel mini
| 14>     print[ P_Basis ] 0
| 15>     print[ P_SCFInfo ] 1
| 16>     print[ P_SCFIterInfo ] 1
| 17>     print[ P_OrbEn ] 0
| 18>     print[ P_Cartesian ] 0
| 19> end
| 20> % elprop
| 21>     Dipole false
| 22> end
| 23> *xyz 1 1
| 24>  C        1.0133465692     0.0764933216    -0.0530872901
| 25>  C        2.5061541057    -0.0085342110     0.0213916888
| 26>  N        3.2037413823     1.0701669928     0.8542512073
| 27>  C        4.2295528987     0.0544890078     1.2982972102
| 28>  C        3.2614845904    -1.0799229909     0.8698529787
| 29>  C        2.4663914585    -1.6369274176     2.0271748832
| 30>  O        3.7914361197    -2.1539767766     0.1853166329
| 31>  H        0.6876425085     0.9652316979    -0.5983845364
| 32>  H        0.5476853663     0.0728644167     0.9342931273
| 33>  H        0.6416375111    -0.7938535082    -0.5984551370
| 34>  H        2.9623394629     0.0493287796    -0.9707946121
| 35>  H        2.6151163459     1.3863156571     1.6244695045
| 36>  H        3.5468159653     1.8910488163     0.3583093761
| 37>  H        4.5089272743     0.1512974567     2.3455391552
| 38>  H        5.1071809787     0.1399645627     0.6584848248
| 39>  H        1.6638218228    -2.2766234087     1.6585036153
| 40>  H        2.0280419119    -0.8536406609     2.6510007866
| 41>  H        3.1253938332    -2.2413132272     2.6520324656
| 42>  H        4.3180198946    -1.8757085080    -0.5711058809
| 43> *
| 44>
| 45>                          ****END OF INPUT****
 Total Charge           Charge          ....    1
 Multiplicity           Mult            ....    1
 Number of Electrons    NEL             ....   56
FINAL SINGLE POINT ENERGY      -327.212306232740
FINAL SINGLE POINT ENERGY      -327.212307380450

CARTESIAN COORDINATES (ANGSTROEM)
---------------------------------
  C     -1.075062   -1.482954   -1.146410
  C      0.090291   -0.878905   -0.426502
  N      1.021705    0.000051   -1.265797
  C      1.234020    0.902014   -0.073030
  C     -0.045177    0.310854    0.576126
  C     -1.262692    1.177934    0.359239
  O     -0.000420   -0.000928    1.918828
  H     -0.753086   -2.218666   -1.886419
  H     -1.694081   -0.729556   -1.637152
  H     -1.700733   -2.004962   -0.419082
  H      0.732575   -1.646815    0.013517
  H      0.515417    0.466892   -2.017600
  H      1.846103   -0.445199   -1.665088
  H      1.262768    1.958997   -0.329916
  H      2.153192    0.605513    0.431814
  H     -2.165115    0.636274    0.644135
  H     -1.366351    1.506116   -0.677938
  H     -1.183173    2.064120    0.990078
  H      0.759353   -0.550643    2.136669

FINAL SINGLE POINT ENERGY      -327.212308017371
                    ***********************HURRAY********************
 Multiplicity           Mult            ....    1
 Number of Electrons    NEL             ....   56
 Basis Dimension        Dim             ....  289
FINAL SINGLE POINT ENERGY      -327.212308163712

VIBRATIONAL FREQUENCIES
-----------------------

   0:         0.00 cm**-1
   1:         0.00 cm**-1
   2:         0.00 cm**-1
   3:         0.00 cm**-1
   4:         0.00 cm**-1
   5:         0.00 cm**-1
   6:       125.71 cm**-1
   7:       217.29 cm**-1
   8:       238.38 cm**-1
   9:       257.71 cm**-1
  10:       269.20 cm**-1
  11:       351.58 cm**-1
  12:       359.05 cm**-1
  13:       403.32 cm**-1
  14:       451.20 cm**-1
  15:       514.75 cm**-1
  16:       637.78 cm**-1
  17:       727.77 cm**-1
  18:       802.32 cm**-1
  19:       864.92 cm**-1
  20:       895.70 cm**-1
  21:       908.25 cm**-1
  22:       941.74 cm**-1
  23:       976.05 cm**-1
  24:      1014.93 cm**-1
  25:      1054.37 cm**-1
  26:      1111.31 cm**-1
  27:      1138.85 cm**-1
  28:      1148.50 cm**-1
  29:      1191.39 cm**-1
  30:      1241.86 cm**-1
  31:      1264.63 cm**-1
  32:      1298.65 cm**-1
  33:      1309.68 cm**-1
  34:      1355.23 cm**-1
  35:      1375.30 cm**-1
  36:      1389.66 cm**-1
  37:      1418.19 cm**-1
  38:      1437.60 cm**-1
  39:      1466.19 cm**-1
  40:      1476.33 cm**-1
  41:      1481.64 cm**-1
  42:      1490.13 cm**-1
  43:      1498.49 cm**-1
  44:      1644.29 cm**-1
  45:      3061.54 cm**-1
  46:      3064.52 cm**-1
  47:      3091.93 cm**-1
  48:      3113.42 cm**-1
  49:      3141.78 cm**-1
  50:      3142.11 cm**-1
  51:      3148.17 cm**-1
  52:      3161.83 cm**-1
  53:      3189.16 cm**-1
  54:      3468.97 cm**-1
  55:      3539.10 cm**-1
  56:      3836.34 cm**-1

IR SPECTRUM
-----------

 Mode    freq (cm**-1)   T**2         TX         TY         TZ
-------------------------------------------------------------------
   6:       125.71    2.706692  ( -1.082557   1.161725   0.430299)
   7:       217.29    0.751162  (  0.158057   0.835782   0.166279)
   8:       238.38    0.227904  ( -0.026046   0.103610  -0.465286)
   9:       257.71    2.531982  (  0.066346   1.447302   0.657949)
  10:       269.20    6.203869  ( -1.883866  -1.564381  -0.455662)
  11:       351.58    7.698184  ( -2.146180  -1.717840  -0.375661)
  12:       359.05  106.017433  ( -5.540786  -8.448630  -1.984384)
  13:       403.32    4.337982  ( -1.383156   0.371352  -1.512270)
  14:       451.20    3.206394  ( -0.857051   1.259230  -0.941380)
  15:       514.75    3.252308  ( -1.642272   0.724380  -0.174707)
  16:       637.78    7.870533  (  1.488537  -0.732882  -2.262228)
  17:       727.77    4.812811  ( -1.235393   1.625838  -0.802040)
  18:       802.32    4.271525  (  1.123988   1.667996   0.475357)
  19:       864.92    5.687296  (  2.293125   0.381305   0.532428)
  20:       895.70    5.878296  ( -1.092531  -1.944523  -0.950529)
  21:       908.25    1.653386  ( -1.175672   0.390101  -0.344969)
  22:       941.74    3.193372  (  0.166914   1.742942   0.357301)
  23:       976.05    2.260154  (  0.096085  -1.300787  -0.747578)
  24:      1014.93   35.415271  ( -0.059851  -2.518826   5.391401)
  25:      1054.37    7.049647  ( -2.586383  -0.529680   0.282328)
  26:      1111.31    6.171309  ( -2.035957  -0.992100  -1.020747)
  27:      1138.85   43.417109  ( -0.579068   0.471933  -6.546684)
  28:      1148.50   20.898133  (  1.385548   3.088948  -3.071936)
  29:      1191.39   25.654404  ( -2.729123  -4.261681   0.210637)
  30:      1241.86   41.436452  (  3.221400   2.662774   4.895781)
  31:      1264.63   47.950814  (  1.306233   1.567624  -6.617184)
  32:      1298.65   25.744293  ( -2.033479  -4.567775  -0.862955)
  33:      1309.68   10.692073  (  1.074682   2.842648  -1.206850)
  34:      1355.23   78.289487  ( -1.571463  -0.706548   8.678755)
  35:      1375.30   19.208194  ( -2.557564  -1.180273   3.357681)
  36:      1389.66    2.989951  (  0.658379  -0.918950   1.308442)
  37:      1418.19   18.588490  ( -3.705984  -1.087505  -1.916117)
  38:      1437.60   14.689570  ( -2.806029   2.501124   0.748433)
  39:      1466.19   11.687196  ( -1.122269  -2.753623  -1.686792)
  40:      1476.33    9.758538  (  2.159559  -1.476870  -1.706956)
  41:      1481.64   19.362978  ( -1.477329  -3.648215   1.967488)
  42:      1490.13    6.788876  (  2.029508   0.009672   1.633977)
  43:      1498.49    3.219020  ( -1.635163   0.688021  -0.268119)
  44:      1644.29   73.037381  (  2.356649   0.895318  -8.165904)
  45:      3061.54    0.483243  (  0.417951   0.491237   0.259319)
  46:      3064.52    7.010660  ( -0.036981  -0.558095   2.588015)
  47:      3091.93    3.945983  ( -1.562329   0.142699  -1.218502)
  48:      3113.42    1.062067  ( -0.764047   0.022300  -0.691232)
  49:      3141.78    4.762109  (  0.821825   0.215254  -2.010069)
  50:      3142.11    2.678884  (  0.076532  -1.263922  -1.037077)
  51:      3148.17    3.807033  ( -1.161463   1.005398  -1.203001)
  52:      3161.83    0.861544  (  0.618147   0.689764  -0.060534)
  53:      3189.16    0.320425  ( -0.255909  -0.504833  -0.008876)
  54:      3468.97   57.430614  (  2.668267   0.250475  -7.088599)
  55:      3539.10   77.987906  ( -7.444304   4.625059  -1.085851)
  56:      3836.34   47.570829  ( -3.782364   3.239565  -4.771768)

--------------------------
THERMOCHEMISTRY AT 298.15K
--------------------------

Temperature         ... 298.15 K
Pressure            ... 1.00 atm
Total Mass          ... 102.16 AMU

Throughout the following assumptions are being made:
  (1) The electronic state is orbitally nondegenerate
  (2) There are no thermally accessible electronically excited states
  (3) Hindered rotations indicated by low frequency modes) are not
      treated as such but are treated as vibrations and this may
      case some error
  (4) All equations used are the standard statistical mechanics
      equations for an ideal gas
  (5) All vibrations are strinctly harmonic

------------
INNER ENERGY
------------

The inner energy is: U= E(el) + E(ZPE) + E(vib) + E(rot) + E(trans)
    E(el)   - is the total energy from the electronic structure calculation
              = E(kin-el) + E(nuc-el) + E(el-el) + E(nuc-nuc)
    E(ZPE)  - the the zero temperature vibrational energy from the frequency calculation
    E(vib)  - the the finite temperature correction to E(ZPE) due to population
              of excietd vibrational states
    E(rot)  - is the rotational thermal energy
    E(trans)- is the translational thermal energy

Summary of contributions to the inner energy U:
Electronic energy                ...   -327.21230816 Eh
Zero point energy                ...      0.17475556 Eh     109.66 kcal/mol
Thermal vibrational correction   ...      0.00499267 Eh       3.13 kcal/mol
Thermal rotational correction    ...      0.00141627 Eh       0.89 kcal/mol
Thermal translational correction ...      0.00141627 Eh       0.89 kcal/mol
-----------------------------------------------------------------------
Total thermal energy                   -327.02972739 Eh

Summary of corrections to the electronic energy:
(perhaps to be used in another calculation)
Total thermal correction                  0.00782521 Eh       4.91 kcal/mol
Non-thermal (ZPE) correction              0.17475556 Eh     109.66 kcal/mol
-----------------------------------------------------------------------
Total correction                          0.18258077 Eh     114.57 kcal/mol

--------
ENTHALPY
--------

The enthalpy is H = U + kB*T
                kB is Boltzmann's constant
Total free energy                 ...   -327.02972739 Eh
Thermal Enthalpy correction       ...      0.00094421 Eh       0.59 kcal/mol
-----------------------------------------------------------------------
Total Enthalpy                    ...   -327.02878319 Eh

-------
ENTROPY
-------

The entropy contributions are T*S = T*(S(el)+S(vib)+S(rot)+S(trans)
     S(el)   - electronic entropy
     S(vib)  - vibrational entropy
     S(rot)  - rotational entropy
     S(trans)- translational entropy
The entropies will be listed as mutliplied by the temperature to get
units of energy

Electronic entropy                ...      0.00000000 Eh      0.00 kcal/mol
Vibrational entropy               ...      0.00803772 Eh      5.04 kcal/mol
Rotational entropy                ...      0.01197080 Eh      7.51 kcal/mol
Translational entropy             ...      0.01890147 Eh     11.86 kcal/mol
-----------------------------------------------------------------------
Final entropy term                ...      0.03890998 Eh     24.42 kcal/mol

CAUTION: The rotational entropy is not quite correctly treated here
         because it includes a symmetry number that is not yet correctly
         implemented in ORCA!
For a nonlinear molecule the correct rotational entropy is:
    S(rot) = R*(ln(qrot/sn)+1.5)
    R    = 8.31441 J/mol/K = 1.987191683e-3 kcal/mol/K
    qrot = 214725.0388889
    sn is the rotational symmetry number. We have assumed 3 here
       if it is different for your molecule then you should correct
       the printed rotational entropy by manually evaluating the equation
       as given above

For convenience we print out the resulting values for sn=1 - 12:
 sn= 1  qrot/sn=  214725.0389 T*S(rot)=     8.16 kcal/mol T*S(tot)=    25.07 kcal/mol
 sn= 2  qrot/sn=  107362.5194 T*S(rot)=     7.75 kcal/mol T*S(tot)=    24.66 kcal/mol
 sn= 3  qrot/sn=   71575.0130 T*S(rot)=     7.51 kcal/mol T*S(tot)=    24.42 kcal/mol
 sn= 4  qrot/sn=   53681.2597 T*S(rot)=     7.34 kcal/mol T*S(tot)=    24.25 kcal/mol
 sn= 5  qrot/sn=   42945.0078 T*S(rot)=     7.21 kcal/mol T*S(tot)=    24.11 kcal/mol
 sn= 6  qrot/sn=   35787.5065 T*S(rot)=     7.10 kcal/mol T*S(tot)=    24.01 kcal/mol
 sn= 7  qrot/sn=   30675.0056 T*S(rot)=     7.01 kcal/mol T*S(tot)=    23.91 kcal/mol
 sn= 8  qrot/sn=   26840.6299 T*S(rot)=     6.93 kcal/mol T*S(tot)=    23.84 kcal/mol
 sn= 9  qrot/sn=   23858.3377 T*S(rot)=     6.86 kcal/mol T*S(tot)=    23.77 kcal/mol
 sn=10  qrot/sn=   21472.5039 T*S(rot)=     6.80 kcal/mol T*S(tot)=    23.70 kcal/mol
 sn=11  qrot/sn=   19520.4581 T*S(rot)=     6.74 kcal/mol T*S(tot)=    23.65 kcal/mol
 sn=12  qrot/sn=   17893.7532 T*S(rot)=     6.69 kcal/mol T*S(tot)=    23.59 kcal/mol

-------------------
GIBBS FREE ENTHALPY
-------------------

The Gibbs free enthalpy is G = H - T*S

Total enthalpy                    ...   -327.02878319 Eh
Total entropy correction          ...     -0.03890998 Eh    -24.42 kcal/mol
-----------------------------------------------------------------------
Final Gibbs free enthalpy         ...   -327.06769317 Eh

For completeness - the Gibbs free enthalpy minus the electronic energy
G-E(el)                           ...      0.14461500 Eh     90.75 kcal/mol

                             ****ORCA TERMINATED NORMALLY****
TOTAL RUN TIME: 0 days 0 hours 42 minutes 5 seconds 166 msec
