                         Program Version 3.0.3 - RELEASE   -
|  1> ! NORI PBE0 def2-TZVP UseSym TightOPT Freq TightSCF Grid3 FinalGrid5 XYZFile
|  2> % pal
|  3>     nprocs 8
|  4> end
|  5> %method
|  6>     SymThresh 5.0e-2
|  7> end
|  8> % geom
|  9>     MaxIter 10
| 10> end
| 11> % maxcore 2000
| 12> % output
| 13>     printlevel mini
| 14>     print[ P_Basis ] 0
| 15>     print[ P_SCFInfo ] 1
| 16>     print[ P_SCFIterInfo ] 1
| 17>     print[ P_OrbEn ] 0
| 18>     print[ P_Cartesian ] 0
| 19> end
| 20> % elprop
| 21>     Dipole false
| 22> end
| 23> *xyz 1 1
| 24>  C        1.0303272035     0.0343795760     0.0872459495
| 25>  C        2.5215905328    -0.0836352918     0.0321501340
| 26>  N        3.2985313122     1.0725070209     0.6760406390
| 27>  C        4.2552213599     0.0609369600     1.2671982915
| 28>  C        3.2606365902    -1.0664826255     0.9688817308
| 29>  C        3.8008752523    -2.3144187673     0.3043584360
| 30>  O        3.4200546393    -3.4093108358     0.5769099861
| 31>  H        0.6680456400     0.8598431453    -0.5292757986
| 32>  H        0.6717375040     0.1604941929     1.1118574049
| 33>  H        0.5923571134    -0.8867873740    -0.3038205695
| 34>  H        2.8914784614    -0.1605316903    -0.9936005136
| 35>  H        2.7430173788     1.5482052473     1.3874073213
| 36>  H        3.6904309780     1.7773010166     0.0518127243
| 37>  H        4.5131897381     0.2721449771     2.3016814992
| 38>  H        5.1552600794     0.0267299292     0.6528826709
| 39>  H        2.6545236905    -1.3503801971     1.8302221570
| 40>  H        4.5702425262    -2.1365352835    -0.4804620630
| 41> *
| 42>
| 43>                          ****END OF INPUT****
 Total Charge           Charge          ....    1
 Multiplicity           Mult            ....    1
 Number of Electrons    NEL             ....   54
FINAL SINGLE POINT ENERGY      -325.984610808030

CARTESIAN COORDINATES (ANGSTROEM)
---------------------------------
  C     -1.970201    0.085108   -1.096432
  C     -0.579439   -0.372963   -0.784800
  N      0.486343    0.000014   -1.823776
  C      1.430889    0.335088   -0.690776
  C      0.256568    0.353247    0.294017
  C      0.428212   -0.397446    1.597056
  O      0.000185    0.000715    2.634469
  H     -2.379281   -0.431443   -1.967369
  H     -2.013947    1.164784   -1.259629
  H     -2.612872   -0.145306   -0.243712
  H     -0.519436   -1.458235   -0.668205
  H      0.214177    0.822595   -2.362539
  H      0.778331   -0.727450   -2.475938
  H      1.988774    1.252952   -0.858230
  H      2.114881   -0.501377   -0.543647
  H     -0.120326    1.355612    0.502232
  H      0.966779   -1.368371    1.515783

FINAL SINGLE POINT ENERGY      -325.984611230942
                    ***********************HURRAY********************
 Multiplicity           Mult            ....    1
 Number of Electrons    NEL             ....   54
 Basis Dimension        Dim             ....  277
FINAL SINGLE POINT ENERGY      -325.984610962685

VIBRATIONAL FREQUENCIES
-----------------------

   0:         0.00 cm**-1
   1:         0.00 cm**-1
   2:         0.00 cm**-1
   3:         0.00 cm**-1
   4:         0.00 cm**-1
   5:         0.00 cm**-1
   6:        43.68 cm**-1
   7:        99.34 cm**-1
   8:       223.36 cm**-1
   9:       240.91 cm**-1
  10:       261.51 cm**-1
  11:       353.02 cm**-1
  12:       447.02 cm**-1
  13:       462.41 cm**-1
  14:       659.71 cm**-1
  15:       790.82 cm**-1
  16:       835.85 cm**-1
  17:       875.10 cm**-1
  18:       914.92 cm**-1
  19:       935.01 cm**-1
  20:       959.04 cm**-1
  21:      1021.66 cm**-1
  22:      1082.69 cm**-1
  23:      1090.22 cm**-1
  24:      1119.16 cm**-1
  25:      1165.55 cm**-1
  26:      1181.07 cm**-1
  27:      1267.08 cm**-1
  28:      1268.86 cm**-1
  29:      1292.40 cm**-1
  30:      1310.29 cm**-1
  31:      1328.39 cm**-1
  32:      1366.55 cm**-1
  33:      1391.13 cm**-1
  34:      1411.98 cm**-1
  35:      1419.43 cm**-1
  36:      1478.09 cm**-1
  37:      1479.90 cm**-1
  38:      1491.43 cm**-1
  39:      1644.61 cm**-1
  40:      1867.85 cm**-1
  41:      2896.67 cm**-1
  42:      3056.91 cm**-1
  43:      3094.48 cm**-1
  44:      3109.45 cm**-1
  45:      3123.57 cm**-1
  46:      3141.16 cm**-1
  47:      3144.50 cm**-1
  48:      3189.37 cm**-1
  49:      3456.75 cm**-1
  50:      3527.54 cm**-1

IR SPECTRUM
-----------

 Mode    freq (cm**-1)   T**2         TX         TY         TZ
-------------------------------------------------------------------
   6:        43.68    5.866693  (  2.254656   0.671173   0.576843)
   7:        99.34    0.243563  ( -0.099859  -0.476117  -0.083090)
   8:       223.36    0.116959  (  0.211832  -0.267290  -0.025337)
   9:       240.91    3.276320  (  0.613911  -1.702162  -0.045590)
  10:       261.51    0.444845  ( -0.353538  -0.356551  -0.439007)
  11:       353.02    1.244966  (  0.692362   0.873945   0.042656)
  12:       447.02    6.142141  ( -1.660133   1.642873  -0.828897)
  13:       462.41    5.596721  (  0.228980   0.386842  -2.322637)
  14:       659.71   11.624058  ( -1.077546   2.914244  -1.403615)
  15:       790.82    8.915708  (  1.872420   1.682298  -1.606120)
  16:       835.85    4.593693  ( -1.210334   1.411839  -1.065596)
  17:       875.10    9.033765  ( -1.236613   1.144184   2.489055)
  18:       914.92    2.563314  ( -0.837608  -1.270855   0.496641)
  19:       935.01   15.303639  (  2.197945   0.105904   3.234419)
  20:       959.04    4.187153  (  1.990924   0.407887  -0.238752)
  21:      1021.66    3.243876  ( -0.206607   0.480278   1.723521)
  22:      1082.69   11.015184  (  1.696628   1.093307  -2.634638)
  23:      1090.22   38.895424  (  0.668214  -1.333174   6.055705)
  24:      1119.16    0.536087  ( -0.630694  -0.338031  -0.155071)
  25:      1165.55    8.232806  ( -2.588200   1.187816   0.350884)
  26:      1181.07   13.883672  ( -0.104966  -2.754338   2.507245)
  27:      1267.08   10.591006  ( -3.025539  -0.774924  -0.914667)
  28:      1268.86   42.846347  (  6.323977   1.664293  -0.289462)
  29:      1292.40    5.385432  ( -1.979057  -0.880742   0.832501)
  30:      1310.29   18.198894  (  3.679463   2.086947  -0.552358)
  31:      1328.39   16.941028  (  3.378080   1.982201   1.265102)
  32:      1366.55    4.684656  ( -0.812063  -0.125482   2.002364)
  33:      1391.13    8.810481  ( -2.913765  -0.449312  -0.344343)
  34:      1411.98    7.456454  (  0.156285  -0.636634   2.650797)
  35:      1419.43   19.338860  (  4.228615  -1.143795   0.386535)
  36:      1478.09    9.399357  (  0.452173   2.480908   1.743558)
  37:      1479.90   12.031168  (  1.692618   2.668067  -1.430954)
  38:      1491.43   13.253572  (  3.302371  -1.508872  -0.266872)
  39:      1644.61   58.549212  ( -0.850728  -1.197809   7.509376)
  40:      1867.85  177.488053  ( -2.830563   2.765518  12.721159)
  41:      2896.67   56.592701  ( -3.861969   6.426875   0.610885)
  42:      3056.91    2.756663  (  1.016360   0.763402  -1.068126)
  43:      3094.48    0.898513  ( -0.590342   0.658157   0.341817)
  44:      3109.45    0.799940  (  0.566236  -0.336998  -0.604772)
  45:      3123.57    0.225038  ( -0.415920  -0.063507  -0.219123)
  46:      3141.16    2.323065  ( -0.644406   1.326131   0.386240)
  47:      3144.50    1.484956  ( -1.048033  -0.591876  -0.190439)
  48:      3189.37    0.621517  (  0.256711  -0.664535   0.337653)
  49:      3456.75   59.673701  ( -0.690761  -0.443794   7.681120)
  50:      3527.54   80.729805  ( -3.247810   8.371798   0.307457)

--------------------------
THERMOCHEMISTRY AT 298.15K
--------------------------

Temperature         ... 298.15 K
Pressure            ... 1.00 atm
Total Mass          ... 100.14 AMU

Throughout the following assumptions are being made:
  (1) The electronic state is orbitally nondegenerate
  (2) There are no thermally accessible electronically excited states
  (3) Hindered rotations indicated by low frequency modes) are not
      treated as such but are treated as vibrations and this may
      case some error
  (4) All equations used are the standard statistical mechanics
      equations for an ideal gas
  (5) All vibrations are strinctly harmonic

------------
INNER ENERGY
------------

The inner energy is: U= E(el) + E(ZPE) + E(vib) + E(rot) + E(trans)
    E(el)   - is the total energy from the electronic structure calculation
              = E(kin-el) + E(nuc-el) + E(el-el) + E(nuc-nuc)
    E(ZPE)  - the the zero temperature vibrational energy from the frequency calculation
    E(vib)  - the the finite temperature correction to E(ZPE) due to population
              of excietd vibrational states
    E(rot)  - is the rotational thermal energy
    E(trans)- is the translational thermal energy

Summary of contributions to the inner energy U:
Electronic energy                ...   -325.98461096 Eh
Zero point energy                ...      0.15154480 Eh      95.10 kcal/mol
Thermal vibrational correction   ...      0.00469181 Eh       2.94 kcal/mol
Thermal rotational correction    ...      0.00141627 Eh       0.89 kcal/mol
Thermal translational correction ...      0.00141627 Eh       0.89 kcal/mol
-----------------------------------------------------------------------
Total thermal energy                   -325.82554181 Eh

Summary of corrections to the electronic energy:
(perhaps to be used in another calculation)
Total thermal correction                  0.00752436 Eh       4.72 kcal/mol
Non-thermal (ZPE) correction              0.15154480 Eh      95.10 kcal/mol
-----------------------------------------------------------------------
Total correction                          0.15906915 Eh      99.82 kcal/mol

--------
ENTHALPY
--------

The enthalpy is H = U + kB*T
                kB is Boltzmann's constant
Total free energy                 ...   -325.82554181 Eh
Thermal Enthalpy correction       ...      0.00094421 Eh       0.59 kcal/mol
-----------------------------------------------------------------------
Total Enthalpy                    ...   -325.82459760 Eh

-------
ENTROPY
-------

The entropy contributions are T*S = T*(S(el)+S(vib)+S(rot)+S(trans)
     S(el)   - electronic entropy
     S(vib)  - vibrational entropy
     S(rot)  - rotational entropy
     S(trans)- translational entropy
The entropies will be listed as mutliplied by the temperature to get
units of energy

Electronic entropy                ...      0.00000000 Eh      0.00 kcal/mol
Vibrational entropy               ...      0.00881228 Eh      5.53 kcal/mol
Rotational entropy                ...      0.01212553 Eh      7.61 kcal/mol
Translational entropy             ...      0.01887324 Eh     11.84 kcal/mol
-----------------------------------------------------------------------
Final entropy term                ...      0.03981105 Eh     24.98 kcal/mol

CAUTION: The rotational entropy is not quite correctly treated here
         because it includes a symmetry number that is not yet correctly
         implemented in ORCA!
For a nonlinear molecule the correct rotational entropy is:
    S(rot) = R*(ln(qrot/sn)+1.5)
    R    = 8.31441 J/mol/K = 1.987191683e-3 kcal/mol/K
    qrot = 252960.4330411
    sn is the rotational symmetry number. We have assumed 3 here
       if it is different for your molecule then you should correct
       the printed rotational entropy by manually evaluating the equation
       as given above

For convenience we print out the resulting values for sn=1 - 12:
 sn= 1  qrot/sn=  252960.4330 T*S(rot)=     8.26 kcal/mol T*S(tot)=    25.63 kcal/mol
 sn= 2  qrot/sn=  126480.2165 T*S(rot)=     7.85 kcal/mol T*S(tot)=    25.22 kcal/mol
 sn= 3  qrot/sn=   84320.1443 T*S(rot)=     7.61 kcal/mol T*S(tot)=    24.98 kcal/mol
 sn= 4  qrot/sn=   63240.1083 T*S(rot)=     7.44 kcal/mol T*S(tot)=    24.81 kcal/mol
 sn= 5  qrot/sn=   50592.0866 T*S(rot)=     7.31 kcal/mol T*S(tot)=    24.68 kcal/mol
 sn= 6  qrot/sn=   42160.0722 T*S(rot)=     7.20 kcal/mol T*S(tot)=    24.57 kcal/mol
 sn= 7  qrot/sn=   36137.2047 T*S(rot)=     7.11 kcal/mol T*S(tot)=    24.48 kcal/mol
 sn= 8  qrot/sn=   31620.0541 T*S(rot)=     7.03 kcal/mol T*S(tot)=    24.40 kcal/mol
 sn= 9  qrot/sn=   28106.7148 T*S(rot)=     6.96 kcal/mol T*S(tot)=    24.33 kcal/mol
 sn=10  qrot/sn=   25296.0433 T*S(rot)=     6.90 kcal/mol T*S(tot)=    24.27 kcal/mol
 sn=11  qrot/sn=   22996.4030 T*S(rot)=     6.84 kcal/mol T*S(tot)=    24.21 kcal/mol
 sn=12  qrot/sn=   21080.0361 T*S(rot)=     6.79 kcal/mol T*S(tot)=    24.16 kcal/mol

-------------------
GIBBS FREE ENTHALPY
-------------------

The Gibbs free enthalpy is G = H - T*S

Total enthalpy                    ...   -325.82459760 Eh
Total entropy correction          ...     -0.03981105 Eh    -24.98 kcal/mol
-----------------------------------------------------------------------
Final Gibbs free enthalpy         ...   -325.86440865 Eh

For completeness - the Gibbs free enthalpy minus the electronic energy
G-E(el)                           ...      0.12020232 Eh     75.43 kcal/mol

                             ****ORCA TERMINATED NORMALLY****
TOTAL RUN TIME: 0 days 0 hours 35 minutes 55 seconds 828 msec
