                         Program Version 3.0.3 - RELEASE   -
|  1> ! NORI PBE0 def2-TZVP UseSym TightOPT Freq TightSCF Grid3 FinalGrid5 XYZFile
|  2> % pal
|  3>     nprocs 8
|  4> end
|  5> %method
|  6>     SymThresh 5.0e-2
|  7> end
|  8> % geom
|  9>     MaxIter 10
| 10> end
| 11> % maxcore 2000
| 12> % output
| 13>     printlevel mini
| 14>     print[ P_Basis ] 0
| 15>     print[ P_SCFInfo ] 1
| 16>     print[ P_SCFIterInfo ] 1
| 17>     print[ P_OrbEn ] 0
| 18>     print[ P_Cartesian ] 0
| 19> end
| 20> % elprop
| 21>     Dipole false
| 22> end
| 23> *xyz 1 1
| 24>  C        1.0307394488     0.2919638817     0.6445760310
| 25>  C        2.2840949396    -0.2294904170    -0.0139524432
| 26>  N        2.0963797374    -1.6657286661    -0.4781765475
| 27>  C        3.0692003063    -1.9293494491    -1.5921826797
| 28>  C        3.1476305795    -0.5815451747    -2.2512069708
| 29>  O        1.8627119692     0.0069235286    -2.3897002401
| 30>  C        2.6850832858     0.4278667034    -1.3106549455
| 31>  H        1.2057552627     1.3124551233     0.9869528463
| 32>  H        0.7510802967    -0.3007444190     1.5177712018
| 33>  H        0.1963861034     0.3146068112    -0.0608691726
| 34>  H        3.1330024453    -0.2317171421     0.6762649420
| 35>  H        2.1810958280    -2.3326326238     0.2874909770
| 36>  H        1.1490852840    -1.7362646840    -0.8550823984
| 37>  H        4.0274207288    -2.2278291271    -1.1645680222
| 38>  H        2.6830592026    -2.7276431125    -2.2264140414
| 39>  H        3.8700171103    -0.3976776402    -3.0377114485
| 40>  H        3.0228674717     1.4577664074    -1.3135970883
| 41> *
| 42>
| 43>                          ****END OF INPUT****
 Total Charge           Charge          ....    1
 Multiplicity           Mult            ....    1
 Number of Electrons    NEL             ....   54
FINAL SINGLE POINT ENERGY      -325.997397364379

CARTESIAN COORDINATES (ANGSTROEM)
---------------------------------
  C     -0.524059    2.025806   -0.853804
  C     -0.495037    0.518182   -0.803081
  N      0.933975   -0.000051   -0.860503
  C      0.963304   -1.364977   -0.233691
  C     -0.098496   -1.236420    0.821360
  O      0.000376   -0.000014    1.512569
  C     -0.966847   -0.119905    0.479227
  H     -1.561063    2.363761   -0.836031
  H     -0.071444    2.412268   -1.769224
  H     -0.016815    2.458206    0.012179
  H     -1.023522    0.074401   -1.651843
  H      1.309706    0.008798   -1.807574
  H      1.502851    0.627997   -0.289372
  H      0.698505   -2.108443   -0.986909
  H      1.965176   -1.565175    0.146797
  H     -0.414097   -2.103609    1.389203
  H     -2.010934   -0.055686    0.763755

FINAL SINGLE POINT ENERGY      -325.997397828880
                    ***********************HURRAY********************
 Multiplicity           Mult            ....    1
 Number of Electrons    NEL             ....   54
 Basis Dimension        Dim             ....  277
FINAL SINGLE POINT ENERGY      -325.997397939248

VIBRATIONAL FREQUENCIES
-----------------------

   0:         0.00 cm**-1
   1:         0.00 cm**-1
   2:         0.00 cm**-1
   3:         0.00 cm**-1
   4:         0.00 cm**-1
   5:         0.00 cm**-1
   6:       153.80 cm**-1
   7:       233.55 cm**-1
   8:       261.34 cm**-1
   9:       330.88 cm**-1
  10:       396.93 cm**-1
  11:       523.32 cm**-1
  12:       630.46 cm**-1
  13:       679.91 cm**-1
  14:       813.16 cm**-1
  15:       859.10 cm**-1
  16:       878.19 cm**-1
  17:       893.97 cm**-1
  18:       930.66 cm**-1
  19:       956.12 cm**-1
  20:      1005.29 cm**-1
  21:      1012.21 cm**-1
  22:      1055.19 cm**-1
  23:      1074.10 cm**-1
  24:      1103.37 cm**-1
  25:      1136.70 cm**-1
  26:      1158.65 cm**-1
  27:      1226.48 cm**-1
  28:      1251.77 cm**-1
  29:      1270.39 cm**-1
  30:      1315.58 cm**-1
  31:      1351.93 cm**-1
  32:      1381.63 cm**-1
  33:      1398.40 cm**-1
  34:      1407.82 cm**-1
  35:      1422.91 cm**-1
  36:      1468.89 cm**-1
  37:      1483.18 cm**-1
  38:      1489.76 cm**-1
  39:      1492.61 cm**-1
  40:      1617.71 cm**-1
  41:      3060.97 cm**-1
  42:      3092.36 cm**-1
  43:      3103.35 cm**-1
  44:      3142.92 cm**-1
  45:      3152.20 cm**-1
  46:      3165.51 cm**-1
  47:      3204.79 cm**-1
  48:      3216.12 cm**-1
  49:      3454.79 cm**-1
  50:      3529.22 cm**-1

IR SPECTRUM
-----------

 Mode    freq (cm**-1)   T**2         TX         TY         TZ
-------------------------------------------------------------------
   6:       153.80    3.196280  (  0.476336  -1.311110  -1.118202)
   7:       233.55    3.618108  (  0.398743   0.933174  -1.608819)
   8:       261.34    5.555138  (  0.212106  -1.040371   2.104228)
   9:       330.88    2.226303  (  0.474573  -0.323063  -1.377212)
  10:       396.93   18.073853  ( -2.025231   0.870041   3.635288)
  11:       523.32    2.548107  ( -0.004170  -0.388419   1.548296)
  12:       630.46    1.218696  (  0.423283  -1.014912   0.097375)
  13:       679.91    0.693864  ( -0.526442   0.549408  -0.338931)
  14:       813.16    1.995562  ( -1.028761   0.965745   0.067440)
  15:       859.10   18.887835  ( -2.339989  -1.115280  -3.488329)
  16:       878.19    5.341343  (  1.999909  -0.659523   0.952227)
  17:       893.97   10.051913  (  1.490260   2.637446   0.935370)
  18:       930.66   16.403153  (  0.614586  -3.567378  -1.816384)
  19:       956.12    5.813611  (  0.583250   1.880025   1.392457)
  20:      1005.29   13.914862  ( -1.612359  -1.947068   2.743007)
  21:      1012.21   20.674842  (  2.965905  -0.770573   3.359237)
  22:      1055.19    8.915950  ( -1.725066   0.910973   2.260581)
  23:      1074.10    4.212250  (  0.714745  -1.357812  -1.362987)
  24:      1103.37    2.429841  ( -1.396622   0.580566  -0.377136)
  25:      1136.70    7.482028  (  2.246566  -1.550322   0.177401)
  26:      1158.65    1.416611  (  0.104282   1.180423   0.111073)
  27:      1226.48   14.184393  (  2.870110  -2.301503   0.806191)
  28:      1251.77   14.355309  ( -1.116028  -3.264712  -1.565709)
  29:      1270.39    9.623706  (  1.826189  -2.429928  -0.619830)
  30:      1315.58    0.906375  ( -0.261799   0.861828   0.308365)
  31:      1351.93    5.756210  (  1.439375  -1.273927   1.435800)
  32:      1381.63    1.352879  ( -0.841765  -0.449629  -0.664939)
  33:      1398.40    5.390713  ( -0.407386   1.588992  -1.643123)
  34:      1407.82   55.512272  ( -5.010567   5.222582  -1.769499)
  35:      1422.91    7.375589  (  0.740856   2.431115   0.957289)
  36:      1468.89    7.114989  (  0.495396   2.476977   0.856829)
  37:      1483.18   11.601994  (  3.332695  -0.324379   0.624435)
  38:      1489.76    8.766420  ( -1.089863   2.153073   1.715487)
  39:      1492.61   14.304388  (  0.498455  -0.630129  -3.695791)
  40:      1617.71   68.297675  ( -6.764993  -4.172095   2.264103)
  41:      3060.97    1.530440  ( -1.106893  -0.251813   0.491751)
  42:      3092.36    1.328016  (  0.522059   0.909181   0.478393)
  43:      3103.35    0.394548  (  0.156409  -0.502016  -0.343605)
  44:      3142.92    2.381305  (  0.101008  -0.296442   1.511034)
  45:      3152.20    0.648505  (  0.229316   0.734530  -0.237455)
  46:      3165.51    0.177853  (  0.207435   0.063950   0.361572)
  47:      3204.79    0.483046  ( -0.379910   0.375683   0.444495)
  48:      3216.12    2.196131  (  0.334323   0.146113  -1.436318)
  49:      3454.79   58.013299  (  6.250744   4.331682  -0.421941)
  50:      3529.22   89.291364  ( -1.273887   2.398558   9.050718)

--------------------------
THERMOCHEMISTRY AT 298.15K
--------------------------

Temperature         ... 298.15 K
Pressure            ... 1.00 atm
Total Mass          ... 100.14 AMU

Throughout the following assumptions are being made:
  (1) The electronic state is orbitally nondegenerate
  (2) There are no thermally accessible electronically excited states
  (3) Hindered rotations indicated by low frequency modes) are not
      treated as such but are treated as vibrations and this may
      case some error
  (4) All equations used are the standard statistical mechanics
      equations for an ideal gas
  (5) All vibrations are strinctly harmonic

------------
INNER ENERGY
------------

The inner energy is: U= E(el) + E(ZPE) + E(vib) + E(rot) + E(trans)
    E(el)   - is the total energy from the electronic structure calculation
              = E(kin-el) + E(nuc-el) + E(el-el) + E(nuc-nuc)
    E(ZPE)  - the the zero temperature vibrational energy from the frequency calculation
    E(vib)  - the the finite temperature correction to E(ZPE) due to population
              of excietd vibrational states
    E(rot)  - is the rotational thermal energy
    E(trans)- is the translational thermal energy

Summary of contributions to the inner energy U:
Electronic energy                ...   -325.99739794 Eh
Zero point energy                ...      0.15443285 Eh      96.91 kcal/mol
Thermal vibrational correction   ...      0.00343754 Eh       2.16 kcal/mol
Thermal rotational correction    ...      0.00141627 Eh       0.89 kcal/mol
Thermal translational correction ...      0.00141627 Eh       0.89 kcal/mol
-----------------------------------------------------------------------
Total thermal energy                   -325.83669501 Eh

Summary of corrections to the electronic energy:
(perhaps to be used in another calculation)
Total thermal correction                  0.00627008 Eh       3.93 kcal/mol
Non-thermal (ZPE) correction              0.15443285 Eh      96.91 kcal/mol
-----------------------------------------------------------------------
Total correction                          0.16070293 Eh     100.84 kcal/mol

--------
ENTHALPY
--------

The enthalpy is H = U + kB*T
                kB is Boltzmann's constant
Total free energy                 ...   -325.83669501 Eh
Thermal Enthalpy correction       ...      0.00094421 Eh       0.59 kcal/mol
-----------------------------------------------------------------------
Total Enthalpy                    ...   -325.83575080 Eh

-------
ENTROPY
-------

The entropy contributions are T*S = T*(S(el)+S(vib)+S(rot)+S(trans)
     S(el)   - electronic entropy
     S(vib)  - vibrational entropy
     S(rot)  - rotational entropy
     S(trans)- translational entropy
The entropies will be listed as mutliplied by the temperature to get
units of energy

Electronic entropy                ...      0.00000000 Eh      0.00 kcal/mol
Vibrational entropy               ...      0.00539308 Eh      3.38 kcal/mol
Rotational entropy                ...      0.01174956 Eh      7.37 kcal/mol
Translational entropy             ...      0.01887324 Eh     11.84 kcal/mol
-----------------------------------------------------------------------
Final entropy term                ...      0.03601588 Eh     22.60 kcal/mol

CAUTION: The rotational entropy is not quite correctly treated here
         because it includes a symmetry number that is not yet correctly
         implemented in ORCA!
For a nonlinear molecule the correct rotational entropy is:
    S(rot) = R*(ln(qrot/sn)+1.5)
    R    = 8.31441 J/mol/K = 1.987191683e-3 kcal/mol/K
    qrot = 169871.8227755
    sn is the rotational symmetry number. We have assumed 3 here
       if it is different for your molecule then you should correct
       the printed rotational entropy by manually evaluating the equation
       as given above

For convenience we print out the resulting values for sn=1 - 12:
 sn= 1  qrot/sn=  169871.8228 T*S(rot)=     8.02 kcal/mol T*S(tot)=    23.25 kcal/mol
 sn= 2  qrot/sn=   84935.9114 T*S(rot)=     7.61 kcal/mol T*S(tot)=    22.84 kcal/mol
 sn= 3  qrot/sn=   56623.9409 T*S(rot)=     7.37 kcal/mol T*S(tot)=    22.60 kcal/mol
 sn= 4  qrot/sn=   42467.9557 T*S(rot)=     7.20 kcal/mol T*S(tot)=    22.43 kcal/mol
 sn= 5  qrot/sn=   33974.3646 T*S(rot)=     7.07 kcal/mol T*S(tot)=    22.30 kcal/mol
 sn= 6  qrot/sn=   28311.9705 T*S(rot)=     6.96 kcal/mol T*S(tot)=    22.19 kcal/mol
 sn= 7  qrot/sn=   24267.4033 T*S(rot)=     6.87 kcal/mol T*S(tot)=    22.10 kcal/mol
 sn= 8  qrot/sn=   21233.9778 T*S(rot)=     6.79 kcal/mol T*S(tot)=    22.02 kcal/mol
 sn= 9  qrot/sn=   18874.6470 T*S(rot)=     6.72 kcal/mol T*S(tot)=    21.95 kcal/mol
 sn=10  qrot/sn=   16987.1823 T*S(rot)=     6.66 kcal/mol T*S(tot)=    21.89 kcal/mol
 sn=11  qrot/sn=   15442.8930 T*S(rot)=     6.60 kcal/mol T*S(tot)=    21.83 kcal/mol
 sn=12  qrot/sn=   14155.9852 T*S(rot)=     6.55 kcal/mol T*S(tot)=    21.78 kcal/mol

-------------------
GIBBS FREE ENTHALPY
-------------------

The Gibbs free enthalpy is G = H - T*S

Total enthalpy                    ...   -325.83575080 Eh
Total entropy correction          ...     -0.03601588 Eh    -22.60 kcal/mol
-----------------------------------------------------------------------
Final Gibbs free enthalpy         ...   -325.87176669 Eh

For completeness - the Gibbs free enthalpy minus the electronic energy
G-E(el)                           ...      0.12563125 Eh     78.83 kcal/mol

                             ****ORCA TERMINATED NORMALLY****
TOTAL RUN TIME: 0 days 0 hours 31 minutes 54 seconds 475 msec
