                         Program Version 3.0.3 - RELEASE   -
|  1> ! NORI PBE0 def2-TZVP UseSym TightOPT Freq TightSCF Grid3 FinalGrid5 XYZFile
|  2> % pal
|  3>     nprocs 8
|  4> end
|  5> %method
|  6>     SymThresh 5.0e-2
|  7> end
|  8> % geom
|  9>     MaxIter 10
| 10> end
| 11> % maxcore 2000
| 12> % output
| 13>     printlevel mini
| 14>     print[ P_Basis ] 0
| 15>     print[ P_SCFInfo ] 1
| 16>     print[ P_SCFIterInfo ] 1
| 17>     print[ P_OrbEn ] 0
| 18>     print[ P_Cartesian ] 0
| 19> end
| 20> % elprop
| 21>     Dipole false
| 22> end
| 23> *xyz 1 1
| 24>  C        1.1145437390    -0.0193570170    -0.0783637481
| 25>  C        2.6123975981    -0.0905468352     0.0418884764
| 26>  N        3.1750347288     1.0624437736     0.8477803270
| 27>  C        4.4342613967     0.5824483740     1.5641531265
| 28>  C        4.5918098178    -0.8693799809     1.1465975319
| 29>  C        3.1762512255    -1.3077376871     0.7869909715
| 30>  O        3.0504285344    -2.4859793256     0.0682573705
| 31>  H        0.7703166281    -0.9103828886    -0.6062156059
| 32>  H        0.7793805103     0.8533126028    -0.6426870626
| 33>  H        0.6350922007    -0.0163769879     0.9053162819
| 34>  H        3.0914259814    -0.0329992122    -0.9402373897
| 35>  H        2.4773807419     1.3654820130     1.5275687846
| 36>  H        3.3639202652     1.8688733849     0.2547279903
| 37>  H        4.2588165229     0.6948881868     2.6330082393
| 38>  H        5.2642937525     1.2257227798     1.2796602910
| 39>  H        5.2376239620    -0.9528232186     0.2666203236
| 40>  H        5.0296479194    -1.4713247993     1.9419614679
| 41>  H        2.5903176670    -1.4544436926     1.7037172679
| 42>  H        3.7335068081    -2.5499494700    -0.6077446441
| 43> *
| 44>
| 45>                          ****END OF INPUT****
 Total Charge           Charge          ....    1
 Multiplicity           Mult            ....    1
 Number of Electrons    NEL             ....   56
FINAL SINGLE POINT ENERGY      -327.235064073278

CARTESIAN COORDINATES (ANGSTROEM)
---------------------------------
  C      1.377064   -1.704867   -0.145438
  C      0.782741   -0.323277   -0.181486
  N      0.170707   -0.000043   -1.529411
  C     -1.000172    0.954796   -1.312288
  C     -1.044131    1.183706    0.188434
  C     -0.390318   -0.063742    0.773400
  O     -0.000618   -0.000759    2.101736
  H      1.734848   -1.897381    0.867341
  H      2.223993   -1.815665   -0.825340
  H      0.627709   -2.467584   -0.378235
  H      1.546739    0.440567   -0.007172
  H     -0.155496   -0.863888   -1.963197
  H      0.863873    0.393048   -2.163946
  H     -1.893675    0.458333   -1.687377
  H     -0.830595    1.854077   -1.900289
  H     -0.461278    2.068486    0.463672
  H     -2.063472    1.330499    0.543023
  H     -1.084866   -0.911279    0.707075
  H      0.389582    0.856047    2.304422

FINAL SINGLE POINT ENERGY      -327.235064815944
                    ***********************HURRAY********************
 Multiplicity           Mult            ....    1
 Number of Electrons    NEL             ....   56
 Basis Dimension        Dim             ....  289
FINAL SINGLE POINT ENERGY      -327.235065126677

VIBRATIONAL FREQUENCIES
-----------------------

   0:         0.00 cm**-1
   1:         0.00 cm**-1
   2:         0.00 cm**-1
   3:         0.00 cm**-1
   4:         0.00 cm**-1
   5:         0.00 cm**-1
   6:        51.52 cm**-1
   7:       153.13 cm**-1
   8:       229.15 cm**-1
   9:       255.64 cm**-1
  10:       275.09 cm**-1
  11:       339.12 cm**-1
  12:       395.06 cm**-1
  13:       518.14 cm**-1
  14:       543.86 cm**-1
  15:       627.28 cm**-1
  16:       792.38 cm**-1
  17:       818.43 cm**-1
  18:       860.25 cm**-1
  19:       895.60 cm**-1
  20:       908.05 cm**-1
  21:       988.50 cm**-1
  22:      1026.10 cm**-1
  23:      1039.37 cm**-1
  24:      1088.44 cm**-1
  25:      1109.23 cm**-1
  26:      1162.26 cm**-1
  27:      1175.68 cm**-1
  28:      1192.27 cm**-1
  29:      1242.11 cm**-1
  30:      1287.31 cm**-1
  31:      1298.17 cm**-1
  32:      1329.94 cm**-1
  33:      1339.19 cm**-1
  34:      1359.44 cm**-1
  35:      1375.60 cm**-1
  36:      1393.35 cm**-1
  37:      1410.59 cm**-1
  38:      1418.50 cm**-1
  39:      1432.11 cm**-1
  40:      1481.48 cm**-1
  41:      1487.30 cm**-1
  42:      1490.27 cm**-1
  43:      1505.64 cm**-1
  44:      1653.51 cm**-1
  45:      3038.80 cm**-1
  46:      3052.53 cm**-1
  47:      3068.46 cm**-1
  48:      3084.12 cm**-1
  49:      3121.18 cm**-1
  50:      3133.64 cm**-1
  51:      3151.83 cm**-1
  52:      3153.34 cm**-1
  53:      3181.50 cm**-1
  54:      3466.65 cm**-1
  55:      3526.31 cm**-1
  56:      3833.83 cm**-1

IR SPECTRUM
-----------

 Mode    freq (cm**-1)   T**2         TX         TY         TZ
-------------------------------------------------------------------
   6:        51.52    3.597996  ( -1.399493  -1.257141   0.242926)
   7:       153.13    1.147206  ( -0.482601  -0.077726  -0.953027)
   8:       229.15    0.597898  ( -0.597790   0.483971   0.079480)
   9:       255.64   11.051235  (  2.256110  -2.258583  -0.927364)
  10:       275.09  102.862706  ( -8.932707   4.238040   2.260191)
  11:       339.12    4.521128  ( -1.307447   1.064363  -1.295702)
  12:       395.06    2.461507  (  0.664445  -0.321423  -1.384452)
  13:       518.14    3.414090  (  0.559321  -1.015182  -1.438977)
  14:       543.86    3.767248  (  0.484069   1.202784  -1.444381)
  15:       627.28    0.362352  (  0.225855  -0.146802   0.538322)
  16:       792.38    9.805241  (  2.433560   1.913769   0.469592)
  17:       818.43    1.888913  ( -0.391395   1.314224   0.092404)
  18:       860.25    0.786402  ( -0.027805   0.773212  -0.433327)
  19:       895.60    2.591221  (  1.152818  -0.850358  -0.734249)
  20:       908.05    7.225010  ( -1.521491   1.302203  -1.792859)
  21:       988.50    9.626311  (  2.659852  -0.831715  -1.363725)
  22:      1026.10   12.685921  (  2.280397  -2.626216  -0.767268)
  23:      1039.37    1.341750  (  0.380396  -0.323209   1.045268)
  24:      1088.44   40.160478  (  0.957601   0.828788   6.209395)
  25:      1109.23   25.156042  (  1.803412  -0.907270   4.591362)
  26:      1162.26   29.301587  ( -2.307654   1.365879  -4.702201)
  27:      1175.68   52.164518  ( -0.427083  -0.061692  -7.209599)
  28:      1192.27   10.269091  (  0.825528   0.460363   3.061970)
  29:      1242.11   13.923828  (  0.370976  -0.598039  -3.664499)
  30:      1287.31    5.581175  ( -0.520994  -0.529765   2.242563)
  31:      1298.17    1.160658  ( -0.260301  -1.039681  -0.109383)
  32:      1329.94    6.059612  (  1.972731   0.132990   1.466376)
  33:      1339.19   68.119723  ( -5.292324   4.361500  -4.592205)
  34:      1359.44    2.618779  ( -0.324920  -1.378180   0.783471)
  35:      1375.60    1.682151  (  0.585792  -0.009829   1.157109)
  36:      1393.35    8.356324  (  1.177335  -1.178252   2.362611)
  37:      1410.59    3.002556  ( -1.189835   1.114176  -0.587760)
  38:      1418.50   17.002183  ( -1.457133   3.359406  -1.895611)
  39:      1432.11   36.132546  (  1.632765   0.272295   5.778623)
  40:      1481.48   13.091140  (  0.838130   0.581426   3.471401)
  41:      1487.30    9.646788  ( -2.206151   1.375174   1.699583)
  42:      1490.27   16.782087  ( -3.207667  -2.478928  -0.589810)
  43:      1505.64    9.204685  (  1.480553  -1.879728   1.865281)
  44:      1653.51   57.007688  (  1.078527  -2.730378  -6.956256)
  45:      3038.80    4.692287  ( -1.085306  -1.401186  -1.245422)
  46:      3052.53    4.011470  ( -0.658796  -0.787523  -1.719670)
  47:      3068.46    4.683106  ( -1.365971  -1.239166  -1.132121)
  48:      3084.12   11.453897  (  0.974711   2.886330   1.474087)
  49:      3121.18    1.505659  (  0.568275   0.045042   1.086597)
  50:      3133.64    5.614283  (  2.105649   0.982917  -0.463034)
  51:      3151.83    1.260488  (  0.806858  -0.776275   0.082862)
  52:      3153.34    0.670872  (  0.371574   0.295312   0.667530)
  53:      3181.50    0.084530  (  0.069093   0.277246   0.053763)
  54:      3466.65   54.694573  ( -1.416760   3.363971   6.432034)
  55:      3526.31   77.439592  (  5.574557   6.149907  -2.922764)
  56:      3833.83   57.524620  ( -2.462038  -5.135479  -5.008976)

--------------------------
THERMOCHEMISTRY AT 298.15K
--------------------------

Temperature         ... 298.15 K
Pressure            ... 1.00 atm
Total Mass          ... 102.16 AMU

Throughout the following assumptions are being made:
  (1) The electronic state is orbitally nondegenerate
  (2) There are no thermally accessible electronically excited states
  (3) Hindered rotations indicated by low frequency modes) are not
      treated as such but are treated as vibrations and this may
      case some error
  (4) All equations used are the standard statistical mechanics
      equations for an ideal gas
  (5) All vibrations are strinctly harmonic

------------
INNER ENERGY
------------

The inner energy is: U= E(el) + E(ZPE) + E(vib) + E(rot) + E(trans)
    E(el)   - is the total energy from the electronic structure calculation
              = E(kin-el) + E(nuc-el) + E(el-el) + E(nuc-nuc)
    E(ZPE)  - the the zero temperature vibrational energy from the frequency calculation
    E(vib)  - the the finite temperature correction to E(ZPE) due to population
              of excietd vibrational states
    E(rot)  - is the rotational thermal energy
    E(trans)- is the translational thermal energy

Summary of contributions to the inner energy U:
Electronic energy                ...   -327.23506513 Eh
Zero point energy                ...      0.17715317 Eh     111.17 kcal/mol
Thermal vibrational correction   ...      0.00481252 Eh       3.02 kcal/mol
Thermal rotational correction    ...      0.00141627 Eh       0.89 kcal/mol
Thermal translational correction ...      0.00141627 Eh       0.89 kcal/mol
-----------------------------------------------------------------------
Total thermal energy                   -327.05026690 Eh

Summary of corrections to the electronic energy:
(perhaps to be used in another calculation)
Total thermal correction                  0.00764506 Eh       4.80 kcal/mol
Non-thermal (ZPE) correction              0.17715317 Eh     111.17 kcal/mol
-----------------------------------------------------------------------
Total correction                          0.18479823 Eh     115.96 kcal/mol

--------
ENTHALPY
--------

The enthalpy is H = U + kB*T
                kB is Boltzmann's constant
Total free energy                 ...   -327.05026690 Eh
Thermal Enthalpy correction       ...      0.00094421 Eh       0.59 kcal/mol
-----------------------------------------------------------------------
Total Enthalpy                    ...   -327.04932269 Eh

-------
ENTROPY
-------

The entropy contributions are T*S = T*(S(el)+S(vib)+S(rot)+S(trans)
     S(el)   - electronic entropy
     S(vib)  - vibrational entropy
     S(rot)  - rotational entropy
     S(trans)- translational entropy
The entropies will be listed as mutliplied by the temperature to get
units of energy

Electronic entropy                ...      0.00000000 Eh      0.00 kcal/mol
Vibrational entropy               ...      0.00854287 Eh      5.36 kcal/mol
Rotational entropy                ...      0.01202465 Eh      7.55 kcal/mol
Translational entropy             ...      0.01890147 Eh     11.86 kcal/mol
-----------------------------------------------------------------------
Final entropy term                ...      0.03946899 Eh     24.77 kcal/mol

CAUTION: The rotational entropy is not quite correctly treated here
         because it includes a symmetry number that is not yet correctly
         implemented in ORCA!
For a nonlinear molecule the correct rotational entropy is:
    S(rot) = R*(ln(qrot/sn)+1.5)
    R    = 8.31441 J/mol/K = 1.987191683e-3 kcal/mol/K
    qrot = 227327.4598829
    sn is the rotational symmetry number. We have assumed 3 here
       if it is different for your molecule then you should correct
       the printed rotational entropy by manually evaluating the equation
       as given above

For convenience we print out the resulting values for sn=1 - 12:
 sn= 1  qrot/sn=  227327.4599 T*S(rot)=     8.20 kcal/mol T*S(tot)=    25.42 kcal/mol
 sn= 2  qrot/sn=  113663.7299 T*S(rot)=     7.79 kcal/mol T*S(tot)=    25.01 kcal/mol
 sn= 3  qrot/sn=   75775.8200 T*S(rot)=     7.55 kcal/mol T*S(tot)=    24.77 kcal/mol
 sn= 4  qrot/sn=   56831.8650 T*S(rot)=     7.38 kcal/mol T*S(tot)=    24.60 kcal/mol
 sn= 5  qrot/sn=   45465.4920 T*S(rot)=     7.24 kcal/mol T*S(tot)=    24.46 kcal/mol
 sn= 6  qrot/sn=   37887.9100 T*S(rot)=     7.13 kcal/mol T*S(tot)=    24.36 kcal/mol
 sn= 7  qrot/sn=   32475.3514 T*S(rot)=     7.04 kcal/mol T*S(tot)=    24.27 kcal/mol
 sn= 8  qrot/sn=   28415.9325 T*S(rot)=     6.96 kcal/mol T*S(tot)=    24.19 kcal/mol
 sn= 9  qrot/sn=   25258.6067 T*S(rot)=     6.89 kcal/mol T*S(tot)=    24.12 kcal/mol
 sn=10  qrot/sn=   22732.7460 T*S(rot)=     6.83 kcal/mol T*S(tot)=    24.05 kcal/mol
 sn=11  qrot/sn=   20666.1327 T*S(rot)=     6.78 kcal/mol T*S(tot)=    24.00 kcal/mol
 sn=12  qrot/sn=   18943.9550 T*S(rot)=     6.72 kcal/mol T*S(tot)=    23.95 kcal/mol

-------------------
GIBBS FREE ENTHALPY
-------------------

The Gibbs free enthalpy is G = H - T*S

Total enthalpy                    ...   -327.04932269 Eh
Total entropy correction          ...     -0.03946899 Eh    -24.77 kcal/mol
-----------------------------------------------------------------------
Final Gibbs free enthalpy         ...   -327.08879168 Eh

For completeness - the Gibbs free enthalpy minus the electronic energy
G-E(el)                           ...      0.14627345 Eh     91.79 kcal/mol

                             ****ORCA TERMINATED NORMALLY****
TOTAL RUN TIME: 0 days 0 hours 38 minutes 1 seconds 812 msec
