                         Program Version 3.0.3 - RELEASE   -
|  1> ! NORI PBE0 def2-TZVP UseSym TightOPT Freq TightSCF Grid3 FinalGrid5 XYZFile
|  2> % pal
|  3>     nprocs 8
|  4> end
|  5> %method
|  6>     SymThresh 5.0e-2
|  7> end
|  8> % geom
|  9>     MaxIter 10
| 10> end
| 11> % maxcore 2000
| 12> % output
| 13>     printlevel mini
| 14>     print[ P_Basis ] 0
| 15>     print[ P_SCFInfo ] 1
| 16>     print[ P_SCFIterInfo ] 1
| 17>     print[ P_OrbEn ] 0
| 18>     print[ P_Cartesian ] 0
| 19> end
| 20> % elprop
| 21>     Dipole false
| 22> end
| 23> *xyz 1 1
| 24>  C        0.9058571576    -0.1156411981     0.1675848328
| 25>  C        2.4034831539     0.0155811946     0.1745544709
| 26>  N        2.8917554192     0.0370220679    -1.2588439976
| 27>  C        3.1176476896     1.1051453993     0.9928852656
| 28>  C        4.2363335641     0.0939710375     1.3302864621
| 29>  C        3.2825490213    -1.0347476020     0.8908262957
| 30>  O        3.7331109041    -2.0129288139    -0.0015656881
| 31>  H        0.4235741452     0.7537382136    -0.2894318912
| 32>  H        0.5449990699    -0.1850642995     1.1940043349
| 33>  H        0.5807311942    -1.0175578465    -0.3593964594
| 34>  H        2.2962539588     0.6196250076    -1.8478075239
| 35>  H        2.9011952719    -0.9282419096    -1.6099917307
| 36>  H        3.8517083050     0.3796091746    -1.3241432812
| 37>  H        2.5160944739     1.3736554925     1.8611027710
| 38>  H        3.3913371229     2.0277844760     0.4775757151
| 39>  H        4.6036053341     0.0733686215     2.3544064058
| 40>  H        5.0978566213     0.1679673750     0.6619289931
| 41>  H        2.7328121839    -1.4630748230     1.7333287613
| 42>  H        4.0340854091    -2.8015115673     0.4583462639
| 43> *
| 44>
| 45>                          ****END OF INPUT****
 Total Charge           Charge          ....    1
 Multiplicity           Mult            ....    1
 Number of Electrons    NEL             ....   56
FINAL SINGLE POINT ENERGY      -327.219823417177
FINAL SINGLE POINT ENERGY      -327.219825453230
FINAL SINGLE POINT ENERGY      -327.219826850646
FINAL SINGLE POINT ENERGY      -327.219828089823
FINAL SINGLE POINT ENERGY      -327.219829269750
FINAL SINGLE POINT ENERGY      -327.219830547119

CARTESIAN COORDINATES (ANGSTROEM)
---------------------------------
  C      0.152691   -1.783616   -1.009014
  C      0.156430   -0.367461   -0.503949
  N      1.572695   -0.001417   -0.110812
  C     -0.481154    0.781237   -1.305139
  C     -0.981255    1.403074    0.017976
  C     -0.722977    0.043819    0.698144
  O     -0.001281   -0.006010    1.894898
  H      0.756701   -1.892434   -1.914771
  H     -0.866997   -2.074472   -1.261854
  H      0.519855   -2.483896   -0.253317
  H      2.246839   -0.321665   -0.806477
  H      1.777061   -0.427825    0.800371
  H      1.680606    1.006932    0.009993
  H     -1.292651    0.397374   -1.922971
  H      0.173674    1.377110   -1.943655
  H     -1.997410    1.791629    0.038398
  H     -0.313324    2.175086    0.408484
  H     -1.620628   -0.580103    0.729502
  H     -0.583105    0.013221    2.659926

FINAL SINGLE POINT ENERGY      -327.219831197818
                    ***********************HURRAY********************
 Multiplicity           Mult            ....    1
 Number of Electrons    NEL             ....   56
 Basis Dimension        Dim             ....  289
FINAL SINGLE POINT ENERGY      -327.219831658134

VIBRATIONAL FREQUENCIES
-----------------------

   0:         0.00 cm**-1
   1:         0.00 cm**-1
   2:         0.00 cm**-1
   3:         0.00 cm**-1
   4:         0.00 cm**-1
   5:         0.00 cm**-1
   6:       116.68 cm**-1
   7:       127.82 cm**-1
   8:       210.67 cm**-1
   9:       222.30 cm**-1
  10:       258.24 cm**-1
  11:       298.84 cm**-1
  12:       353.38 cm**-1
  13:       369.85 cm**-1
  14:       440.90 cm**-1
  15:       561.97 cm**-1
  16:       606.41 cm**-1
  17:       721.04 cm**-1
  18:       781.79 cm**-1
  19:       865.27 cm**-1
  20:       897.80 cm**-1
  21:       945.90 cm**-1
  22:       959.91 cm**-1
  23:       969.56 cm**-1
  24:       998.07 cm**-1
  25:      1029.60 cm**-1
  26:      1114.69 cm**-1
  27:      1154.61 cm**-1
  28:      1160.52 cm**-1
  29:      1196.89 cm**-1
  30:      1230.03 cm**-1
  31:      1258.55 cm**-1
  32:      1267.55 cm**-1
  33:      1273.22 cm**-1
  34:      1293.53 cm**-1
  35:      1356.46 cm**-1
  36:      1419.15 cm**-1
  37:      1424.91 cm**-1
  38:      1472.39 cm**-1
  39:      1479.45 cm**-1
  40:      1479.78 cm**-1
  41:      1486.94 cm**-1
  42:      1505.99 cm**-1
  43:      1623.51 cm**-1
  44:      1655.11 cm**-1
  45:      3049.74 cm**-1
  46:      3079.35 cm**-1
  47:      3087.82 cm**-1
  48:      3093.76 cm**-1
  49:      3122.24 cm**-1
  50:      3149.49 cm**-1
  51:      3154.36 cm**-1
  52:      3164.29 cm**-1
  53:      3395.31 cm**-1
  54:      3483.58 cm**-1
  55:      3526.92 cm**-1
  56:      3865.90 cm**-1

IR SPECTRUM
-----------

 Mode    freq (cm**-1)   T**2         TX         TY         TZ
-------------------------------------------------------------------
   6:       116.68    3.601519  (  1.155470   1.037523  -1.090850)
   7:       127.82    7.656870  (  0.700036  -2.345181   1.291104)
   8:       210.67  124.205161  ( -1.103002 -11.086470   0.280603)
   9:       222.30    1.139137  (  0.202227   1.022087   0.231471)
  10:       258.24    5.206686  (  1.522384  -0.797504  -1.501007)
  11:       298.84   26.471719  (  2.809142   0.219950  -4.304888)
  12:       353.38    6.436763  ( -0.238110   2.520623  -0.162876)
  13:       369.85    4.743905  ( -1.832995   0.265275  -1.146152)
  14:       440.90    1.374468  ( -0.286975   0.391435  -1.067188)
  15:       561.97    9.317450  (  1.895988  -1.539169   1.831295)
  16:       606.41    0.728866  (  0.022168  -0.130011   0.843488)
  17:       721.04    1.861291  (  1.250267   0.463553   0.288517)
  18:       781.79    0.325582  ( -0.469217  -0.301006   0.121707)
  19:       865.27    3.135216  ( -1.282570  -1.001459  -0.698076)
  20:       897.80   11.119175  ( -0.440463  -0.208912   3.298715)
  21:       945.90    7.670930  (  1.015952  -0.011011   2.576558)
  22:       959.91    4.070421  (  0.268277   0.754915   1.851635)
  23:       969.56   11.145128  (  0.527784   3.000296   1.365575)
  24:       998.07   18.175537  (  0.833886  -1.993882  -3.674862)
  25:      1029.60    7.127082  ( -1.277599   0.761912  -2.216825)
  26:      1114.69   59.171957  (  4.603082  -1.231489   6.038794)
  27:      1154.61   27.980236  ( -3.998669  -1.126471  -3.274438)
  28:      1160.52   41.425023  (  1.540009  -0.461020   6.232243)
  29:      1196.89   10.985503  ( -0.740838   1.409435  -2.906915)
  30:      1230.03    4.024507  ( -0.356668  -0.971286   1.718691)
  31:      1258.55    1.531341  ( -0.888521  -0.558460   0.655739)
  32:      1267.55    4.725273  (  2.133474  -0.090847   0.406584)
  33:      1273.22   21.708228  (  1.971929  -1.871973   3.783575)
  34:      1293.53   35.733580  (  2.762673  -2.271277   4.789835)
  35:      1356.46   12.986600  (  1.970577  -2.318209  -1.931148)
  36:      1419.15   11.927766  (  2.525703   1.842576   1.467482)
  37:      1424.91   17.665096  ( -0.332613  -4.129466  -0.708502)
  38:      1472.39   25.213228  (  3.799357   0.115455   3.280973)
  39:      1479.45  114.656483  (-10.464004   0.325548  -2.248360)
  40:      1479.78    3.184126  ( -0.216937  -1.288875  -1.214852)
  41:      1486.94    8.553068  ( -1.049950  -0.404208   2.699498)
  42:      1505.99   66.010107  (  6.950956   4.187936  -0.394354)
  43:      1623.51   38.485287  ( -0.195234   6.192773   0.311012)
  44:      1655.11   43.324191  (  2.377619  -0.079044  -6.137171)
  45:      3049.74    3.450427  ( -1.619794   0.876665   0.241150)
  46:      3079.35    0.858189  ( -0.684509   0.059788   0.621338)
  47:      3087.82   13.872100  ( -2.113957  -2.574771  -1.665485)
  48:      3093.76    6.100748  (  1.151947   0.146936  -2.179948)
  49:      3122.24    4.134330  ( -0.442307  -0.656569   1.872862)
  50:      3149.49    2.044732  (  0.179309  -1.387150   0.297313)
  51:      3154.36    0.470191  (  0.593236  -0.284477  -0.193220)
  52:      3164.29    4.178806  (  2.026375  -0.211606  -0.166831)
  53:      3395.31   50.694371  (  3.671259  -1.006692   6.016876)
  54:      3483.58   79.539478  (  3.131220   5.551490  -6.238261)
  55:      3526.92   79.283424  ( -3.972855   5.890933   5.366261)
  56:      3865.90  135.029197  (  4.479262   0.251010 -10.719254)

--------------------------
THERMOCHEMISTRY AT 298.15K
--------------------------

Temperature         ... 298.15 K
Pressure            ... 1.00 atm
Total Mass          ... 102.16 AMU

Throughout the following assumptions are being made:
  (1) The electronic state is orbitally nondegenerate
  (2) There are no thermally accessible electronically excited states
  (3) Hindered rotations indicated by low frequency modes) are not
      treated as such but are treated as vibrations and this may
      case some error
  (4) All equations used are the standard statistical mechanics
      equations for an ideal gas
  (5) All vibrations are strinctly harmonic

------------
INNER ENERGY
------------

The inner energy is: U= E(el) + E(ZPE) + E(vib) + E(rot) + E(trans)
    E(el)   - is the total energy from the electronic structure calculation
              = E(kin-el) + E(nuc-el) + E(el-el) + E(nuc-nuc)
    E(ZPE)  - the the zero temperature vibrational energy from the frequency calculation
    E(vib)  - the the finite temperature correction to E(ZPE) due to population
              of excietd vibrational states
    E(rot)  - is the rotational thermal energy
    E(trans)- is the translational thermal energy

Summary of contributions to the inner energy U:
Electronic energy                ...   -327.21983166 Eh
Zero point energy                ...      0.17487680 Eh     109.74 kcal/mol
Thermal vibrational correction   ...      0.00536453 Eh       3.37 kcal/mol
Thermal rotational correction    ...      0.00141627 Eh       0.89 kcal/mol
Thermal translational correction ...      0.00141627 Eh       0.89 kcal/mol
-----------------------------------------------------------------------
Total thermal energy                   -327.03675779 Eh

Summary of corrections to the electronic energy:
(perhaps to be used in another calculation)
Total thermal correction                  0.00819707 Eh       5.14 kcal/mol
Non-thermal (ZPE) correction              0.17487680 Eh     109.74 kcal/mol
-----------------------------------------------------------------------
Total correction                          0.18307387 Eh     114.88 kcal/mol

--------
ENTHALPY
--------

The enthalpy is H = U + kB*T
                kB is Boltzmann's constant
Total free energy                 ...   -327.03675779 Eh
Thermal Enthalpy correction       ...      0.00094421 Eh       0.59 kcal/mol
-----------------------------------------------------------------------
Total Enthalpy                    ...   -327.03581358 Eh

-------
ENTROPY
-------

The entropy contributions are T*S = T*(S(el)+S(vib)+S(rot)+S(trans)
     S(el)   - electronic entropy
     S(vib)  - vibrational entropy
     S(rot)  - rotational entropy
     S(trans)- translational entropy
The entropies will be listed as mutliplied by the temperature to get
units of energy

Electronic entropy                ...      0.00000000 Eh      0.00 kcal/mol
Vibrational entropy               ...      0.00903982 Eh      5.67 kcal/mol
Rotational entropy                ...      0.01193454 Eh      7.49 kcal/mol
Translational entropy             ...      0.01890147 Eh     11.86 kcal/mol
-----------------------------------------------------------------------
Final entropy term                ...      0.03987583 Eh     25.02 kcal/mol

CAUTION: The rotational entropy is not quite correctly treated here
         because it includes a symmetry number that is not yet correctly
         implemented in ORCA!
For a nonlinear molecule the correct rotational entropy is:
    S(rot) = R*(ln(qrot/sn)+1.5)
    R    = 8.31441 J/mol/K = 1.987191683e-3 kcal/mol/K
    qrot = 206635.8863515
    sn is the rotational symmetry number. We have assumed 3 here
       if it is different for your molecule then you should correct
       the printed rotational entropy by manually evaluating the equation
       as given above

For convenience we print out the resulting values for sn=1 - 12:
 sn= 1  qrot/sn=  206635.8864 T*S(rot)=     8.14 kcal/mol T*S(tot)=    25.67 kcal/mol
 sn= 2  qrot/sn=  103317.9432 T*S(rot)=     7.73 kcal/mol T*S(tot)=    25.26 kcal/mol
 sn= 3  qrot/sn=   68878.6288 T*S(rot)=     7.49 kcal/mol T*S(tot)=    25.02 kcal/mol
 sn= 4  qrot/sn=   51658.9716 T*S(rot)=     7.32 kcal/mol T*S(tot)=    24.85 kcal/mol
 sn= 5  qrot/sn=   41327.1773 T*S(rot)=     7.19 kcal/mol T*S(tot)=    24.72 kcal/mol
 sn= 6  qrot/sn=   34439.3144 T*S(rot)=     7.08 kcal/mol T*S(tot)=    24.61 kcal/mol
 sn= 7  qrot/sn=   29519.4123 T*S(rot)=     6.99 kcal/mol T*S(tot)=    24.52 kcal/mol
 sn= 8  qrot/sn=   25829.4858 T*S(rot)=     6.91 kcal/mol T*S(tot)=    24.44 kcal/mol
 sn= 9  qrot/sn=   22959.5429 T*S(rot)=     6.84 kcal/mol T*S(tot)=    24.37 kcal/mol
 sn=10  qrot/sn=   20663.5886 T*S(rot)=     6.78 kcal/mol T*S(tot)=    24.31 kcal/mol
 sn=11  qrot/sn=   18785.0806 T*S(rot)=     6.72 kcal/mol T*S(tot)=    24.25 kcal/mol
 sn=12  qrot/sn=   17219.6572 T*S(rot)=     6.67 kcal/mol T*S(tot)=    24.20 kcal/mol

-------------------
GIBBS FREE ENTHALPY
-------------------

The Gibbs free enthalpy is G = H - T*S

Total enthalpy                    ...   -327.03581358 Eh
Total entropy correction          ...     -0.03987583 Eh    -25.02 kcal/mol
-----------------------------------------------------------------------
Final Gibbs free enthalpy         ...   -327.07568941 Eh

For completeness - the Gibbs free enthalpy minus the electronic energy
G-E(el)                           ...      0.14414225 Eh     90.45 kcal/mol

                             ****ORCA TERMINATED NORMALLY****
TOTAL RUN TIME: 0 days 0 hours 47 minutes 30 seconds 9 msec
