                         Program Version 3.0.3 - RELEASE   -
|  1> ! NORI PBE0 def2-TZVP UseSym TightOPT Freq TightSCF Grid3 FinalGrid5 XYZFile
|  2> % pal
|  3>     nprocs 8
|  4> end
|  5> %method
|  6>     SymThresh 5.0e-2
|  7> end
|  8> % geom
|  9>     MaxIter 10
| 10> end
| 11> % maxcore 2000
| 12> % output
| 13>     printlevel mini
| 14>     print[ P_Basis ] 0
| 15>     print[ P_SCFInfo ] 1
| 16>     print[ P_SCFIterInfo ] 1
| 17>     print[ P_OrbEn ] 0
| 18>     print[ P_Cartesian ] 0
| 19> end
| 20> % elprop
| 21>     Dipole false
| 22> end
| 23> *xyz 1 1
| 24>  C        1.0165982939    -0.1219486946     0.1781628112
| 25>  C        2.5123803281    -0.0560527630     0.0776891591
| 26>  N        3.2745577589     0.9424749216     0.9925561365
| 27>  C        2.5125972757     1.6301014179     2.0575281313
| 28>  C        4.2137622732    -0.1490150107     1.4659471232
| 29>  C        3.3709521034    -1.1639403702     0.6943631315
| 30>  O        3.3619831541    -2.3398417217     0.6197720693
| 31>  H        0.6910148633    -0.9375422289    -0.4716430867
| 32>  H        0.5426839516     0.7928425722    -0.1812466409
| 33>  H        0.6674268823    -0.3494364201     1.1850386699
| 34>  H        2.8363339814     0.1441197740    -0.9484031416
| 35>  H        3.7591503117     1.6445264093     0.4369503560
| 36>  H        2.0266983044     0.8904371240     2.6904238620
| 37>  H        1.7657074190     2.2806225675     1.6057979982
| 38>  H        3.2087893884     2.2205224484     2.6525606615
| 39>  H        5.2271151767    -0.0129393541     1.0861914067
| 40>  H        4.2248885339    -0.2439906715     2.5520813527
| 41> *
| 42>
| 43>                          ****END OF INPUT****
 Total Charge           Charge          ....    1
 Multiplicity           Mult            ....    1
 Number of Electrons    NEL             ....   54
FINAL SINGLE POINT ENERGY      -325.986167463952
FINAL SINGLE POINT ENERGY      -325.986169010941
FINAL SINGLE POINT ENERGY      -325.986170698879

CARTESIAN COORDINATES (ANGSTROEM)
---------------------------------
  C     -1.805552   -0.766303   -0.356871
  C     -0.330194   -0.822493   -0.087724
  N      0.622693   -0.000325   -0.999637
  C      0.018150    0.958967   -1.949832
  C      1.300265    0.621365    0.205551
  C      0.261293   -0.055674    1.098414
  O     -0.004105    0.004469    2.244759
  H     -2.294631   -1.319012    0.448657
  H     -2.068245   -1.253439   -1.296951
  H     -2.201967    0.248815   -0.341821
  H      0.038475   -1.852889   -0.091104
  H      1.251634   -0.614288   -1.513331
  H     -0.619144    1.652205   -1.405084
  H     -0.567732    0.416044   -2.689111
  H      0.820500    1.507849   -2.441540
  H      2.320699    0.258531    0.336000
  H      1.286753    1.710656    0.172548

FINAL SINGLE POINT ENERGY      -325.986171098911
                    ***********************HURRAY********************
 Multiplicity           Mult            ....    1
 Number of Electrons    NEL             ....   54
 Basis Dimension        Dim             ....  277
FINAL SINGLE POINT ENERGY      -325.986171486429

VIBRATIONAL FREQUENCIES
-----------------------

   0:         0.00 cm**-1
   1:         0.00 cm**-1
   2:         0.00 cm**-1
   3:         0.00 cm**-1
   4:         0.00 cm**-1
   5:         0.00 cm**-1
   6:        46.72 cm**-1
   7:       196.98 cm**-1
   8:       213.12 cm**-1
   9:       243.62 cm**-1
  10:       278.94 cm**-1
  11:       360.00 cm**-1
  12:       425.30 cm**-1
  13:       489.60 cm**-1
  14:       528.53 cm**-1
  15:       694.89 cm**-1
  16:       738.23 cm**-1
  17:       757.74 cm**-1
  18:       871.99 cm**-1
  19:       893.37 cm**-1
  20:      1006.47 cm**-1
  21:      1033.57 cm**-1
  22:      1063.70 cm**-1
  23:      1094.72 cm**-1
  24:      1103.72 cm**-1
  25:      1127.98 cm**-1
  26:      1194.50 cm**-1
  27:      1209.53 cm**-1
  28:      1264.29 cm**-1
  29:      1290.68 cm**-1
  30:      1319.21 cm**-1
  31:      1349.06 cm**-1
  32:      1406.22 cm**-1
  33:      1427.95 cm**-1
  34:      1438.98 cm**-1
  35:      1462.62 cm**-1
  36:      1474.23 cm**-1
  37:      1479.90 cm**-1
  38:      1494.25 cm**-1
  39:      1500.03 cm**-1
  40:      1974.03 cm**-1
  41:      3070.30 cm**-1
  42:      3088.45 cm**-1
  43:      3089.09 cm**-1
  44:      3105.27 cm**-1
  45:      3147.06 cm**-1
  46:      3164.17 cm**-1
  47:      3176.45 cm**-1
  48:      3184.26 cm**-1
  49:      3195.41 cm**-1
  50:      3504.42 cm**-1

IR SPECTRUM
-----------

 Mode    freq (cm**-1)   T**2         TX         TY         TZ
-------------------------------------------------------------------
   6:        46.72    3.311076  ( -0.738431   1.637625  -0.289794)
   7:       196.98    3.051374  ( -1.662452   0.336469  -0.417632)
   8:       213.12    2.004649  ( -0.989359  -0.932811  -0.394563)
   9:       243.62    0.348667  ( -0.473859  -0.184378  -0.300215)
  10:       278.94    0.128702  (  0.080644  -0.071148   0.342253)
  11:       360.00    1.021645  (  0.859140   0.525148  -0.087989)
  12:       425.30    1.069721  ( -0.203705  -0.637474  -0.788576)
  13:       489.60    3.085606  ( -0.974417  -0.863258   1.179366)
  14:       528.53    0.627741  ( -0.630135  -0.450296   0.167045)
  15:       694.89    1.529377  (  0.395782   0.018123   1.171497)
  16:       738.23    5.053457  ( -1.918982  -0.755451   0.894571)
  17:       757.74    1.807502  ( -1.159235  -0.278956  -0.621176)
  18:       871.99   20.724712  (  2.433376   3.718519   0.987931)
  19:       893.37    9.669927  (  2.811349   1.188974   0.593788)
  20:      1006.47   13.759238  ( -3.267273  -1.675393  -0.526520)
  21:      1033.57   25.496813  ( -3.700719  -3.144840  -1.382561)
  22:      1063.70   27.321502  (  2.514785   2.550321  -3.806996)
  23:      1094.72    5.263215  (  1.879098   0.159066   1.306486)
  24:      1103.72   13.303275  ( -0.328647   0.132342  -3.630117)
  25:      1127.98   21.711251  (  3.033202   3.251146  -1.393192)
  26:      1194.50    0.893438  (  0.253926  -0.830733   0.372614)
  27:      1209.53   17.898669  ( -2.699072  -3.037356   1.178196)
  28:      1264.29   10.245187  ( -2.995204  -0.924000  -0.648200)
  29:      1290.68    4.875422  ( -1.176058  -0.338352  -1.837887)
  30:      1319.21    0.614066  ( -0.279434  -0.577897  -0.449464)
  31:      1349.06    5.478236  (  0.762840   1.632021   1.494262)
  32:      1406.22   12.154675  ( -3.153933  -0.813359   1.243313)
  33:      1427.95   18.271503  (  3.874379  -0.652482   1.683733)
  34:      1438.98   18.504405  (  2.867250   2.833601  -1.501329)
  35:      1462.62   12.322496  ( -0.448754  -3.042369   1.692662)
  36:      1474.23    7.644523  ( -1.603528   1.608074   1.577124)
  37:      1479.90   16.152340  (  1.466173   2.870728  -2.400334)
  38:      1494.25   18.854154  (  1.738425   3.338164   2.165339)
  39:      1500.03   24.533434  ( -1.613952   2.220967   4.122608)
  40:      1974.03  240.092448  ( -2.392910   0.169210  15.308096)
  41:      3070.30    3.473892  (  0.734335   0.985445  -1.401264)
  42:      3088.45    2.811808  ( -1.019568  -1.145515  -0.678295)
  43:      3089.09    1.733759  (  0.642798   0.998677   0.568519)
  44:      3105.27    6.093589  (  2.144774   1.079538  -0.572828)
  45:      3147.06    2.140140  (  1.393132   0.384407  -0.227054)
  46:      3164.17    1.026206  (  0.544092  -0.820000  -0.240354)
  47:      3176.45    4.803212  (  1.319473  -1.746774   0.104810)
  48:      3184.26    0.228647  ( -0.239244  -0.412470   0.035745)
  49:      3195.41    0.205156  (  0.088263   0.399363  -0.194614)
  50:      3504.42   74.062450  (  5.389547  -4.599377  -4.884769)

--------------------------
THERMOCHEMISTRY AT 298.15K
--------------------------

Temperature         ... 298.15 K
Pressure            ... 1.00 atm
Total Mass          ... 100.14 AMU

Throughout the following assumptions are being made:
  (1) The electronic state is orbitally nondegenerate
  (2) There are no thermally accessible electronically excited states
  (3) Hindered rotations indicated by low frequency modes) are not
      treated as such but are treated as vibrations and this may
      case some error
  (4) All equations used are the standard statistical mechanics
      equations for an ideal gas
  (5) All vibrations are strinctly harmonic

------------
INNER ENERGY
------------

The inner energy is: U= E(el) + E(ZPE) + E(vib) + E(rot) + E(trans)
    E(el)   - is the total energy from the electronic structure calculation
              = E(kin-el) + E(nuc-el) + E(el-el) + E(nuc-nuc)
    E(ZPE)  - the the zero temperature vibrational energy from the frequency calculation
    E(vib)  - the the finite temperature correction to E(ZPE) due to population
              of excietd vibrational states
    E(rot)  - is the rotational thermal energy
    E(trans)- is the translational thermal energy

Summary of contributions to the inner energy U:
Electronic energy                ...   -325.98617149 Eh
Zero point energy                ...      0.15076807 Eh      94.61 kcal/mol
Thermal vibrational correction   ...      0.00467616 Eh       2.93 kcal/mol
Thermal rotational correction    ...      0.00141627 Eh       0.89 kcal/mol
Thermal translational correction ...      0.00141627 Eh       0.89 kcal/mol
-----------------------------------------------------------------------
Total thermal energy                   -325.82789472 Eh

Summary of corrections to the electronic energy:
(perhaps to be used in another calculation)
Total thermal correction                  0.00750870 Eh       4.71 kcal/mol
Non-thermal (ZPE) correction              0.15076807 Eh      94.61 kcal/mol
-----------------------------------------------------------------------
Total correction                          0.15827677 Eh      99.32 kcal/mol

--------
ENTHALPY
--------

The enthalpy is H = U + kB*T
                kB is Boltzmann's constant
Total free energy                 ...   -325.82789472 Eh
Thermal Enthalpy correction       ...      0.00094421 Eh       0.59 kcal/mol
-----------------------------------------------------------------------
Total Enthalpy                    ...   -325.82695051 Eh

-------
ENTROPY
-------

The entropy contributions are T*S = T*(S(el)+S(vib)+S(rot)+S(trans)
     S(el)   - electronic entropy
     S(vib)  - vibrational entropy
     S(rot)  - rotational entropy
     S(trans)- translational entropy
The entropies will be listed as mutliplied by the temperature to get
units of energy

Electronic entropy                ...      0.00000000 Eh      0.00 kcal/mol
Vibrational entropy               ...      0.00834664 Eh      5.24 kcal/mol
Rotational entropy                ...      0.01197427 Eh      7.51 kcal/mol
Translational entropy             ...      0.01887324 Eh     11.84 kcal/mol
-----------------------------------------------------------------------
Final entropy term                ...      0.03919415 Eh     24.59 kcal/mol

CAUTION: The rotational entropy is not quite correctly treated here
         because it includes a symmetry number that is not yet correctly
         implemented in ORCA!
For a nonlinear molecule the correct rotational entropy is:
    S(rot) = R*(ln(qrot/sn)+1.5)
    R    = 8.31441 J/mol/K = 1.987191683e-3 kcal/mol/K
    qrot = 215516.2103202
    sn is the rotational symmetry number. We have assumed 3 here
       if it is different for your molecule then you should correct
       the printed rotational entropy by manually evaluating the equation
       as given above

For convenience we print out the resulting values for sn=1 - 12:
 sn= 1  qrot/sn=  215516.2103 T*S(rot)=     8.16 kcal/mol T*S(tot)=    25.25 kcal/mol
 sn= 2  qrot/sn=  107758.1052 T*S(rot)=     7.75 kcal/mol T*S(tot)=    24.83 kcal/mol
 sn= 3  qrot/sn=   71838.7368 T*S(rot)=     7.51 kcal/mol T*S(tot)=    24.59 kcal/mol
 sn= 4  qrot/sn=   53879.0526 T*S(rot)=     7.34 kcal/mol T*S(tot)=    24.42 kcal/mol
 sn= 5  qrot/sn=   43103.2421 T*S(rot)=     7.21 kcal/mol T*S(tot)=    24.29 kcal/mol
 sn= 6  qrot/sn=   35919.3684 T*S(rot)=     7.10 kcal/mol T*S(tot)=    24.18 kcal/mol
 sn= 7  qrot/sn=   30788.0300 T*S(rot)=     7.01 kcal/mol T*S(tot)=    24.09 kcal/mol
 sn= 8  qrot/sn=   26939.5263 T*S(rot)=     6.93 kcal/mol T*S(tot)=    24.01 kcal/mol
 sn= 9  qrot/sn=   23946.2456 T*S(rot)=     6.86 kcal/mol T*S(tot)=    23.94 kcal/mol
 sn=10  qrot/sn=   21551.6210 T*S(rot)=     6.80 kcal/mol T*S(tot)=    23.88 kcal/mol
 sn=11  qrot/sn=   19592.3828 T*S(rot)=     6.74 kcal/mol T*S(tot)=    23.82 kcal/mol
 sn=12  qrot/sn=   17959.6842 T*S(rot)=     6.69 kcal/mol T*S(tot)=    23.77 kcal/mol

-------------------
GIBBS FREE ENTHALPY
-------------------

The Gibbs free enthalpy is G = H - T*S

Total enthalpy                    ...   -325.82695051 Eh
Total entropy correction          ...     -0.03919415 Eh    -24.59 kcal/mol
-----------------------------------------------------------------------
Final Gibbs free enthalpy         ...   -325.86614466 Eh

For completeness - the Gibbs free enthalpy minus the electronic energy
G-E(el)                           ...      0.12002683 Eh     75.32 kcal/mol

                             ****ORCA TERMINATED NORMALLY****
TOTAL RUN TIME: 0 days 0 hours 40 minutes 41 seconds 45 msec
