                         Program Version 3.0.3 - RELEASE   -
|  1> ! NORI PBE0 def2-TZVP UseSym TightOPT Freq TightSCF Grid3 FinalGrid5 XYZFile
|  2> % pal
|  3>     nprocs 8
|  4> end
|  5> %method
|  6>     SymThresh 5.0e-2
|  7> end
|  8> % geom
|  9>     MaxIter 10
| 10> end
| 11> % maxcore 2000
| 12> % output
| 13>     printlevel mini
| 14>     print[ P_Basis ] 0
| 15>     print[ P_SCFInfo ] 1
| 16>     print[ P_SCFIterInfo ] 1
| 17>     print[ P_OrbEn ] 0
| 18>     print[ P_Cartesian ] 0
| 19> end
| 20> % elprop
| 21>     Dipole false
| 22> end
| 23> *xyz 1 1
| 24>  C        1.0676869408    -0.0617303670     0.0825330087
| 25>  C        2.5629767408    -0.0799702985    -0.0082496226
| 26>  N        3.2906570316     0.9552526471     0.8535828880
| 27>  C        4.3482297964    -0.0853942683     1.2266680424
| 28>  C        5.6283738283     0.1139985445     0.4648560426
| 29>  C        3.3846178380    -1.1834666248     0.6950912679
| 30>  O        3.8772417312    -2.2333467690    -0.0379629521
| 31>  H        0.6757659561    -0.9118515739    -0.4801414401
| 32>  H        0.6388825667     0.8453905071    -0.3484341032
| 33>  H        0.7265453586    -0.1656465671     1.1159779329
| 34>  H        2.9137151823     0.0700420263    -1.0319484580
| 35>  H        2.7273253123     1.2533441506     1.6493406010
| 36>  H        3.6329150487     1.7874404744     0.3750483748
| 37>  H        4.5184393039    -0.0823323993     2.3031413745
| 38>  H        5.4720978289     0.1862270028    -0.6158479220
| 39>  H        6.2837689495    -0.7386771124     0.6523006990
| 40>  H        6.1538448246     1.0112287613     0.7987944204
| 41>  H        2.8120412406    -1.6236620142     1.5150747372
| 42>  H        4.3802045206    -1.9299261195    -0.8006948911
| 43> *
| 44>
| 45>                          ****END OF INPUT****
 Total Charge           Charge          ....    1
 Multiplicity           Mult            ....    1
 Number of Electrons    NEL             ....   56
FINAL SINGLE POINT ENERGY      -327.213452785847
FINAL SINGLE POINT ENERGY      -327.213455134738
FINAL SINGLE POINT ENERGY      -327.213456311454

CARTESIAN COORDINATES (ANGSTROEM)
---------------------------------
  C     -2.293014    0.443916   -0.711085
  C     -0.974862   -0.172498   -0.353736
  N      0.137670   -0.003509   -1.392270
  C      1.149610    0.270164   -0.278114
  C      2.025774   -0.920601   -0.005904
  C     -0.047901    0.492074    0.688165
  O     -0.001813   -0.001018    1.967566
  H     -2.960318    0.356645    0.149104
  H     -2.770282   -0.062437   -1.552491
  H     -2.191068    1.507669   -0.941807
  H     -1.062408   -1.245175   -0.165721
  H     -0.021985    0.804870   -1.992538
  H      0.333677   -0.808616   -1.985589
  H      1.739646    1.155241   -0.513356
  H      1.454686   -1.839684    0.154514
  H      2.609347   -0.726662    0.895913
  H      2.730320   -1.090703   -0.822317
  H     -0.276028    1.556951    0.779109
  H      0.175388   -0.947181    1.979636

FINAL SINGLE POINT ENERGY      -327.213456601627
                    ***********************HURRAY********************
 Multiplicity           Mult            ....    1
 Number of Electrons    NEL             ....   56
 Basis Dimension        Dim             ....  289
FINAL SINGLE POINT ENERGY      -327.213456794244

VIBRATIONAL FREQUENCIES
-----------------------

   0:         0.00 cm**-1
   1:         0.00 cm**-1
   2:         0.00 cm**-1
   3:         0.00 cm**-1
   4:         0.00 cm**-1
   5:         0.00 cm**-1
   6:        86.15 cm**-1
   7:       220.14 cm**-1
   8:       225.87 cm**-1
   9:       247.66 cm**-1
  10:       255.27 cm**-1
  11:       299.48 cm**-1
  12:       356.29 cm**-1
  13:       364.87 cm**-1
  14:       453.42 cm**-1
  15:       578.14 cm**-1
  16:       685.91 cm**-1
  17:       797.25 cm**-1
  18:       817.91 cm**-1
  19:       840.11 cm**-1
  20:       875.10 cm**-1
  21:       922.02 cm**-1
  22:       993.73 cm**-1
  23:      1022.37 cm**-1
  24:      1054.04 cm**-1
  25:      1099.44 cm**-1
  26:      1110.38 cm**-1
  27:      1172.65 cm**-1
  28:      1194.00 cm**-1
  29:      1228.37 cm**-1
  30:      1245.63 cm**-1
  31:      1278.77 cm**-1
  32:      1296.27 cm**-1
  33:      1311.37 cm**-1
  34:      1346.84 cm**-1
  35:      1378.18 cm**-1
  36:      1394.57 cm**-1
  37:      1416.59 cm**-1
  38:      1419.71 cm**-1
  39:      1447.71 cm**-1
  40:      1479.45 cm**-1
  41:      1483.80 cm**-1
  42:      1487.26 cm**-1
  43:      1490.85 cm**-1
  44:      1637.93 cm**-1
  45:      3053.94 cm**-1
  46:      3055.42 cm**-1
  47:      3094.05 cm**-1
  48:      3107.68 cm**-1
  49:      3124.70 cm**-1
  50:      3138.03 cm**-1
  51:      3142.94 cm**-1
  52:      3144.61 cm**-1
  53:      3149.21 cm**-1
  54:      3463.11 cm**-1
  55:      3535.70 cm**-1
  56:      3838.17 cm**-1

IR SPECTRUM
-----------

 Mode    freq (cm**-1)   T**2         TX         TY         TZ
-------------------------------------------------------------------
   6:        86.15    1.397325  (  0.618328   0.962561   0.297442)
   7:       220.14    0.706387  (  0.659759  -0.077249   0.514915)
   8:       225.87    2.735235  ( -1.208308   0.905533  -0.674712)
   9:       247.66    1.661065  (  0.594914   1.064520  -0.417059)
  10:       255.27    1.871378  ( -1.126218  -0.525721   0.571514)
  11:       299.48   27.111116  ( -5.179903  -0.256239  -0.462672)
  12:       356.29  103.149343  (  9.999893   1.546345  -0.871946)
  13:       364.87    1.794033  ( -1.049064   0.647433   0.523765)
  14:       453.42    2.243448  (  0.991979   1.121228  -0.047695)
  15:       578.14    2.864089  (  0.975097  -1.329465  -0.381833)
  16:       685.91    4.134083  ( -1.060680  -0.001234   1.734658)
  17:       797.25    6.018764  ( -2.206378   1.051392   0.212685)
  18:       817.91   13.858205  (  1.421024  -2.427143   2.438826)
  19:       840.11    3.264882  ( -1.408653   0.670883  -0.911314)
  20:       875.10    4.262377  ( -1.558209  -1.242554  -0.538907)
  21:       922.02   24.586937  (  4.930704   0.461671   0.248907)
  22:       993.73    1.090749  ( -0.348573   0.472255  -0.863841)
  23:      1022.37   10.612623  ( -1.670761   0.471919   2.756533)
  24:      1054.04    7.584015  (  1.682635   1.095052   1.885104)
  25:      1099.44   25.012642  ( -2.020227  -1.243173   4.402936)
  26:      1110.38    6.335641  (  2.367865  -0.123490  -0.844752)
  27:      1172.65   21.630725  ( -2.672102  -0.303227  -3.794555)
  28:      1194.00  116.335567  ( -0.464174   2.094760 -10.570340)
  29:      1228.37   22.961053  (  1.277844  -1.927070   4.196971)
  30:      1245.63   45.770136  ( -6.359045  -1.045643   2.058959)
  31:      1278.77    2.389831  ( -1.403603   0.243145   0.600509)
  32:      1296.27   30.224648  (  5.246424   1.527998   0.604078)
  33:      1311.37    8.963005  ( -2.725694  -0.762627  -0.975705)
  34:      1346.84    4.021597  ( -1.591931   1.218860   0.041605)
  35:      1378.18    3.114246  (  1.064971   0.272644   1.380488)
  36:      1394.57    1.692313  ( -1.176238   0.359503   0.423716)
  37:      1416.59    6.874997  ( -1.471459  -0.851694   1.996102)
  38:      1419.71   25.856515  ( -3.333687   3.260178  -2.028371)
  39:      1447.71   19.528627  (  0.796401   0.536576  -4.313520)
  40:      1479.45    8.612000  (  0.583572   1.760243   2.274421)
  41:      1483.80    9.799125  ( -0.815799  -3.019555  -0.126032)
  42:      1487.26   28.757364  (  2.264083   1.337157  -4.673682)
  43:      1490.85   13.089351  ( -1.955902  -2.703804  -1.397585)
  44:      1637.93   64.542247  (  0.335781   0.397324  -8.016959)
  45:      3053.94    4.379334  (  1.480456   1.416589   0.425278)
  46:      3055.42    2.300078  ( -0.541926  -0.726008   1.216267)
  47:      3094.05    0.823328  (  0.126727   0.777604  -0.450111)
  48:      3107.68    6.980447  ( -1.607261   1.579714  -1.379008)
  49:      3124.70    0.676436  (  0.500660   0.079849  -0.647610)
  50:      3138.03    3.458180  ( -0.290041   1.833807   0.105864)
  51:      3142.94    5.108569  ( -1.053380  -1.753732   0.960928)
  52:      3144.61    1.757192  (  1.228788   0.396965   0.299484)
  53:      3149.21    0.749601  ( -0.630942   0.505135  -0.310406)
  54:      3463.11   53.811752  ( -0.398436   0.000534   7.324821)
  55:      3535.70   70.903862  ( -1.929361   8.191903  -0.272303)
  56:      3838.17   46.229702  ( -1.196798   5.711088  -3.490108)

--------------------------
THERMOCHEMISTRY AT 298.15K
--------------------------

Temperature         ... 298.15 K
Pressure            ... 1.00 atm
Total Mass          ... 102.16 AMU

Throughout the following assumptions are being made:
  (1) The electronic state is orbitally nondegenerate
  (2) There are no thermally accessible electronically excited states
  (3) Hindered rotations indicated by low frequency modes) are not
      treated as such but are treated as vibrations and this may
      case some error
  (4) All equations used are the standard statistical mechanics
      equations for an ideal gas
  (5) All vibrations are strinctly harmonic

------------
INNER ENERGY
------------

The inner energy is: U= E(el) + E(ZPE) + E(vib) + E(rot) + E(trans)
    E(el)   - is the total energy from the electronic structure calculation
              = E(kin-el) + E(nuc-el) + E(el-el) + E(nuc-nuc)
    E(ZPE)  - the the zero temperature vibrational energy from the frequency calculation
    E(vib)  - the the finite temperature correction to E(ZPE) due to population
              of excietd vibrational states
    E(rot)  - is the rotational thermal energy
    E(trans)- is the translational thermal energy

Summary of contributions to the inner energy U:
Electronic energy                ...   -327.21345679 Eh
Zero point energy                ...      0.17510696 Eh     109.88 kcal/mol
Thermal vibrational correction   ...      0.00510093 Eh       3.20 kcal/mol
Thermal rotational correction    ...      0.00141627 Eh       0.89 kcal/mol
Thermal translational correction ...      0.00141627 Eh       0.89 kcal/mol
-----------------------------------------------------------------------
Total thermal energy                   -327.03041637 Eh

Summary of corrections to the electronic energy:
(perhaps to be used in another calculation)
Total thermal correction                  0.00793347 Eh       4.98 kcal/mol
Non-thermal (ZPE) correction              0.17510696 Eh     109.88 kcal/mol
-----------------------------------------------------------------------
Total correction                          0.18304042 Eh     114.86 kcal/mol

--------
ENTHALPY
--------

The enthalpy is H = U + kB*T
                kB is Boltzmann's constant
Total free energy                 ...   -327.03041637 Eh
Thermal Enthalpy correction       ...      0.00094421 Eh       0.59 kcal/mol
-----------------------------------------------------------------------
Total Enthalpy                    ...   -327.02947216 Eh

-------
ENTROPY
-------

The entropy contributions are T*S = T*(S(el)+S(vib)+S(rot)+S(trans)
     S(el)   - electronic entropy
     S(vib)  - vibrational entropy
     S(rot)  - rotational entropy
     S(trans)- translational entropy
The entropies will be listed as mutliplied by the temperature to get
units of energy

Electronic entropy                ...      0.00000000 Eh      0.00 kcal/mol
Vibrational entropy               ...      0.00853469 Eh      5.36 kcal/mol
Rotational entropy                ...      0.01205585 Eh      7.57 kcal/mol
Translational entropy             ...      0.01890147 Eh     11.86 kcal/mol
-----------------------------------------------------------------------
Final entropy term                ...      0.03949200 Eh     24.78 kcal/mol

CAUTION: The rotational entropy is not quite correctly treated here
         because it includes a symmetry number that is not yet correctly
         implemented in ORCA!
For a nonlinear molecule the correct rotational entropy is:
    S(rot) = R*(ln(qrot/sn)+1.5)
    R    = 8.31441 J/mol/K = 1.987191683e-3 kcal/mol/K
    qrot = 234964.2550212
    sn is the rotational symmetry number. We have assumed 3 here
       if it is different for your molecule then you should correct
       the printed rotational entropy by manually evaluating the equation
       as given above

For convenience we print out the resulting values for sn=1 - 12:
 sn= 1  qrot/sn=  234964.2550 T*S(rot)=     8.22 kcal/mol T*S(tot)=    25.43 kcal/mol
 sn= 2  qrot/sn=  117482.1275 T*S(rot)=     7.81 kcal/mol T*S(tot)=    25.02 kcal/mol
 sn= 3  qrot/sn=   78321.4183 T*S(rot)=     7.57 kcal/mol T*S(tot)=    24.78 kcal/mol
 sn= 4  qrot/sn=   58741.0638 T*S(rot)=     7.39 kcal/mol T*S(tot)=    24.61 kcal/mol
 sn= 5  qrot/sn=   46992.8510 T*S(rot)=     7.26 kcal/mol T*S(tot)=    24.48 kcal/mol
 sn= 6  qrot/sn=   39160.7092 T*S(rot)=     7.15 kcal/mol T*S(tot)=    24.37 kcal/mol
 sn= 7  qrot/sn=   33566.3221 T*S(rot)=     7.06 kcal/mol T*S(tot)=    24.28 kcal/mol
 sn= 8  qrot/sn=   29370.5319 T*S(rot)=     6.98 kcal/mol T*S(tot)=    24.20 kcal/mol
 sn= 9  qrot/sn=   26107.1394 T*S(rot)=     6.91 kcal/mol T*S(tot)=    24.13 kcal/mol
 sn=10  qrot/sn=   23496.4255 T*S(rot)=     6.85 kcal/mol T*S(tot)=    24.07 kcal/mol
 sn=11  qrot/sn=   21360.3868 T*S(rot)=     6.80 kcal/mol T*S(tot)=    24.01 kcal/mol
 sn=12  qrot/sn=   19580.3546 T*S(rot)=     6.74 kcal/mol T*S(tot)=    23.96 kcal/mol

-------------------
GIBBS FREE ENTHALPY
-------------------

The Gibbs free enthalpy is G = H - T*S

Total enthalpy                    ...   -327.02947216 Eh
Total entropy correction          ...     -0.03949200 Eh    -24.78 kcal/mol
-----------------------------------------------------------------------
Final Gibbs free enthalpy         ...   -327.06896416 Eh

For completeness - the Gibbs free enthalpy minus the electronic energy
G-E(el)                           ...      0.14449263 Eh     90.67 kcal/mol

                             ****ORCA TERMINATED NORMALLY****
TOTAL RUN TIME: 0 days 0 hours 43 minutes 0 seconds 309 msec
