                         Program Version 3.0.3 - RELEASE   -
|  1> ! NORI PBE0 def2-TZVP UseSym TightOPT Freq TightSCF Grid3 FinalGrid5 XYZFile
|  2> % pal
|  3>     nprocs 8
|  4> end
|  5> %method
|  6>     SymThresh 5.0e-2
|  7> end
|  8> % geom
|  9>     MaxIter 10
| 10> end
| 11> % maxcore 2000
| 12> % output
| 13>     printlevel mini
| 14>     print[ P_Basis ] 0
| 15>     print[ P_SCFInfo ] 1
| 16>     print[ P_SCFIterInfo ] 1
| 17>     print[ P_OrbEn ] 0
| 18>     print[ P_Cartesian ] 0
| 19> end
| 20> % elprop
| 21>     Dipole false
| 22> end
| 23> *xyz 1 1
| 24>  C        0.9457550819     0.0493199647     0.2596501006
| 25>  C        2.3685514976    -0.0383507640    -0.2208673750
| 26>  N        3.2992203137     1.0685597904     0.2993193028
| 27>  C        4.2317560347     0.0550905264     0.9809907596
| 28>  C        5.6522738698     0.0643776046     0.4856235553
| 29>  C        3.2988842151    -1.0468144396     0.4640742829
| 30>  O        3.2974295783    -2.2219089779     0.5575387775
| 31>  H        0.4225908623     0.8952394479    -0.1899485840
| 32>  H        0.8852551419     0.1167339736     1.3486161068
| 33>  H        0.4298398485    -0.8639063820    -0.0437975436
| 34>  H        2.4370481272    -0.0772317164    -1.3110983203
| 35>  H        2.8397271028     1.7134216128     0.9411470993
| 36>  H        3.7556766030     1.6124026167    -0.4317772112
| 37>  H        4.1691209500     0.1864680064     2.0642107438
| 38>  H        5.7077873557    -0.0351835508    -0.6012168621
| 39>  H        6.1667482483    -0.7937590202     0.9224093256
| 40>  H        6.1802051692     0.9671813075     0.7985658421
| 41> *
| 42>
| 43>                          ****END OF INPUT****
 Total Charge           Charge          ....    1
 Multiplicity           Mult            ....    1
 Number of Electrons    NEL             ....   54
FINAL SINGLE POINT ENERGY      -325.998131804047

CARTESIAN COORDINATES (ANGSTROEM)
---------------------------------
  C      2.355805    0.003537    0.336061
  C      0.960182   -0.556050    0.287212
  N      0.000000   -0.000000    1.350653
  C     -0.960182    0.556050    0.287212
  C     -2.355805   -0.003537    0.336061
  C      0.000000   -0.000000   -0.771363
  O      0.000000   -0.000000   -1.950079
  H      2.899639   -0.352198    1.212825
  H      2.359367    1.095961    0.320211
  H      2.888493   -0.341216   -0.552273
  H      0.948610   -1.647669    0.333599
  H      0.423362    0.710022    1.946767
  H     -0.423362   -0.710022    1.946767
  H     -0.948610    1.647669    0.333599
  H     -2.359367   -1.095961    0.320211
  H     -2.888493    0.341216   -0.552273
  H     -2.899639    0.352198    1.212825

FINAL SINGLE POINT ENERGY      -325.998132417788
                    ***********************HURRAY********************
 Multiplicity           Mult            ....    1
 Number of Electrons    NEL             ....   54
 Basis Dimension        Dim             ....  277
FINAL SINGLE POINT ENERGY      -325.998132587947

VIBRATIONAL FREQUENCIES
-----------------------

   0:         0.00 cm**-1
   1:         0.00 cm**-1
   2:         0.00 cm**-1
   3:         0.00 cm**-1
   4:         0.00 cm**-1
   5:         0.00 cm**-1
   6:        56.29 cm**-1
   7:       190.96 cm**-1
   8:       211.24 cm**-1
   9:       224.44 cm**-1
  10:       228.16 cm**-1
  11:       292.26 cm**-1
  12:       374.90 cm**-1
  13:       476.11 cm**-1
  14:       689.06 cm**-1
  15:       705.05 cm**-1
  16:       736.30 cm**-1
  17:       789.18 cm**-1
  18:       845.50 cm**-1
  19:       876.11 cm**-1
  20:       963.78 cm**-1
  21:       971.47 cm**-1
  22:      1014.10 cm**-1
  23:      1050.05 cm**-1
  24:      1098.12 cm**-1
  25:      1121.60 cm**-1
  26:      1192.08 cm**-1
  27:      1227.60 cm**-1
  28:      1235.56 cm**-1
  29:      1269.65 cm**-1
  30:      1308.46 cm**-1
  31:      1335.13 cm**-1
  32:      1342.24 cm**-1
  33:      1409.15 cm**-1
  34:      1411.90 cm**-1
  35:      1477.31 cm**-1
  36:      1477.71 cm**-1
  37:      1484.41 cm**-1
  38:      1484.89 cm**-1
  39:      1636.20 cm**-1
  40:      1972.67 cm**-1
  41:      3061.11 cm**-1
  42:      3061.34 cm**-1
  43:      3107.89 cm**-1
  44:      3109.22 cm**-1
  45:      3146.15 cm**-1
  46:      3146.46 cm**-1
  47:      3152.93 cm**-1
  48:      3153.09 cm**-1
  49:      3469.87 cm**-1
  50:      3540.45 cm**-1

IR SPECTRUM
-----------

 Mode    freq (cm**-1)   T**2         TX         TY         TZ
-------------------------------------------------------------------
   6:        56.29    0.916545  ( -0.574842   0.765573   0.000045)
   7:       190.96    6.097906  ( -2.352660  -0.750264  -0.000035)
   8:       211.24    0.003749  ( -0.000097   0.000070  -0.061227)
   9:       224.44    0.165648  ( -0.002465   0.002122   0.406986)
  10:       228.16    2.553869  (  1.131236  -1.128793   0.000821)
  11:       292.26    0.014601  (  0.000050  -0.000025   0.120836)
  12:       374.90    3.328255  ( -1.824238   0.020252  -0.000006)
  13:       476.11    1.025672  ( -0.337820   0.954751   0.000016)
  14:       689.06    4.527632  ( -0.000005  -0.000033  -2.127823)
  15:       705.05    2.285946  ( -0.413261   1.454359  -0.000016)
  16:       736.30    0.425140  ( -0.000019  -0.000016   0.652028)
  17:       789.18   18.837749  ( -4.309349  -0.516969   0.000005)
  18:       845.50    0.006583  ( -0.000010   0.000001   0.081135)
  19:       876.11    2.519039  (  0.419499   1.530706   0.000013)
  20:       963.78   66.699993  (  7.528655  -3.165335   0.000016)
  21:       971.47    0.273409  (  0.000098  -0.000035   0.522885)
  22:      1014.10    9.993339  ( -0.000044   0.000000   3.161224)
  23:      1050.05    3.038795  (  1.707697  -0.350095   0.000049)
  24:      1098.12   15.535254  ( -0.000037   0.000008  -3.941479)
  25:      1121.60   48.187969  (  6.361188  -2.779075  -0.000057)
  26:      1192.08   18.834309  (  2.775672  -3.336159   0.000019)
  27:      1227.60    0.369454  ( -0.000013   0.000033   0.607827)
  28:      1235.56   60.475423  (  7.409252  -2.361866   0.000041)
  29:      1269.65    0.008553  (  0.000120  -0.000015   0.092483)
  30:      1308.46    7.339975  (  1.498554  -2.257058  -0.000063)
  31:      1335.13    1.998663  ( -0.627025  -1.267084  -0.000449)
  32:      1342.24    7.827883  (  0.000140   0.000234  -2.797835)
  33:      1409.15    3.305170  ( -0.000153  -0.000091  -1.818013)
  34:      1411.90   13.568471  (  3.188751   1.844001  -0.000071)
  35:      1477.31    5.742782  (  0.830958  -2.247716   0.007838)
  36:      1477.71   14.688610  ( -0.001930   0.005129   3.832568)
  37:      1484.41   27.704532  (  2.061405  -4.843051  -0.001050)
  38:      1484.89    0.986880  ( -0.003057   0.007147  -0.993388)
  39:      1636.20   60.783047  ( -0.000007  -0.000020   7.796348)
  40:      1972.67  207.545445  ( -0.000001  -0.000002  14.406438)
  41:      3061.11    3.302317  (  1.040665  -1.489743  -0.000025)
  42:      3061.34    2.939400  ( -0.000023   0.000011  -1.714468)
  43:      3107.89    6.381360  (  1.859279  -1.710100  -0.000002)
  44:      3109.22    1.415150  ( -0.000019   0.000004   1.189601)
  45:      3146.15    0.616473  (  0.000005   0.000002  -0.785158)
  46:      3146.46    1.970301  ( -1.007710  -0.977150  -0.000021)
  47:      3152.93    0.485973  (  0.000650  -0.000156  -0.697117)
  48:      3153.09    2.444807  ( -1.516904   0.379222  -0.000307)
  49:      3469.87   68.678975  ( -0.000040  -0.000051   8.287278)
  50:      3540.45   84.146650  ( -4.826588  -7.800686  -0.000055)

--------------------------
THERMOCHEMISTRY AT 298.15K
--------------------------

Temperature         ... 298.15 K
Pressure            ... 1.00 atm
Total Mass          ... 100.14 AMU

Throughout the following assumptions are being made:
  (1) The electronic state is orbitally nondegenerate
  (2) There are no thermally accessible electronically excited states
  (3) Hindered rotations indicated by low frequency modes) are not
      treated as such but are treated as vibrations and this may
      case some error
  (4) All equations used are the standard statistical mechanics
      equations for an ideal gas
  (5) All vibrations are strinctly harmonic

------------
INNER ENERGY
------------

The inner energy is: U= E(el) + E(ZPE) + E(vib) + E(rot) + E(trans)
    E(el)   - is the total energy from the electronic structure calculation
              = E(kin-el) + E(nuc-el) + E(el-el) + E(nuc-nuc)
    E(ZPE)  - the the zero temperature vibrational energy from the frequency calculation
    E(vib)  - the the finite temperature correction to E(ZPE) due to population
              of excietd vibrational states
    E(rot)  - is the rotational thermal energy
    E(trans)- is the translational thermal energy

Summary of contributions to the inner energy U:
Electronic energy                ...   -325.99813259 Eh
Zero point energy                ...      0.15065099 Eh      94.53 kcal/mol
Thermal vibrational correction   ...      0.00484727 Eh       3.04 kcal/mol
Thermal rotational correction    ...      0.00141627 Eh       0.89 kcal/mol
Thermal translational correction ...      0.00141627 Eh       0.89 kcal/mol
-----------------------------------------------------------------------
Total thermal energy                   -325.83980178 Eh

Summary of corrections to the electronic energy:
(perhaps to be used in another calculation)
Total thermal correction                  0.00767981 Eh       4.82 kcal/mol
Non-thermal (ZPE) correction              0.15065099 Eh      94.53 kcal/mol
-----------------------------------------------------------------------
Total correction                          0.15833080 Eh      99.35 kcal/mol

--------
ENTHALPY
--------

The enthalpy is H = U + kB*T
                kB is Boltzmann's constant
Total free energy                 ...   -325.83980178 Eh
Thermal Enthalpy correction       ...      0.00094421 Eh       0.59 kcal/mol
-----------------------------------------------------------------------
Total Enthalpy                    ...   -325.83885757 Eh

-------
ENTROPY
-------

The entropy contributions are T*S = T*(S(el)+S(vib)+S(rot)+S(trans)
     S(el)   - electronic entropy
     S(vib)  - vibrational entropy
     S(rot)  - rotational entropy
     S(trans)- translational entropy
The entropies will be listed as mutliplied by the temperature to get
units of energy

Electronic entropy                ...      0.00000000 Eh      0.00 kcal/mol
Vibrational entropy               ...      0.00861494 Eh      5.41 kcal/mol
Rotational entropy                ...      0.01201333 Eh      7.54 kcal/mol
Translational entropy             ...      0.01887324 Eh     11.84 kcal/mol
-----------------------------------------------------------------------
Final entropy term                ...      0.03950151 Eh     24.79 kcal/mol

CAUTION: The rotational entropy is not quite correctly treated here
         because it includes a symmetry number that is not yet correctly
         implemented in ORCA!
For a nonlinear molecule the correct rotational entropy is:
    S(rot) = R*(ln(qrot/sn)+1.5)
    R    = 8.31441 J/mol/K = 1.987191683e-3 kcal/mol/K
    qrot = 224618.8407643
    sn is the rotational symmetry number. We have assumed 3 here
       if it is different for your molecule then you should correct
       the printed rotational entropy by manually evaluating the equation
       as given above

For convenience we print out the resulting values for sn=1 - 12:
 sn= 1  qrot/sn=  224618.8408 T*S(rot)=     8.19 kcal/mol T*S(tot)=    25.44 kcal/mol
 sn= 2  qrot/sn=  112309.4204 T*S(rot)=     7.78 kcal/mol T*S(tot)=    25.03 kcal/mol
 sn= 3  qrot/sn=   74872.9469 T*S(rot)=     7.54 kcal/mol T*S(tot)=    24.79 kcal/mol
 sn= 4  qrot/sn=   56154.7102 T*S(rot)=     7.37 kcal/mol T*S(tot)=    24.62 kcal/mol
 sn= 5  qrot/sn=   44923.7682 T*S(rot)=     7.24 kcal/mol T*S(tot)=    24.48 kcal/mol
 sn= 6  qrot/sn=   37436.4735 T*S(rot)=     7.13 kcal/mol T*S(tot)=    24.38 kcal/mol
 sn= 7  qrot/sn=   32088.4058 T*S(rot)=     7.04 kcal/mol T*S(tot)=    24.29 kcal/mol
 sn= 8  qrot/sn=   28077.3551 T*S(rot)=     6.96 kcal/mol T*S(tot)=    24.21 kcal/mol
 sn= 9  qrot/sn=   24957.6490 T*S(rot)=     6.89 kcal/mol T*S(tot)=    24.14 kcal/mol
 sn=10  qrot/sn=   22461.8841 T*S(rot)=     6.83 kcal/mol T*S(tot)=    24.07 kcal/mol
 sn=11  qrot/sn=   20419.8946 T*S(rot)=     6.77 kcal/mol T*S(tot)=    24.02 kcal/mol
 sn=12  qrot/sn=   18718.2367 T*S(rot)=     6.72 kcal/mol T*S(tot)=    23.97 kcal/mol

-------------------
GIBBS FREE ENTHALPY
-------------------

The Gibbs free enthalpy is G = H - T*S

Total enthalpy                    ...   -325.83885757 Eh
Total entropy correction          ...     -0.03950151 Eh    -24.79 kcal/mol
-----------------------------------------------------------------------
Final Gibbs free enthalpy         ...   -325.87835908 Eh

For completeness - the Gibbs free enthalpy minus the electronic energy
G-E(el)                           ...      0.11977351 Eh     75.16 kcal/mol

                             ****ORCA TERMINATED NORMALLY****
TOTAL RUN TIME: 0 days 0 hours 37 minutes 13 seconds 387 msec
