                         Program Version 3.0.3 - RELEASE   -
|  1> ! NORI PBE0 def2-TZVP UseSym TightOPT Freq TightSCF Grid3 FinalGrid5 XYZFile
|  2> % pal
|  3>     nprocs 8
|  4> end
|  5> %method
|  6>     SymThresh 5.0e-2
|  7> end
|  8> % geom
|  9>     MaxIter 10
| 10> end
| 11> % maxcore 2000
| 12> % output
| 13>     printlevel mini
| 14>     print[ P_Basis ] 0
| 15>     print[ P_SCFInfo ] 1
| 16>     print[ P_SCFIterInfo ] 1
| 17>     print[ P_OrbEn ] 0
| 18>     print[ P_Cartesian ] 0
| 19> end
| 20> % elprop
| 21>     Dipole false
| 22> end
| 23> *xyz 1 1
| 24>  C        1.1501908478     0.1485878718     0.4407583811
| 25>  C        2.5608839432    -0.0435777329    -0.0727020705
| 26>  N        3.4743660907     1.0803464175     0.3558523701
| 27>  C        4.1977428007     0.6321923353     1.6118473806
| 28>  C        4.4014171752    -0.8516798538     1.4015877164
| 29>  C        3.2328717318    -1.2851428494     0.5351691639
| 30>  O        2.8465329791    -2.3915690104     0.3386525592
| 31>  H        0.6735178261     1.0187021281    -0.0152607736
| 32>  H        1.1172108354     0.2457847938     1.5288547010
| 33>  H        0.5701548041    -0.7352729513     0.1713633296
| 34>  H        2.5790558098    -0.1055593061    -1.1622523777
| 35>  H        2.9546089431     1.9442605673     0.5140079477
| 36>  H        4.1560819939     1.2767797762    -0.3778388384
| 37>  H        3.5337275362     0.8417981322     2.4497066714
| 38>  H        5.1057877506     1.2210307933     1.7221511064
| 39>  H        5.3298260463    -1.0705302384     0.8629690096
| 40>  H        4.4235428860    -1.4198108731     2.3306737231
| 41> *
| 42>
| 43>                          ****END OF INPUT****
 Total Charge           Charge          ....    1
 Multiplicity           Mult            ....    1
 Number of Electrons    NEL             ....   54
FINAL SINGLE POINT ENERGY      -326.021912800490
FINAL SINGLE POINT ENERGY      -326.021913832252
FINAL SINGLE POINT ENERGY      -326.021914522731

CARTESIAN COORDINATES (ANGSTROEM)
---------------------------------
  C     -0.391834   -1.990683   -0.221082
  C      0.533092   -0.795556   -0.134751
  N      0.548152    0.000741   -1.418552
  C     -0.438614    1.142487   -1.263635
  C     -0.324005    1.521896    0.196090
  C      0.054347    0.232902    0.902685
  O     -0.006287   -0.001179    2.066027
  H     -0.028024   -2.727169   -0.940332
  H     -1.413465   -1.703360   -0.481336
  H     -0.423134   -2.462976    0.761511
  H      1.555439   -1.103512    0.090155
  H      0.318139   -0.583246   -2.223161
  H      1.481719    0.378257   -1.585097
  H     -1.423272    0.745661   -1.510752
  H     -0.183823    1.925548   -1.975348
  H      0.469879    2.256273    0.371369
  H     -1.244153    1.933358    0.609736

FINAL SINGLE POINT ENERGY      -326.021915069809
                    ***********************HURRAY********************
 Multiplicity           Mult            ....    1
 Number of Electrons    NEL             ....   54
 Basis Dimension        Dim             ....  277
FINAL SINGLE POINT ENERGY      -326.021915446217

VIBRATIONAL FREQUENCIES
-----------------------

   0:         0.00 cm**-1
   1:         0.00 cm**-1
   2:         0.00 cm**-1
   3:         0.00 cm**-1
   4:         0.00 cm**-1
   5:         0.00 cm**-1
   6:        71.34 cm**-1
   7:       179.69 cm**-1
   8:       224.30 cm**-1
   9:       244.34 cm**-1
  10:       363.50 cm**-1
  11:       466.33 cm**-1
  12:       525.36 cm**-1
  13:       611.05 cm**-1
  14:       635.19 cm**-1
  15:       759.28 cm**-1
  16:       825.76 cm**-1
  17:       831.20 cm**-1
  18:       885.85 cm**-1
  19:       911.01 cm**-1
  20:       987.09 cm**-1
  21:      1019.95 cm**-1
  22:      1059.24 cm**-1
  23:      1061.33 cm**-1
  24:      1095.48 cm**-1
  25:      1172.64 cm**-1
  26:      1209.88 cm**-1
  27:      1229.27 cm**-1
  28:      1270.58 cm**-1
  29:      1302.24 cm**-1
  30:      1327.37 cm**-1
  31:      1356.48 cm**-1
  32:      1387.31 cm**-1
  33:      1400.55 cm**-1
  34:      1414.82 cm**-1
  35:      1445.37 cm**-1
  36:      1483.45 cm**-1
  37:      1486.57 cm**-1
  38:      1505.21 cm**-1
  39:      1650.71 cm**-1
  40:      1902.04 cm**-1
  41:      3059.92 cm**-1
  42:      3069.76 cm**-1
  43:      3115.43 cm**-1
  44:      3117.93 cm**-1
  45:      3143.40 cm**-1
  46:      3155.27 cm**-1
  47:      3157.66 cm**-1
  48:      3178.20 cm**-1
  49:      3455.85 cm**-1
  50:      3512.50 cm**-1

IR SPECTRUM
-----------

 Mode    freq (cm**-1)   T**2         TX         TY         TZ
-------------------------------------------------------------------
   6:        71.34    0.677712  (  0.558124   0.573346  -0.193606)
   7:       179.69    2.122709  (  1.315647   0.379319   0.497895)
   8:       224.30    1.573625  (  0.940778   0.824573  -0.092955)
   9:       244.34    2.895374  ( -0.089173  -1.696227   0.101165)
  10:       363.50    4.303163  ( -0.713544  -1.724497  -0.905608)
  11:       466.33    5.315792  ( -1.062640   2.046104   0.006748)
  12:       525.36    3.074546  ( -0.474154  -0.121822   1.683711)
  13:       611.05    1.856927  (  0.860584   0.397763   0.978829)
  14:       635.19    2.419599  ( -0.675781  -0.491906   1.311849)
  15:       759.28    4.418401  ( -1.375257   0.750314   1.401463)
  16:       825.76   14.273116  ( -1.279418  -3.553525  -0.093097)
  17:       831.20    1.233686  ( -0.395903  -0.613642  -0.836893)
  18:       885.85   11.299840  (  0.004443  -3.034989  -1.445221)
  19:       911.01    4.015302  (  0.590239   1.872990  -0.398535)
  20:       987.09    8.761086  ( -1.322010   2.579744   0.598580)
  21:      1019.95    3.505808  (  0.902195  -0.928230  -1.352864)
  22:      1059.24   17.601938  (  0.888481  -3.882430   1.318816)
  23:      1061.33    1.292872  ( -0.040190   1.061083  -0.406645)
  24:      1095.48   19.388746  (  0.807369  -3.163812  -2.954182)
  25:      1172.64   40.638900  (  2.320225  -5.937486  -0.041401)
  26:      1209.88   10.451013  ( -0.331855   3.184793  -0.444949)
  27:      1229.27   13.433846  (  2.188632  -2.345899   1.772144)
  28:      1270.58   15.611314  (  0.339412  -3.628125   1.527358)
  29:      1302.24   13.295469  ( -1.031812   3.064076  -1.685904)
  30:      1327.37    8.467087  ( -0.948373   1.082605  -2.528961)
  31:      1356.48    8.501023  (  0.797324   1.846473  -2.110885)
  32:      1387.31   32.751224  ( -1.952650   4.879230  -2.265281)
  33:      1400.55    6.121416  ( -0.888474  -0.434458   2.267879)
  34:      1414.82    7.599477  (  2.612352   0.880393   0.002006)
  35:      1445.37   18.564498  (  0.051318   3.924781   1.777066)
  36:      1483.45    8.584042  ( -0.063940  -0.343530   2.908941)
  37:      1486.57   10.930988  ( -2.539576   1.967101   0.782338)
  38:      1505.21   15.833227  (  2.896723  -1.303214   2.396635)
  39:      1650.71   68.324063  (  4.616267  -0.748458  -6.815714)
  40:      1902.04  184.716303  (  0.075230  -2.058010  13.434107)
  41:      3059.92    4.264296  (  0.673662  -0.450912   1.899251)
  42:      3069.76    5.733307  ( -0.541636   2.311033  -0.314746)
  43:      3115.43    1.043668  ( -0.404984  -0.546979  -0.761886)
  44:      3117.93    3.294838  (  1.065337  -1.334598  -0.615420)
  45:      3143.40    1.368025  ( -1.018279   0.468985   0.333445)
  46:      3155.27    5.491351  (  1.954768  -1.143087  -0.602979)
  47:      3157.66    1.722721  (  0.539054   0.892473  -0.797266)
  48:      3178.20    0.275882  ( -0.493159  -0.056957   0.171557)
  49:      3455.85   64.570505  ( -4.579150   1.086315   6.513202)
  50:      3512.50   76.922481  ( -6.256516  -5.103469  -3.425360)

--------------------------
THERMOCHEMISTRY AT 298.15K
--------------------------

Temperature         ... 298.15 K
Pressure            ... 1.00 atm
Total Mass          ... 100.14 AMU

Throughout the following assumptions are being made:
  (1) The electronic state is orbitally nondegenerate
  (2) There are no thermally accessible electronically excited states
  (3) Hindered rotations indicated by low frequency modes) are not
      treated as such but are treated as vibrations and this may
      case some error
  (4) All equations used are the standard statistical mechanics
      equations for an ideal gas
  (5) All vibrations are strinctly harmonic

------------
INNER ENERGY
------------

The inner energy is: U= E(el) + E(ZPE) + E(vib) + E(rot) + E(trans)
    E(el)   - is the total energy from the electronic structure calculation
              = E(kin-el) + E(nuc-el) + E(el-el) + E(nuc-nuc)
    E(ZPE)  - the the zero temperature vibrational energy from the frequency calculation
    E(vib)  - the the finite temperature correction to E(ZPE) due to population
              of excietd vibrational states
    E(rot)  - is the rotational thermal energy
    E(trans)- is the translational thermal energy

Summary of contributions to the inner energy U:
Electronic energy                ...   -326.02191545 Eh
Zero point energy                ...      0.15324711 Eh      96.16 kcal/mol
Thermal vibrational correction   ...      0.00413790 Eh       2.60 kcal/mol
Thermal rotational correction    ...      0.00141627 Eh       0.89 kcal/mol
Thermal translational correction ...      0.00141627 Eh       0.89 kcal/mol
-----------------------------------------------------------------------
Total thermal energy                   -325.86169789 Eh

Summary of corrections to the electronic energy:
(perhaps to be used in another calculation)
Total thermal correction                  0.00697045 Eh       4.37 kcal/mol
Non-thermal (ZPE) correction              0.15324711 Eh      96.16 kcal/mol
-----------------------------------------------------------------------
Total correction                          0.16021755 Eh     100.54 kcal/mol

--------
ENTHALPY
--------

The enthalpy is H = U + kB*T
                kB is Boltzmann's constant
Total free energy                 ...   -325.86169789 Eh
Thermal Enthalpy correction       ...      0.00094421 Eh       0.59 kcal/mol
-----------------------------------------------------------------------
Total Enthalpy                    ...   -325.86075368 Eh

-------
ENTROPY
-------

The entropy contributions are T*S = T*(S(el)+S(vib)+S(rot)+S(trans)
     S(el)   - electronic entropy
     S(vib)  - vibrational entropy
     S(rot)  - rotational entropy
     S(trans)- translational entropy
The entropies will be listed as mutliplied by the temperature to get
units of energy

Electronic entropy                ...      0.00000000 Eh      0.00 kcal/mol
Vibrational entropy               ...      0.00715073 Eh      4.49 kcal/mol
Rotational entropy                ...      0.01191517 Eh      7.48 kcal/mol
Translational entropy             ...      0.01887324 Eh     11.84 kcal/mol
-----------------------------------------------------------------------
Final entropy term                ...      0.03793914 Eh     23.81 kcal/mol

CAUTION: The rotational entropy is not quite correctly treated here
         because it includes a symmetry number that is not yet correctly
         implemented in ORCA!
For a nonlinear molecule the correct rotational entropy is:
    S(rot) = R*(ln(qrot/sn)+1.5)
    R    = 8.31441 J/mol/K = 1.987191683e-3 kcal/mol/K
    qrot = 202439.9882642
    sn is the rotational symmetry number. We have assumed 3 here
       if it is different for your molecule then you should correct
       the printed rotational entropy by manually evaluating the equation
       as given above

For convenience we print out the resulting values for sn=1 - 12:
 sn= 1  qrot/sn=  202439.9883 T*S(rot)=     8.13 kcal/mol T*S(tot)=    24.46 kcal/mol
 sn= 2  qrot/sn=  101219.9941 T*S(rot)=     7.72 kcal/mol T*S(tot)=    24.05 kcal/mol
 sn= 3  qrot/sn=   67479.9961 T*S(rot)=     7.48 kcal/mol T*S(tot)=    23.81 kcal/mol
 sn= 4  qrot/sn=   50609.9971 T*S(rot)=     7.31 kcal/mol T*S(tot)=    23.64 kcal/mol
 sn= 5  qrot/sn=   40487.9977 T*S(rot)=     7.17 kcal/mol T*S(tot)=    23.50 kcal/mol
 sn= 6  qrot/sn=   33739.9980 T*S(rot)=     7.07 kcal/mol T*S(tot)=    23.40 kcal/mol
 sn= 7  qrot/sn=   28919.9983 T*S(rot)=     6.97 kcal/mol T*S(tot)=    23.31 kcal/mol
 sn= 8  qrot/sn=   25304.9985 T*S(rot)=     6.90 kcal/mol T*S(tot)=    23.23 kcal/mol
 sn= 9  qrot/sn=   22493.3320 T*S(rot)=     6.83 kcal/mol T*S(tot)=    23.16 kcal/mol
 sn=10  qrot/sn=   20243.9988 T*S(rot)=     6.76 kcal/mol T*S(tot)=    23.09 kcal/mol
 sn=11  qrot/sn=   18403.6353 T*S(rot)=     6.71 kcal/mol T*S(tot)=    23.04 kcal/mol
 sn=12  qrot/sn=   16869.9990 T*S(rot)=     6.66 kcal/mol T*S(tot)=    22.99 kcal/mol

-------------------
GIBBS FREE ENTHALPY
-------------------

The Gibbs free enthalpy is G = H - T*S

Total enthalpy                    ...   -325.86075368 Eh
Total entropy correction          ...     -0.03793914 Eh    -23.81 kcal/mol
-----------------------------------------------------------------------
Final Gibbs free enthalpy         ...   -325.89869282 Eh

For completeness - the Gibbs free enthalpy minus the electronic energy
G-E(el)                           ...      0.12322262 Eh     77.32 kcal/mol

                             ****ORCA TERMINATED NORMALLY****
TOTAL RUN TIME: 0 days 0 hours 35 minutes 43 seconds 347 msec
