                         Program Version 3.0.3 - RELEASE   -
|  1> ! NORI PBE0 def2-TZVP UseSym TightOPT Freq TightSCF Grid3 FinalGrid5 XYZFile
|  2> % pal
|  3>     nprocs 8
|  4> end
|  5> %method
|  6>     SymThresh 5.0e-2
|  7> end
|  8> % geom
|  9>     MaxIter 10
| 10> end
| 11> % maxcore 2000
| 12> % output
| 13>     printlevel mini
| 14>     print[ P_Basis ] 0
| 15>     print[ P_SCFInfo ] 1
| 16>     print[ P_SCFIterInfo ] 1
| 17>     print[ P_OrbEn ] 0
| 18>     print[ P_Cartesian ] 0
| 19> end
| 20> % elprop
| 21>     Dipole false
| 22> end
| 23> *xyz 1 1
| 24>  C        1.2500541722     0.2230517995     0.3800687812
| 25>  C        2.7049839822     0.1002864196     0.2055067835
| 26>  N        3.4155792706    -0.9926417523     0.3662412766
| 27>  C        4.8302522251    -0.7669645264     0.0564382706
| 28>  C        4.9090456764     0.7635641323     0.0775755069
| 29>  N        3.4996337710     1.1103742351    -0.1272463360
| 30>  O        3.0739566529     2.3858827681     0.0937644296
| 31>  H        1.0434185456     0.9297036707     1.1879397889
| 32>  H        0.7984066844    -0.7393363495     0.6106566268
| 33>  H        0.8005159170     0.6309094399    -0.5277098145
| 34>  H        3.0023448813    -1.9053571523     0.4727563519
| 35>  H        5.4739128792    -1.2410747238     0.7949623823
| 36>  H        5.0589140236    -1.1699210359    -0.9328626292
| 37>  H        5.2350348643     1.1640851361     1.0415551442
| 38>  H        5.5332499297     1.1693870579    -0.7165113134
| 39>  H        3.1117965245     2.8414908809    -0.7595552493
| 40> *
| 41>
| 42>                          ****END OF INPUT****
 Total Charge           Charge          ....    1
 Multiplicity           Mult            ....    1
 Number of Electrons    NEL             ....   54
FINAL SINGLE POINT ENERGY      -342.033808594185

CARTESIAN COORDINATES (ANGSTROEM)
---------------------------------
  C      1.633259   -1.387642    0.091375
  C      0.526092   -0.480183   -0.245156
  N      0.251997   -0.000472   -1.436791
  C     -0.954952    0.830903   -1.419400
  C     -1.123305    1.097070    0.080748
  N     -0.342513   -0.009418    0.641730
  O     -0.000219   -0.000014    1.960671
  H      2.302027   -0.891493    0.799171
  H      2.190042   -1.676218   -0.797660
  H      1.244446   -2.279850    0.586384
  H      0.687604   -0.340971   -2.279039
  H     -0.814688    1.738136   -2.004056
  H     -1.796644    0.265901   -1.826722
  H     -0.677664    2.042580    0.402328
  H     -2.160375    1.052092    0.407967
  H     -0.685899   -0.499055    2.427412

FINAL SINGLE POINT ENERGY      -342.033809052088
                    ***********************HURRAY********************
 Multiplicity           Mult            ....    1
 Number of Electrons    NEL             ....   54
 Basis Dimension        Dim             ....  271
FINAL SINGLE POINT ENERGY      -342.033809418767

VIBRATIONAL FREQUENCIES
-----------------------

   0:         0.00 cm**-1
   1:         0.00 cm**-1
   2:         0.00 cm**-1
   3:         0.00 cm**-1
   4:         0.00 cm**-1
   5:         0.00 cm**-1
   6:        72.86 cm**-1
   7:       165.83 cm**-1
   8:       218.06 cm**-1
   9:       244.94 cm**-1
  10:       290.16 cm**-1
  11:       384.07 cm**-1
  12:       441.64 cm**-1
  13:       534.27 cm**-1
  14:       613.06 cm**-1
  15:       638.81 cm**-1
  16:       677.36 cm**-1
  17:       803.07 cm**-1
  18:       900.17 cm**-1
  19:       958.53 cm**-1
  20:      1002.12 cm**-1
  21:      1050.98 cm**-1
  22:      1065.54 cm**-1
  23:      1109.84 cm**-1
  24:      1125.76 cm**-1
  25:      1215.77 cm**-1
  26:      1249.03 cm**-1
  27:      1270.15 cm**-1
  28:      1330.95 cm**-1
  29:      1338.09 cm**-1
  30:      1379.95 cm**-1
  31:      1402.92 cm**-1
  32:      1441.05 cm**-1
  33:      1450.88 cm**-1
  34:      1464.46 cm**-1
  35:      1503.30 cm**-1
  36:      1518.54 cm**-1
  37:      1641.05 cm**-1
  38:      1664.49 cm**-1
  39:      3073.35 cm**-1
  40:      3078.80 cm**-1
  41:      3086.79 cm**-1
  42:      3142.89 cm**-1
  43:      3155.44 cm**-1
  44:      3165.41 cm**-1
  45:      3184.53 cm**-1
  46:      3654.10 cm**-1
  47:      3766.91 cm**-1

IR SPECTRUM
-----------

 Mode    freq (cm**-1)   T**2         TX         TY         TZ
-------------------------------------------------------------------
   6:        72.86    1.755772  ( -0.228362  -1.294075  -0.170276)
   7:       165.83    0.268459  ( -0.314411   0.262690  -0.317173)
   8:       218.06   10.280492  (  2.311568   2.187597  -0.389314)
   9:       244.94    6.433818  ( -1.566529  -1.987372  -0.173659)
  10:       290.16    6.663825  (  2.279352  -0.432935  -1.131789)
  11:       384.07  132.930404  ( -6.607900   9.016218   2.823806)
  12:       441.64    0.949358  (  0.636118  -0.034891  -0.737221)
  13:       534.27  100.715829  ( -6.534168  -7.128628   2.683866)
  14:       613.06    4.411442  (  1.572635   1.173796   0.748641)
  15:       638.81    0.791149  (  0.718471   0.524201  -0.012726)
  16:       677.36    0.455834  ( -0.534156   0.396375   0.115750)
  17:       803.07   14.933074  (  0.213940   1.140440  -3.686014)
  18:       900.17    5.529716  (  0.303427  -1.559294   1.733854)
  19:       958.53    8.945438  (  2.017833  -0.447071  -2.161924)
  20:      1002.12    1.083838  ( -0.927076   0.429569   0.199598)
  21:      1050.98    7.939313  (  1.124334   2.563693  -0.320407)
  22:      1065.54    6.660285  (  2.408827  -0.178772  -0.908779)
  23:      1109.84   10.669685  ( -1.606266   2.040436  -1.981469)
  24:      1125.76    1.470510  ( -0.617093   0.091947   1.039833)
  25:      1215.77   17.015820  (  2.651757   0.738873  -3.072144)
  26:      1249.03   52.244588  (  0.609816  -1.654861  -7.009575)
  27:      1270.15   26.133782  (  0.482153  -0.585315   5.055563)
  28:      1330.95   56.725724  (  0.944869  -0.083527  -7.471678)
  29:      1338.09    1.985580  ( -1.096110   0.825712   0.319881)
  30:      1379.95    0.301037  (  0.197685  -0.262644  -0.439290)
  31:      1402.92    4.327258  (  1.389394  -1.545305  -0.094195)
  32:      1441.05   59.630185  ( -3.564754   3.101511  -6.107647)
  33:      1450.88   18.093650  ( -3.296895  -2.672298  -0.288020)
  34:      1464.46   45.111261  ( -0.237708   0.128368   6.711056)
  35:      1503.30    4.020326  ( -0.550136  -1.126202  -1.565038)
  36:      1518.54    0.067788  (  0.257795   0.033589   0.014209)
  37:      1641.05  106.270883  ( -6.171523   4.089305   7.173616)
  38:      1664.49  132.245533  ( -4.286811   4.937835  -9.459734)
  39:      3073.35   12.230692  ( -2.506631   1.720683  -1.728219)
  40:      3078.80    2.463041  ( -0.619052   1.391241   0.379822)
  41:      3086.79    3.652729  ( -1.283787  -0.671167  -1.246657)
  42:      3142.89    4.264754  ( -1.306498  -1.483744  -0.596926)
  43:      3155.44    0.408285  ( -0.555958   0.312348  -0.040429)
  44:      3165.41    0.091098  (  0.297670   0.032573   0.037814)
  45:      3184.53    1.393456  ( -0.687650   0.649770  -0.705968)
  46:      3654.10  163.866450  ( -4.150669   2.297533  11.889480)
  47:      3766.91  126.994167  (  5.888536   4.534855  -8.470797)

--------------------------
THERMOCHEMISTRY AT 298.15K
--------------------------

Temperature         ... 298.15 K
Pressure            ... 1.00 atm
Total Mass          ... 101.13 AMU

Throughout the following assumptions are being made:
  (1) The electronic state is orbitally nondegenerate
  (2) There are no thermally accessible electronically excited states
  (3) Hindered rotations indicated by low frequency modes) are not
      treated as such but are treated as vibrations and this may
      case some error
  (4) All equations used are the standard statistical mechanics
      equations for an ideal gas
  (5) All vibrations are strinctly harmonic

------------
INNER ENERGY
------------

The inner energy is: U= E(el) + E(ZPE) + E(vib) + E(rot) + E(trans)
    E(el)   - is the total energy from the electronic structure calculation
              = E(kin-el) + E(nuc-el) + E(el-el) + E(nuc-nuc)
    E(ZPE)  - the the zero temperature vibrational energy from the frequency calculation
    E(vib)  - the the finite temperature correction to E(ZPE) due to population
              of excietd vibrational states
    E(rot)  - is the rotational thermal energy
    E(trans)- is the translational thermal energy

Summary of contributions to the inner energy U:
Electronic energy                ...   -342.03380942 Eh
Zero point energy                ...      0.14005240 Eh      87.88 kcal/mol
Thermal vibrational correction   ...      0.00450070 Eh       2.82 kcal/mol
Thermal rotational correction    ...      0.00141627 Eh       0.89 kcal/mol
Thermal translational correction ...      0.00141627 Eh       0.89 kcal/mol
-----------------------------------------------------------------------
Total thermal energy                   -341.88642378 Eh

Summary of corrections to the electronic energy:
(perhaps to be used in another calculation)
Total thermal correction                  0.00733325 Eh       4.60 kcal/mol
Non-thermal (ZPE) correction              0.14005240 Eh      87.88 kcal/mol
-----------------------------------------------------------------------
Total correction                          0.14738564 Eh      92.49 kcal/mol

--------
ENTHALPY
--------

The enthalpy is H = U + kB*T
                kB is Boltzmann's constant
Total free energy                 ...   -341.88642378 Eh
Thermal Enthalpy correction       ...      0.00094421 Eh       0.59 kcal/mol
-----------------------------------------------------------------------
Total Enthalpy                    ...   -341.88547957 Eh

-------
ENTROPY
-------

The entropy contributions are T*S = T*(S(el)+S(vib)+S(rot)+S(trans)
     S(el)   - electronic entropy
     S(vib)  - vibrational entropy
     S(rot)  - rotational entropy
     S(trans)- translational entropy
The entropies will be listed as mutliplied by the temperature to get
units of energy

Electronic entropy                ...      0.00000000 Eh      0.00 kcal/mol
Vibrational entropy               ...      0.00780238 Eh      4.90 kcal/mol
Rotational entropy                ...      0.01187080 Eh      7.45 kcal/mol
Translational entropy             ...      0.01888714 Eh     11.85 kcal/mol
-----------------------------------------------------------------------
Final entropy term                ...      0.03856033 Eh     24.20 kcal/mol

CAUTION: The rotational entropy is not quite correctly treated here
         because it includes a symmetry number that is not yet correctly
         implemented in ORCA!
For a nonlinear molecule the correct rotational entropy is:
    S(rot) = R*(ln(qrot/sn)+1.5)
    R    = 8.31441 J/mol/K = 1.987191683e-3 kcal/mol/K
    qrot = 193146.7887563
    sn is the rotational symmetry number. We have assumed 3 here
       if it is different for your molecule then you should correct
       the printed rotational entropy by manually evaluating the equation
       as given above

For convenience we print out the resulting values for sn=1 - 12:
 sn= 1  qrot/sn=  193146.7888 T*S(rot)=     8.10 kcal/mol T*S(tot)=    24.85 kcal/mol
 sn= 2  qrot/sn=   96573.3944 T*S(rot)=     7.69 kcal/mol T*S(tot)=    24.44 kcal/mol
 sn= 3  qrot/sn=   64382.2629 T*S(rot)=     7.45 kcal/mol T*S(tot)=    24.20 kcal/mol
 sn= 4  qrot/sn=   48286.6972 T*S(rot)=     7.28 kcal/mol T*S(tot)=    24.03 kcal/mol
 sn= 5  qrot/sn=   38629.3578 T*S(rot)=     7.15 kcal/mol T*S(tot)=    23.89 kcal/mol
 sn= 6  qrot/sn=   32191.1315 T*S(rot)=     7.04 kcal/mol T*S(tot)=    23.79 kcal/mol
 sn= 7  qrot/sn=   27592.3984 T*S(rot)=     6.95 kcal/mol T*S(tot)=    23.69 kcal/mol
 sn= 8  qrot/sn=   24143.3486 T*S(rot)=     6.87 kcal/mol T*S(tot)=    23.62 kcal/mol
 sn= 9  qrot/sn=   21460.7543 T*S(rot)=     6.80 kcal/mol T*S(tot)=    23.55 kcal/mol
 sn=10  qrot/sn=   19314.6789 T*S(rot)=     6.74 kcal/mol T*S(tot)=    23.48 kcal/mol
 sn=11  qrot/sn=   17558.7990 T*S(rot)=     6.68 kcal/mol T*S(tot)=    23.43 kcal/mol
 sn=12  qrot/sn=   16095.5657 T*S(rot)=     6.63 kcal/mol T*S(tot)=    23.38 kcal/mol

-------------------
GIBBS FREE ENTHALPY
-------------------

The Gibbs free enthalpy is G = H - T*S

Total enthalpy                    ...   -341.88547957 Eh
Total entropy correction          ...     -0.03856033 Eh    -24.20 kcal/mol
-----------------------------------------------------------------------
Final Gibbs free enthalpy         ...   -341.92403989 Eh

For completeness - the Gibbs free enthalpy minus the electronic energy
G-E(el)                           ...      0.10976952 Eh     68.88 kcal/mol

                             ****ORCA TERMINATED NORMALLY****
TOTAL RUN TIME: 0 days 0 hours 35 minutes 17 seconds 211 msec
