                         Program Version 3.0.3 - RELEASE   -
|  1> ! NORI PBE0 def2-TZVP UseSym TightOPT Freq TightSCF Grid3 FinalGrid5 XYZFile
|  2> % pal
|  3>     nprocs 8
|  4> end
|  5> %method
|  6>     SymThresh 5.0e-2
|  7> end
|  8> % geom
|  9>     MaxIter 10
| 10> end
| 11> % maxcore 2000
| 12> % output
| 13>     printlevel mini
| 14>     print[ P_Basis ] 0
| 15>     print[ P_SCFInfo ] 1
| 16>     print[ P_SCFIterInfo ] 1
| 17>     print[ P_OrbEn ] 0
| 18>     print[ P_Cartesian ] 0
| 19> end
| 20> % elprop
| 21>     Dipole false
| 22> end
| 23> *xyz 1 1
| 24>  C        0.8871593877     0.0187125983     0.1071741685
| 25>  C        2.3923621312     0.0761896991     0.1203980371
| 26>  N        2.9089057071     0.1562833630    -1.3131608231
| 27>  C        3.0414961067     1.2313055054     0.8894141056
| 28>  C        4.3861454338     0.6388386219     1.3638963836
| 29>  O        4.4635711583    -0.6523057552     0.7567277382
| 30>  C        3.1394125559    -1.1191737047     0.7092039814
| 31>  H        0.5163504991    -0.8427066014    -0.4552332521
| 32>  H        0.4461740339     0.9261468137    -0.3124836072
| 33>  H        0.5234370646    -0.0777643620     1.1307598034
| 34>  H        2.4935055863    -0.5678452689    -1.9018714399
| 35>  H        3.9255227836     0.0052673251    -1.2754759760
| 36>  H        2.7186782589     1.0636585115    -1.7402853862
| 37>  H        2.4021153823     1.5043209576     1.7289101995
| 38>  H        3.1587713752     2.1305556000     0.2791986439
| 39>  H        4.4078464314     0.5359860759     2.4526366441
| 40>  H        5.2601957903     1.2082892048     1.0514798954
| 41>  H        3.1012174840    -2.0297910634     0.1064848719
| 42>  H        2.7383928298    -1.3413775206     1.7062160120
| 43> *
| 44>
| 45>                          ****END OF INPUT****
 Total Charge           Charge          ....    1
 Multiplicity           Mult            ....    1
 Number of Electrons    NEL             ....   56
FINAL SINGLE POINT ENERGY      -327.228267223059
FINAL SINGLE POINT ENERGY      -327.228268198440

CARTESIAN COORDINATES (ANGSTROEM)
---------------------------------
  C     -0.289281   -0.957900   -1.919377
  C      0.054729   -0.255521   -0.631746
  N      1.558328   -0.001072   -0.580462
  C     -0.632214    1.087267   -0.362311
  C     -0.717006    1.147284    1.178349
  O      0.001045    0.001040    1.639379
  C     -0.231163   -0.993669    0.674834
  H      0.238728   -1.910342   -2.017763
  H     -0.065233   -0.341819   -2.793403
  H     -1.358413   -1.172613   -1.936358
  H      2.088110   -0.850996   -0.782073
  H      1.779116    0.303867    0.376590
  H      1.849886    0.721359   -1.239857
  H     -1.620684    1.079397   -0.821228
  H     -0.091269    1.931833   -0.797066
  H     -1.755446    1.092505    1.517050
  H     -0.254944    2.030151    1.617487
  H      0.421484   -1.846752    0.874842
  H     -1.272304   -1.340872    0.674834

FINAL SINGLE POINT ENERGY      -327.228268514027
                    ***********************HURRAY********************
 Multiplicity           Mult            ....    1
 Number of Electrons    NEL             ....   56
 Basis Dimension        Dim             ....  289
FINAL SINGLE POINT ENERGY      -327.228268557311

VIBRATIONAL FREQUENCIES
-----------------------

   0:         0.00 cm**-1
   1:         0.00 cm**-1
   2:         0.00 cm**-1
   3:         0.00 cm**-1
   4:         0.00 cm**-1
   5:         0.00 cm**-1
   6:       114.46 cm**-1
   7:       233.09 cm**-1
   8:       245.16 cm**-1
   9:       288.57 cm**-1
  10:       302.83 cm**-1
  11:       342.49 cm**-1
  12:       402.60 cm**-1
  13:       441.32 cm**-1
  14:       589.20 cm**-1
  15:       686.32 cm**-1
  16:       757.26 cm**-1
  17:       815.01 cm**-1
  18:       886.20 cm**-1
  19:       913.54 cm**-1
  20:       954.70 cm**-1
  21:       968.81 cm**-1
  22:       981.93 cm**-1
  23:       990.50 cm**-1
  24:      1033.86 cm**-1
  25:      1062.74 cm**-1
  26:      1126.22 cm**-1
  27:      1154.82 cm**-1
  28:      1225.39 cm**-1
  29:      1255.59 cm**-1
  30:      1259.75 cm**-1
  31:      1288.77 cm**-1
  32:      1293.65 cm**-1
  33:      1318.99 cm**-1
  34:      1372.80 cm**-1
  35:      1399.32 cm**-1
  36:      1423.86 cm**-1
  37:      1463.25 cm**-1
  38:      1482.66 cm**-1
  39:      1484.92 cm**-1
  40:      1490.15 cm**-1
  41:      1501.68 cm**-1
  42:      1523.76 cm**-1
  43:      1645.74 cm**-1
  44:      1664.19 cm**-1
  45:      3039.26 cm**-1
  46:      3056.19 cm**-1
  47:      3072.16 cm**-1
  48:      3082.52 cm**-1
  49:      3119.09 cm**-1
  50:      3130.06 cm**-1
  51:      3138.73 cm**-1
  52:      3152.21 cm**-1
  53:      3155.28 cm**-1
  54:      3363.45 cm**-1
  55:      3476.08 cm**-1
  56:      3521.11 cm**-1

IR SPECTRUM
-----------

 Mode    freq (cm**-1)   T**2         TX         TY         TZ
-------------------------------------------------------------------
   6:       114.46    4.504934  ( -1.247068   1.108100   1.312200)
   7:       233.09    0.566643  (  0.245538  -0.670091   0.239442)
   8:       245.16   32.653243  (  4.060860   1.623740  -3.677789)
   9:       288.57    8.119157  ( -1.690861   1.278386   1.904173)
  10:       302.83    0.502292  ( -0.688373   0.044554   0.162636)
  11:       342.49    5.425878  ( -0.411011  -1.077246  -2.023979)
  12:       402.60    4.432510  (  1.684405  -1.149707   0.522936)
  13:       441.32    1.893308  (  0.877007   0.956998  -0.456425)
  14:       589.20    0.031793  ( -0.120964   0.127814  -0.028712)
  15:       686.32    6.974552  (  0.077198  -0.570148   2.577503)
  16:       757.26    0.525866  ( -0.322195  -0.057759  -0.647086)
  17:       815.01    2.251530  (  0.441754   0.681857  -1.261528)
  18:       886.20    8.329663  (  1.663681  -0.298414   2.339397)
  19:       913.54    7.925569  ( -0.362542   2.179757  -1.744360)
  20:       954.70   21.057126  (  2.114385  -1.403939  -3.823017)
  21:       968.81   17.975789  (  3.319883  -1.480886   2.182003)
  22:       981.93   21.424263  ( -0.786820  -0.196828  -4.557021)
  23:       990.50    8.564448  ( -0.409336  -1.994006   2.102578)
  24:      1033.86    3.422848  ( -1.821212  -0.292816  -0.142454)
  25:      1062.74    2.925500  (  1.492433  -0.326616  -0.769068)
  26:      1126.22   73.500518  (  2.220916  -7.681263  -3.092936)
  27:      1154.82   14.765599  (  2.803995   2.557707   0.601122)
  28:      1225.39    2.383084  (  1.417920  -0.522997   0.314743)
  29:      1255.59    8.005255  (  1.750851  -2.078852   0.786226)
  30:      1259.75    2.273736  ( -0.462911  -0.794365   1.195171)
  31:      1288.77    9.381501  ( -0.081086   2.974581   0.725806)
  32:      1293.65   10.141783  ( -3.079555   0.079491  -0.807343)
  33:      1318.99   17.263415  (  1.315031  -2.784373  -2.789511)
  34:      1372.80    9.754513  (  0.252768  -0.625425  -3.049502)
  35:      1399.32   14.683203  (  3.746171   0.091008  -0.800703)
  36:      1423.86   40.616996  (  4.764087   2.318090   3.542165)
  37:      1463.25  155.336370  (-12.371097  -1.512068   0.077369)
  38:      1482.66   12.116062  ( -2.964629  -1.498899   1.039394)
  39:      1484.92    1.336640  (  1.095647   0.243888  -0.276977)
  40:      1490.15   18.133933  (  0.669359  -3.503447   2.326318)
  41:      1501.68    5.051469  (  0.395904   2.143171  -0.549134)
  42:      1523.76    7.616703  ( -2.203209   0.886144   1.406173)
  43:      1645.74   31.073275  ( -1.669744   2.220432   4.832692)
  44:      1664.19   35.011917  ( -0.942717   4.805456  -3.321264)
  45:      3039.26   12.982727  ( -1.588878  -3.067485  -1.024076)
  46:      3056.19    3.243424  (  1.193435  -0.923724  -0.982786)
  47:      3072.16   18.463116  (  3.090069  -2.291384  -1.914197)
  48:      3082.52    7.324456  (  1.196230   1.154087  -2.135784)
  49:      3119.09    5.670590  ( -1.910558   1.413363   0.150867)
  50:      3130.06    4.530778  ( -0.563734   1.943531  -0.660052)
  51:      3138.73    0.209938  ( -0.185512   0.410336   0.084542)
  52:      3152.21    1.999999  ( -0.029890   1.008346   0.991133)
  53:      3155.28    4.567667  ( -1.489179  -1.532831  -0.021003)
  54:      3363.45   54.044081  (  2.651949   1.829387   6.607919)
  55:      3476.08   89.524998  ( -4.961537   2.285855   7.725478)
  56:      3521.11   70.005465  (  0.336606  -7.741175   3.156957)

--------------------------
THERMOCHEMISTRY AT 298.15K
--------------------------

Temperature         ... 298.15 K
Pressure            ... 1.00 atm
Total Mass          ... 102.16 AMU

Throughout the following assumptions are being made:
  (1) The electronic state is orbitally nondegenerate
  (2) There are no thermally accessible electronically excited states
  (3) Hindered rotations indicated by low frequency modes) are not
      treated as such but are treated as vibrations and this may
      case some error
  (4) All equations used are the standard statistical mechanics
      equations for an ideal gas
  (5) All vibrations are strinctly harmonic

------------
INNER ENERGY
------------

The inner energy is: U= E(el) + E(ZPE) + E(vib) + E(rot) + E(trans)
    E(el)   - is the total energy from the electronic structure calculation
              = E(kin-el) + E(nuc-el) + E(el-el) + E(nuc-nuc)
    E(ZPE)  - the the zero temperature vibrational energy from the frequency calculation
    E(vib)  - the the finite temperature correction to E(ZPE) due to population
              of excietd vibrational states
    E(rot)  - is the rotational thermal energy
    E(trans)- is the translational thermal energy

Summary of contributions to the inner energy U:
Electronic energy                ...   -327.22826856 Eh
Zero point energy                ...      0.17699589 Eh     111.07 kcal/mol
Thermal vibrational correction   ...      0.00446940 Eh       2.80 kcal/mol
Thermal rotational correction    ...      0.00141627 Eh       0.89 kcal/mol
Thermal translational correction ...      0.00141627 Eh       0.89 kcal/mol
-----------------------------------------------------------------------
Total thermal energy                   -327.04397072 Eh

Summary of corrections to the electronic energy:
(perhaps to be used in another calculation)
Total thermal correction                  0.00730194 Eh       4.58 kcal/mol
Non-thermal (ZPE) correction              0.17699589 Eh     111.07 kcal/mol
-----------------------------------------------------------------------
Total correction                          0.18429784 Eh     115.65 kcal/mol

--------
ENTHALPY
--------

The enthalpy is H = U + kB*T
                kB is Boltzmann's constant
Total free energy                 ...   -327.04397072 Eh
Thermal Enthalpy correction       ...      0.00094421 Eh       0.59 kcal/mol
-----------------------------------------------------------------------
Total Enthalpy                    ...   -327.04302651 Eh

-------
ENTROPY
-------

The entropy contributions are T*S = T*(S(el)+S(vib)+S(rot)+S(trans)
     S(el)   - electronic entropy
     S(vib)  - vibrational entropy
     S(rot)  - rotational entropy
     S(trans)- translational entropy
The entropies will be listed as mutliplied by the temperature to get
units of energy

Electronic entropy                ...      0.00000000 Eh      0.00 kcal/mol
Vibrational entropy               ...      0.00721451 Eh      4.53 kcal/mol
Rotational entropy                ...      0.01186975 Eh      7.45 kcal/mol
Translational entropy             ...      0.01890147 Eh     11.86 kcal/mol
-----------------------------------------------------------------------
Final entropy term                ...      0.03798573 Eh     23.84 kcal/mol

CAUTION: The rotational entropy is not quite correctly treated here
         because it includes a symmetry number that is not yet correctly
         implemented in ORCA!
For a nonlinear molecule the correct rotational entropy is:
    S(rot) = R*(ln(qrot/sn)+1.5)
    R    = 8.31441 J/mol/K = 1.987191683e-3 kcal/mol/K
    qrot = 192931.8074589
    sn is the rotational symmetry number. We have assumed 3 here
       if it is different for your molecule then you should correct
       the printed rotational entropy by manually evaluating the equation
       as given above

For convenience we print out the resulting values for sn=1 - 12:
 sn= 1  qrot/sn=  192931.8075 T*S(rot)=     8.10 kcal/mol T*S(tot)=    24.49 kcal/mol
 sn= 2  qrot/sn=   96465.9037 T*S(rot)=     7.69 kcal/mol T*S(tot)=    24.08 kcal/mol
 sn= 3  qrot/sn=   64310.6025 T*S(rot)=     7.45 kcal/mol T*S(tot)=    23.84 kcal/mol
 sn= 4  qrot/sn=   48232.9519 T*S(rot)=     7.28 kcal/mol T*S(tot)=    23.67 kcal/mol
 sn= 5  qrot/sn=   38586.3615 T*S(rot)=     7.15 kcal/mol T*S(tot)=    23.53 kcal/mol
 sn= 6  qrot/sn=   32155.3012 T*S(rot)=     7.04 kcal/mol T*S(tot)=    23.43 kcal/mol
 sn= 7  qrot/sn=   27561.6868 T*S(rot)=     6.95 kcal/mol T*S(tot)=    23.33 kcal/mol
 sn= 8  qrot/sn=   24116.4759 T*S(rot)=     6.87 kcal/mol T*S(tot)=    23.26 kcal/mol
 sn= 9  qrot/sn=   21436.8675 T*S(rot)=     6.80 kcal/mol T*S(tot)=    23.19 kcal/mol
 sn=10  qrot/sn=   19293.1807 T*S(rot)=     6.74 kcal/mol T*S(tot)=    23.12 kcal/mol
 sn=11  qrot/sn=   17539.2552 T*S(rot)=     6.68 kcal/mol T*S(tot)=    23.07 kcal/mol
 sn=12  qrot/sn=   16077.6506 T*S(rot)=     6.63 kcal/mol T*S(tot)=    23.02 kcal/mol

-------------------
GIBBS FREE ENTHALPY
-------------------

The Gibbs free enthalpy is G = H - T*S

Total enthalpy                    ...   -327.04302651 Eh
Total entropy correction          ...     -0.03798573 Eh    -23.84 kcal/mol
-----------------------------------------------------------------------
Final Gibbs free enthalpy         ...   -327.08101224 Eh

For completeness - the Gibbs free enthalpy minus the electronic energy
G-E(el)                           ...      0.14725632 Eh     92.40 kcal/mol

                             ****ORCA TERMINATED NORMALLY****
TOTAL RUN TIME: 0 days 0 hours 41 minutes 55 seconds 261 msec
