                         Program Version 3.0.3 - RELEASE   -
|  1> ! NORI PBE0 def2-TZVP UseSym TightOPT Freq TightSCF Grid3 FinalGrid5 XYZFile
|  2> % pal
|  3>     nprocs 8
|  4> end
|  5> %method
|  6>     SymThresh 5.0e-2
|  7> end
|  8> % geom
|  9>     MaxIter 10
| 10> end
| 11> % maxcore 2000
| 12> % output
| 13>     printlevel mini
| 14>     print[ P_Basis ] 0
| 15>     print[ P_SCFInfo ] 1
| 16>     print[ P_SCFIterInfo ] 1
| 17>     print[ P_OrbEn ] 0
| 18>     print[ P_Cartesian ] 0
| 19> end
| 20> % elprop
| 21>     Dipole false
| 22> end
| 23> *xyz 1 1
| 24>  C        1.0094171774    -0.0245496338     0.5120395491
| 25>  C        2.4127874191    -0.0059592798    -0.0454929671
| 26>  N        2.2991027497    -0.0122891392    -1.5589811019
| 27>  C        3.3315286453     1.0913502258     0.5121662880
| 28>  C        3.8869492124     0.0196695843     1.4844868455
| 29>  O        5.2125534559     0.0398396212     1.8590675871
| 30>  C        3.3627627423    -1.0730415613     0.5182538075
| 31>  H        0.4392568166     0.8577239598     0.2062719949
| 32>  H        1.0498604087    -0.0215106436     1.6014734494
| 33>  H        0.4646508962    -0.9241053233     0.2103237765
| 34>  H        1.7804615280     0.8053619486    -1.8896364642
| 35>  H        1.8030654483    -0.8460391523    -1.8841539394
| 36>  H        3.2190607893    -0.0013009471    -2.0019717033
| 37>  H        2.8675948647     1.9909476499     0.9160654447
| 38>  H        4.1090498626     1.3766825652    -0.2038270989
| 39>  H        3.3148403375     0.0139819309     2.4131512858
| 40>  H        5.7899649699     0.0472181583     1.0897069192
| 41>  H        4.1479732832    -1.3393380391    -0.1966354104
| 42>  H        2.9252093928    -1.9834419243     0.9272317376
| 43> *
| 44>
| 45>                          ****END OF INPUT****
 Total Charge           Charge          ....    1
 Multiplicity           Mult            ....    1
 Number of Electrons    NEL             ....   56
FINAL SINGLE POINT ENERGY      -327.208155056397
FINAL SINGLE POINT ENERGY      -327.208156985838

CARTESIAN COORDINATES (ANGSTROEM)
---------------------------------
  C     -1.690490   -1.220684   -0.000000
  C     -0.835753    0.024592    0.000000
  N     -1.772162    1.219170   -0.000000
  C      0.252933    0.079914    1.081748
  C      1.240448   -0.426535    0.000000
  O      2.550976   -0.002610    0.000000
  C      0.252933    0.079914   -1.081748
  H     -2.322101   -1.279148    0.891046
  H     -1.049620   -2.102262   -0.000000
  H     -2.322102   -1.279147   -0.891046
  H     -2.376041    1.209591    0.825760
  H     -2.376041    1.209591   -0.825761
  H     -1.252471    2.098254   -0.000000
  H      0.104713   -0.507574    1.987270
  H      0.504045    1.110108    1.357214
  H      1.279565   -1.516821    0.000000
  H      2.604596    0.957745   -0.000000
  H      0.504045    1.110108   -1.357214
  H      0.104713   -0.507574   -1.987270

FINAL SINGLE POINT ENERGY      -327.208157328276
                    ***********************HURRAY********************
 Multiplicity           Mult            ....    1
 Number of Electrons    NEL             ....   56
 Basis Dimension        Dim             ....  289
FINAL SINGLE POINT ENERGY      -327.208157472326

VIBRATIONAL FREQUENCIES
-----------------------

   0:         0.00 cm**-1
   1:         0.00 cm**-1
   2:         0.00 cm**-1
   3:         0.00 cm**-1
   4:         0.00 cm**-1
   5:         0.00 cm**-1
   6:       120.44 cm**-1
   7:       203.18 cm**-1
   8:       255.20 cm**-1
   9:       269.74 cm**-1
  10:       299.65 cm**-1
  11:       325.12 cm**-1
  12:       331.26 cm**-1
  13:       385.32 cm**-1
  14:       456.33 cm**-1
  15:       468.48 cm**-1
  16:       553.90 cm**-1
  17:       740.75 cm**-1
  18:       814.80 cm**-1
  19:       882.95 cm**-1
  20:       895.15 cm**-1
  21:       908.82 cm**-1
  22:       958.62 cm**-1
  23:       967.09 cm**-1
  24:       997.46 cm**-1
  25:      1036.89 cm**-1
  26:      1087.83 cm**-1
  27:      1094.41 cm**-1
  28:      1151.63 cm**-1
  29:      1213.43 cm**-1
  30:      1234.40 cm**-1
  31:      1254.88 cm**-1
  32:      1263.15 cm**-1
  33:      1294.07 cm**-1
  34:      1337.13 cm**-1
  35:      1360.32 cm**-1
  36:      1424.18 cm**-1
  37:      1444.47 cm**-1
  38:      1456.93 cm**-1
  39:      1472.68 cm**-1
  40:      1483.67 cm**-1
  41:      1487.33 cm**-1
  42:      1500.25 cm**-1
  43:      1650.08 cm**-1
  44:      1653.71 cm**-1
  45:      3049.99 cm**-1
  46:      3055.65 cm**-1
  47:      3061.16 cm**-1
  48:      3114.44 cm**-1
  49:      3123.24 cm**-1
  50:      3149.02 cm**-1
  51:      3150.21 cm**-1
  52:      3157.09 cm**-1
  53:      3411.01 cm**-1
  54:      3495.08 cm**-1
  55:      3512.33 cm**-1
  56:      3845.85 cm**-1

IR SPECTRUM
-----------

 Mode    freq (cm**-1)   T**2         TX         TY         TZ
-------------------------------------------------------------------
   6:       120.44    0.672094  (  0.649802  -0.499851  -0.000010)
   7:       203.18    0.946694  ( -0.000057  -0.000024  -0.972982)
   8:       255.20    1.599784  (  0.000000   0.000021  -1.264826)
   9:       269.74   26.657790  (  0.000045   0.000039   5.163118)
  10:       299.65   33.244050  (  0.000031   0.000025  -5.765765)
  11:       325.12   45.828849  (  0.000104   0.000183  -6.769701)
  12:       331.26    2.799017  (  0.849309   1.441419   0.000821)
  13:       385.32    9.045308  (  2.934963   0.656733   0.000112)
  14:       456.33   13.054634  ( -0.000010   0.000019   3.613120)
  15:       468.48    5.154658  (  0.648930   2.175672  -0.000038)
  16:       553.90    5.315016  (  1.735469  -1.517617  -0.000012)
  17:       740.75    0.839183  (  0.818590  -0.411210   0.000004)
  18:       814.80    4.217885  (  0.000038  -0.000037   2.053749)
  19:       882.95    9.313519  ( -2.265431   2.044832   0.000202)
  20:       895.15    6.706146  (  0.000022  -0.000115   2.589623)
  21:       908.82    8.415068  (  2.892223   0.223857   0.000123)
  22:       958.62    0.404256  ( -0.000085  -0.000236   0.635811)
  23:       967.09    6.056155  (  0.186903   2.453818   0.000043)
  24:       997.46    2.491746  (  1.537350   0.358191   0.000050)
  25:      1036.89    4.798594  (  0.000016  -0.000038   2.190569)
  26:      1087.83   18.885377  ( -3.499396  -2.576743   0.000014)
  27:      1094.41    2.030911  ( -0.000008   0.000036  -1.425100)
  28:      1151.63  167.054301  (-12.814793  -1.683862  -0.000033)
  29:      1213.43    0.554981  ( -0.000034  -0.000005   0.744970)
  30:      1234.40   23.883922  ( -3.139553  -3.745281   0.000046)
  31:      1254.88    4.444941  (  0.000161  -0.000034  -2.108303)
  32:      1263.15   72.848541  (  8.125925  -2.611107   0.000036)
  33:      1294.07    7.201414  ( -0.000044   0.000020  -2.683545)
  34:      1337.13   24.395913  (  4.937183  -0.141897   0.000002)
  35:      1360.32    3.568005  (  1.761017   0.683245  -0.000001)
  36:      1424.18   30.427797  (  0.963380  -5.431362  -0.000020)
  37:      1444.47   61.420260  (  7.705985   1.427603   0.000002)
  38:      1456.93   17.435210  ( -0.000063   0.000167  -4.175549)
  39:      1472.68    9.740344  (  1.038719  -2.943027   0.000259)
  40:      1483.67   31.431959  (  3.628741  -4.273663  -0.001049)
  41:      1487.33    3.901395  (  0.001829  -0.002251   1.975193)
  42:      1500.25  101.744296  ( -5.645144   8.359225   0.000129)
  43:      1650.08   42.909308  (  0.000394   0.000489   6.550520)
  44:      1653.71   39.186329  ( -4.380151  -4.472203   0.000665)
  45:      3049.99    5.492511  (  2.342278   0.079024   0.000006)
  46:      3055.65    2.734210  ( -0.000005   0.000053   1.653545)
  47:      3061.16   12.386538  ( -0.217126  -3.512747   0.000013)
  48:      3114.44    6.567678  (  1.185784   2.271914  -0.000013)
  49:      3123.24    4.765772  (  0.000004   0.000044  -2.183065)
  50:      3149.02    5.596301  (  0.000181   0.000341  -2.365650)
  51:      3150.21    6.587224  ( -1.211788  -2.262475  -0.000376)
  52:      3157.09    0.702937  (  0.824894  -0.149958   0.000002)
  53:      3411.01   34.581125  (  4.577095  -3.692063  -0.000104)
  54:      3495.08   76.295248  (  0.000127   0.000027   8.734715)
  55:      3512.33   64.639513  ( -5.903637  -5.457709   0.000114)
  56:      3845.85   41.881272  (  4.004847   5.083549   0.000000)

--------------------------
THERMOCHEMISTRY AT 298.15K
--------------------------

Temperature         ... 298.15 K
Pressure            ... 1.00 atm
Total Mass          ... 102.16 AMU

Throughout the following assumptions are being made:
  (1) The electronic state is orbitally nondegenerate
  (2) There are no thermally accessible electronically excited states
  (3) Hindered rotations indicated by low frequency modes) are not
      treated as such but are treated as vibrations and this may
      case some error
  (4) All equations used are the standard statistical mechanics
      equations for an ideal gas
  (5) All vibrations are strinctly harmonic

------------
INNER ENERGY
------------

The inner energy is: U= E(el) + E(ZPE) + E(vib) + E(rot) + E(trans)
    E(el)   - is the total energy from the electronic structure calculation
              = E(kin-el) + E(nuc-el) + E(el-el) + E(nuc-nuc)
    E(ZPE)  - the the zero temperature vibrational energy from the frequency calculation
    E(vib)  - the the finite temperature correction to E(ZPE) due to population
              of excietd vibrational states
    E(rot)  - is the rotational thermal energy
    E(trans)- is the translational thermal energy

Summary of contributions to the inner energy U:
Electronic energy                ...   -327.20815747 Eh
Zero point energy                ...      0.17510165 Eh     109.88 kcal/mol
Thermal vibrational correction   ...      0.00509581 Eh       3.20 kcal/mol
Thermal rotational correction    ...      0.00141627 Eh       0.89 kcal/mol
Thermal translational correction ...      0.00141627 Eh       0.89 kcal/mol
-----------------------------------------------------------------------
Total thermal energy                   -327.02512747 Eh

Summary of corrections to the electronic energy:
(perhaps to be used in another calculation)
Total thermal correction                  0.00792836 Eh       4.98 kcal/mol
Non-thermal (ZPE) correction              0.17510165 Eh     109.88 kcal/mol
-----------------------------------------------------------------------
Total correction                          0.18303001 Eh     114.85 kcal/mol

--------
ENTHALPY
--------

The enthalpy is H = U + kB*T
                kB is Boltzmann's constant
Total free energy                 ...   -327.02512747 Eh
Thermal Enthalpy correction       ...      0.00094421 Eh       0.59 kcal/mol
-----------------------------------------------------------------------
Total Enthalpy                    ...   -327.02418326 Eh

-------
ENTROPY
-------

The entropy contributions are T*S = T*(S(el)+S(vib)+S(rot)+S(trans)
     S(el)   - electronic entropy
     S(vib)  - vibrational entropy
     S(rot)  - rotational entropy
     S(trans)- translational entropy
The entropies will be listed as mutliplied by the temperature to get
units of energy

Electronic entropy                ...      0.00000000 Eh      0.00 kcal/mol
Vibrational entropy               ...      0.00821779 Eh      5.16 kcal/mol
Rotational entropy                ...      0.01204592 Eh      7.56 kcal/mol
Translational entropy             ...      0.01890147 Eh     11.86 kcal/mol
-----------------------------------------------------------------------
Final entropy term                ...      0.03916518 Eh     24.58 kcal/mol

CAUTION: The rotational entropy is not quite correctly treated here
         because it includes a symmetry number that is not yet correctly
         implemented in ORCA!
For a nonlinear molecule the correct rotational entropy is:
    S(rot) = R*(ln(qrot/sn)+1.5)
    R    = 8.31441 J/mol/K = 1.987191683e-3 kcal/mol/K
    qrot = 232507.0964329
    sn is the rotational symmetry number. We have assumed 3 here
       if it is different for your molecule then you should correct
       the printed rotational entropy by manually evaluating the equation
       as given above

For convenience we print out the resulting values for sn=1 - 12:
 sn= 1  qrot/sn=  232507.0964 T*S(rot)=     8.21 kcal/mol T*S(tot)=    25.23 kcal/mol
 sn= 2  qrot/sn=  116253.5482 T*S(rot)=     7.80 kcal/mol T*S(tot)=    24.82 kcal/mol
 sn= 3  qrot/sn=   77502.3655 T*S(rot)=     7.56 kcal/mol T*S(tot)=    24.58 kcal/mol
 sn= 4  qrot/sn=   58126.7741 T*S(rot)=     7.39 kcal/mol T*S(tot)=    24.41 kcal/mol
 sn= 5  qrot/sn=   46501.4193 T*S(rot)=     7.26 kcal/mol T*S(tot)=    24.27 kcal/mol
 sn= 6  qrot/sn=   38751.1827 T*S(rot)=     7.15 kcal/mol T*S(tot)=    24.17 kcal/mol
 sn= 7  qrot/sn=   33215.2995 T*S(rot)=     7.06 kcal/mol T*S(tot)=    24.07 kcal/mol
 sn= 8  qrot/sn=   29063.3871 T*S(rot)=     6.98 kcal/mol T*S(tot)=    24.00 kcal/mol
 sn= 9  qrot/sn=   25834.1218 T*S(rot)=     6.91 kcal/mol T*S(tot)=    23.93 kcal/mol
 sn=10  qrot/sn=   23250.7096 T*S(rot)=     6.85 kcal/mol T*S(tot)=    23.86 kcal/mol
 sn=11  qrot/sn=   21137.0088 T*S(rot)=     6.79 kcal/mol T*S(tot)=    23.81 kcal/mol
 sn=12  qrot/sn=   19375.5914 T*S(rot)=     6.74 kcal/mol T*S(tot)=    23.76 kcal/mol

-------------------
GIBBS FREE ENTHALPY
-------------------

The Gibbs free enthalpy is G = H - T*S

Total enthalpy                    ...   -327.02418326 Eh
Total entropy correction          ...     -0.03916518 Eh    -24.58 kcal/mol
-----------------------------------------------------------------------
Final Gibbs free enthalpy         ...   -327.06334844 Eh

For completeness - the Gibbs free enthalpy minus the electronic energy
G-E(el)                           ...      0.14480904 Eh     90.87 kcal/mol

                             ****ORCA TERMINATED NORMALLY****
TOTAL RUN TIME: 0 days 0 hours 41 minutes 44 seconds 478 msec
