                         Program Version 3.0.3 - RELEASE   -
|  1> ! NORI PBE0 def2-TZVP UseSym TightOPT Freq TightSCF Grid3 FinalGrid5 XYZFile
|  2> % pal
|  3>     nprocs 8
|  4> end
|  5> %method
|  6>     SymThresh 5.0e-2
|  7> end
|  8> % geom
|  9>     MaxIter 10
| 10> end
| 11> % maxcore 2000
| 12> % output
| 13>     printlevel mini
| 14>     print[ P_Basis ] 0
| 15>     print[ P_SCFInfo ] 1
| 16>     print[ P_SCFIterInfo ] 1
| 17>     print[ P_OrbEn ] 0
| 18>     print[ P_Cartesian ] 0
| 19> end
| 20> % elprop
| 21>     Dipole false
| 22> end
| 23> *xyz 1 1
| 24>  C        0.9745392234     0.0304202115     0.0980472361
| 25>  C        2.4672063942     0.0730190396    -0.0747575106
| 26>  N        2.8107395797     0.0720812231    -1.5395905178
| 27>  C        3.2950539171     1.0533650396     0.7870221987
| 28>  N        3.9291591715    -0.1194523993     1.3821450877
| 29>  C        3.2915079177    -1.0440256393     0.6241917048
| 30>  O        3.3345337477    -2.2254962645     0.4723876134
| 31>  H        0.5496830134    -0.8645548666    -0.3637429832
| 32>  H        0.4902849051     0.9174016005    -0.3211510883
| 33>  H        0.7360600637    -0.0087462242     1.1613695559
| 34>  H        2.5756341176    -0.8476501445    -1.9296074293
| 35>  H        3.8098831167     0.2225589770    -1.6988708505
| 36>  H        2.2899799601     0.7813138979    -2.0614550580
| 37>  H        2.6947552454     1.6506697521     1.4747969100
| 38>  H        3.9844740961     1.7068803044     0.2431523302
| 39>  H        4.5965855306    -0.2138145073     2.1347028008
| 40> *
| 41>
| 42>                          ****END OF INPUT****
 Total Charge           Charge          ....    1
 Multiplicity           Mult            ....    1
 Number of Electrons    NEL             ....   54
FINAL SINGLE POINT ENERGY      -342.054485122230

CARTESIAN COORDINATES (ANGSTROEM)
---------------------------------
  C     -0.028769   -1.759283   -0.788672
  C      0.213740   -0.303525   -0.502594
  N      1.683347   -0.000055   -0.614520
  C     -0.719006    0.752145   -1.138664
  N     -1.131732    1.099002    0.218140
  C     -0.298771    0.243907    0.859002
  O      0.000230    0.000580    1.986898
  H      0.518332   -2.394590   -0.087513
  H      0.251625   -2.025623   -1.811885
  H     -1.089739   -1.978793   -0.665636
  H      2.171455   -0.456686    0.164187
  H      1.873932    1.002442   -0.545385
  H      2.086266   -0.345957   -1.489007
  H     -1.504803    0.326203   -1.763934
  H     -0.225610    1.566644   -1.678238
  H     -1.831248    1.739959    0.564856

FINAL SINGLE POINT ENERGY      -342.054485731579
                    ***********************HURRAY********************
 Multiplicity           Mult            ....    1
 Number of Electrons    NEL             ....   54
 Basis Dimension        Dim             ....  271
FINAL SINGLE POINT ENERGY      -342.054486140824

VIBRATIONAL FREQUENCIES
-----------------------

   0:         0.00 cm**-1
   1:         0.00 cm**-1
   2:         0.00 cm**-1
   3:         0.00 cm**-1
   4:         0.00 cm**-1
   5:         0.00 cm**-1
   6:       114.20 cm**-1
   7:       175.86 cm**-1
   8:       194.09 cm**-1
   9:       224.63 cm**-1
  10:       271.31 cm**-1
  11:       345.12 cm**-1
  12:       354.46 cm**-1
  13:       538.34 cm**-1
  14:       547.45 cm**-1
  15:       668.75 cm**-1
  16:       741.08 cm**-1
  17:       780.05 cm**-1
  18:       862.49 cm**-1
  19:       917.80 cm**-1
  20:       963.53 cm**-1
  21:       997.42 cm**-1
  22:      1029.62 cm**-1
  23:      1040.88 cm**-1
  24:      1145.26 cm**-1
  25:      1196.04 cm**-1
  26:      1207.72 cm**-1
  27:      1228.33 cm**-1
  28:      1316.74 cm**-1
  29:      1343.82 cm**-1
  30:      1416.99 cm**-1
  31:      1426.39 cm**-1
  32:      1476.68 cm**-1
  33:      1482.61 cm**-1
  34:      1503.54 cm**-1
  35:      1523.14 cm**-1
  36:      1649.67 cm**-1
  37:      1650.08 cm**-1
  38:      1933.76 cm**-1
  39:      3053.50 cm**-1
  40:      3062.61 cm**-1
  41:      3130.57 cm**-1
  42:      3132.34 cm**-1
  43:      3155.11 cm**-1
  44:      3394.56 cm**-1
  45:      3470.77 cm**-1
  46:      3498.03 cm**-1
  47:      3618.52 cm**-1

IR SPECTRUM
-----------

 Mode    freq (cm**-1)   T**2         TX         TY         TZ
-------------------------------------------------------------------
   6:       114.20    2.496981  ( -0.119542  -0.936276   1.267311)
   7:       175.86   12.066035  ( -2.273050   0.764343   2.512978)
   8:       194.09    0.727419  (  0.314140  -0.765031  -0.208480)
   9:       224.63    6.267870  (  1.177180  -1.556978  -1.567780)
  10:       271.31    7.153350  ( -0.900799   1.250740   2.185763)
  11:       345.12    0.721653  ( -0.397227  -0.718098  -0.219543)
  12:       354.46   17.766028  (  1.195204   4.002596  -0.562800)
  13:       538.34   91.313546  ( -7.330251  -6.100514  -0.603893)
  14:       547.45   37.423698  (  3.338102   5.098653  -0.533393)
  15:       668.75    1.148227  ( -0.416435  -0.516970  -0.841160)
  16:       741.08    3.575542  ( -0.117028  -1.800533  -0.565621)
  17:       780.05    3.913708  (  1.628584  -0.830803  -0.755769)
  18:       862.49   12.567822  (  0.268723  -1.032018  -3.380910)
  19:       917.80    3.086284  (  1.252147   1.082962  -0.587882)
  20:       963.53    3.792238  ( -1.146486  -1.524294   0.392857)
  21:       997.42   24.719280  ( -1.083979   4.018476   2.719582)
  22:      1029.62    3.744108  ( -0.122288   1.374527  -1.356403)
  23:      1040.88    4.350295  (  1.122785  -0.118944   1.753711)
  24:      1145.26    3.729998  (  1.668434   0.793726  -0.562429)
  25:      1196.04   34.644572  ( -4.137353   3.775263   1.809494)
  26:      1207.72   12.725907  (  1.470664   2.788907  -1.668848)
  27:      1228.33   42.503420  (  5.242666  -2.697189   2.782633)
  28:      1316.74   22.552780  ( -1.582428   2.283152   3.851742)
  29:      1343.82   31.697886  ( -2.695613   3.901227  -3.035124)
  30:      1416.99    7.432482  ( -2.209200  -0.829252  -1.365379)
  31:      1426.39   26.839477  (  1.354448   4.844758  -1.238250)
  32:      1476.68    3.697482  ( -1.848256  -0.522256   0.093162)
  33:      1482.61    9.515484  ( -0.355548   0.762972  -2.967649)
  34:      1503.54  151.928924  ( 12.272032   1.151573   0.005733)
  35:      1523.14    9.242466  ( -2.662773  -1.466845  -0.021725)
  36:      1649.67   45.611062  (  0.517044  -4.623863   4.895265)
  37:      1650.08   37.160826  ( -0.457905   4.726116   3.822954)
  38:      1933.76  511.208607  (  6.633282  -6.278630  20.683012)
  39:      3053.50    3.019446  (  1.499540  -0.336234  -0.811032)
  40:      3062.61   20.418601  ( -1.683101  -1.180391   4.023984)
  41:      3130.57    0.820071  (  0.221345   0.474493  -0.738873)
  42:      3132.34    3.786303  ( -0.965450  -1.196024  -1.193204)
  43:      3155.11    0.759749  (  0.097435   0.844306   0.193398)
  44:      3394.56   45.980151  (  6.535525  -0.378045   1.767525)
  45:      3470.77   89.891522  ( -0.341382  -4.197202   8.494614)
  46:      3498.03   83.250573  ( -0.676586   7.959152   4.409615)
  47:      3618.52  112.646769  ( -7.641019   7.100717   1.959950)

--------------------------
THERMOCHEMISTRY AT 298.15K
--------------------------

Temperature         ... 298.15 K
Pressure            ... 1.00 atm
Total Mass          ... 101.13 AMU

Throughout the following assumptions are being made:
  (1) The electronic state is orbitally nondegenerate
  (2) There are no thermally accessible electronically excited states
  (3) Hindered rotations indicated by low frequency modes) are not
      treated as such but are treated as vibrations and this may
      case some error
  (4) All equations used are the standard statistical mechanics
      equations for an ideal gas
  (5) All vibrations are strinctly harmonic

------------
INNER ENERGY
------------

The inner energy is: U= E(el) + E(ZPE) + E(vib) + E(rot) + E(trans)
    E(el)   - is the total energy from the electronic structure calculation
              = E(kin-el) + E(nuc-el) + E(el-el) + E(nuc-nuc)
    E(ZPE)  - the the zero temperature vibrational energy from the frequency calculation
    E(vib)  - the the finite temperature correction to E(ZPE) due to population
              of excietd vibrational states
    E(rot)  - is the rotational thermal energy
    E(trans)- is the translational thermal energy

Summary of contributions to the inner energy U:
Electronic energy                ...   -342.05448614 Eh
Zero point energy                ...      0.14075393 Eh      88.32 kcal/mol
Thermal vibrational correction   ...      0.00466221 Eh       2.93 kcal/mol
Thermal rotational correction    ...      0.00141627 Eh       0.89 kcal/mol
Thermal translational correction ...      0.00141627 Eh       0.89 kcal/mol
-----------------------------------------------------------------------
Total thermal energy                   -341.90623746 Eh

Summary of corrections to the electronic energy:
(perhaps to be used in another calculation)
Total thermal correction                  0.00749475 Eh       4.70 kcal/mol
Non-thermal (ZPE) correction              0.14075393 Eh      88.32 kcal/mol
-----------------------------------------------------------------------
Total correction                          0.14824868 Eh      93.03 kcal/mol

--------
ENTHALPY
--------

The enthalpy is H = U + kB*T
                kB is Boltzmann's constant
Total free energy                 ...   -341.90623746 Eh
Thermal Enthalpy correction       ...      0.00094421 Eh       0.59 kcal/mol
-----------------------------------------------------------------------
Total Enthalpy                    ...   -341.90529325 Eh

-------
ENTROPY
-------

The entropy contributions are T*S = T*(S(el)+S(vib)+S(rot)+S(trans)
     S(el)   - electronic entropy
     S(vib)  - vibrational entropy
     S(rot)  - rotational entropy
     S(trans)- translational entropy
The entropies will be listed as mutliplied by the temperature to get
units of energy

Electronic entropy                ...      0.00000000 Eh      0.00 kcal/mol
Vibrational entropy               ...      0.00784966 Eh      4.93 kcal/mol
Rotational entropy                ...      0.01188520 Eh      7.46 kcal/mol
Translational entropy             ...      0.01888714 Eh     11.85 kcal/mol
-----------------------------------------------------------------------
Final entropy term                ...      0.03862201 Eh     24.24 kcal/mol

CAUTION: The rotational entropy is not quite correctly treated here
         because it includes a symmetry number that is not yet correctly
         implemented in ORCA!
For a nonlinear molecule the correct rotational entropy is:
    S(rot) = R*(ln(qrot/sn)+1.5)
    R    = 8.31441 J/mol/K = 1.987191683e-3 kcal/mol/K
    qrot = 196114.5531724
    sn is the rotational symmetry number. We have assumed 3 here
       if it is different for your molecule then you should correct
       the printed rotational entropy by manually evaluating the equation
       as given above

For convenience we print out the resulting values for sn=1 - 12:
 sn= 1  qrot/sn=  196114.5532 T*S(rot)=     8.11 kcal/mol T*S(tot)=    24.89 kcal/mol
 sn= 2  qrot/sn=   98057.2766 T*S(rot)=     7.70 kcal/mol T*S(tot)=    24.48 kcal/mol
 sn= 3  qrot/sn=   65371.5177 T*S(rot)=     7.46 kcal/mol T*S(tot)=    24.24 kcal/mol
 sn= 4  qrot/sn=   49028.6383 T*S(rot)=     7.29 kcal/mol T*S(tot)=    24.07 kcal/mol
 sn= 5  qrot/sn=   39222.9106 T*S(rot)=     7.16 kcal/mol T*S(tot)=    23.93 kcal/mol
 sn= 6  qrot/sn=   32685.7589 T*S(rot)=     7.05 kcal/mol T*S(tot)=    23.82 kcal/mol
 sn= 7  qrot/sn=   28016.3647 T*S(rot)=     6.96 kcal/mol T*S(tot)=    23.73 kcal/mol
 sn= 8  qrot/sn=   24514.3191 T*S(rot)=     6.88 kcal/mol T*S(tot)=    23.65 kcal/mol
 sn= 9  qrot/sn=   21790.5059 T*S(rot)=     6.81 kcal/mol T*S(tot)=    23.58 kcal/mol
 sn=10  qrot/sn=   19611.4553 T*S(rot)=     6.74 kcal/mol T*S(tot)=    23.52 kcal/mol
 sn=11  qrot/sn=   17828.5957 T*S(rot)=     6.69 kcal/mol T*S(tot)=    23.47 kcal/mol
 sn=12  qrot/sn=   16342.8794 T*S(rot)=     6.64 kcal/mol T*S(tot)=    23.41 kcal/mol

-------------------
GIBBS FREE ENTHALPY
-------------------

The Gibbs free enthalpy is G = H - T*S

Total enthalpy                    ...   -341.90529325 Eh
Total entropy correction          ...     -0.03862201 Eh    -24.24 kcal/mol
-----------------------------------------------------------------------
Final Gibbs free enthalpy         ...   -341.94391526 Eh

For completeness - the Gibbs free enthalpy minus the electronic energy
G-E(el)                           ...      0.11057088 Eh     69.38 kcal/mol

                             ****ORCA TERMINATED NORMALLY****
TOTAL RUN TIME: 0 days 0 hours 31 minutes 8 seconds 811 msec
