                         Program Version 3.0.3 - RELEASE   -
|  1> ! NORI PBE0 def2-TZVP UseSym TightOPT Freq TightSCF Grid3 FinalGrid5 XYZFile
|  2> % pal
|  3>     nprocs 8
|  4> end
|  5> %method
|  6>     SymThresh 5.0e-2
|  7> end
|  8> % geom
|  9>     MaxIter 10
| 10> end
| 11> % maxcore 2000
| 12> % output
| 13>     printlevel mini
| 14>     print[ P_Basis ] 0
| 15>     print[ P_SCFInfo ] 1
| 16>     print[ P_SCFIterInfo ] 1
| 17>     print[ P_OrbEn ] 0
| 18>     print[ P_Cartesian ] 0
| 19> end
| 20> % elprop
| 21>     Dipole false
| 22> end
| 23> *xyz 1 1
| 24>  C        0.9046548783     0.1637077781     0.2400578595
| 25>  C        2.3856687095    -0.0027702489     0.0186238716
| 26>  N        3.2613865006     0.9615846053     0.7012075603
| 27>  C        4.0040987612     0.0553191248     1.3759987142
| 28>  O        4.9923500305     0.0567523761     2.0440556414
| 29>  C        3.1078390305    -1.0883865523     0.8523753048
| 30>  N        3.9246413496    -2.1176503464     0.1491258622
| 31>  H        0.5556047951     1.0901751848    -0.2193335238
| 32>  H        0.6669863014     0.2013156204     1.3050425790
| 33>  H        0.3504131970    -0.6580869936    -0.2186460321
| 34>  H        2.6152031269    -0.0718514052    -1.0527308505
| 35>  H        3.3292070931     1.9681851016     0.6403178517
| 36>  H        2.4984358602    -1.5871273815     1.6045887528
| 37>  H        4.4050842134    -1.7213975572    -0.6629311813
| 38>  H        3.3771170171    -2.9210773356    -0.1668916157
| 39>  H        4.6524591357    -2.4550319704     0.7909692059
| 40> *
| 41>
| 42>                          ****END OF INPUT****
 Total Charge           Charge          ....    1
 Multiplicity           Mult            ....    1
 Number of Electrons    NEL             ....   54
FINAL SINGLE POINT ENERGY      -342.052196117833

CARTESIAN COORDINATES (ANGSTROEM)
---------------------------------
  C      0.800947    1.007179   -2.077335
  C      0.502971   -0.063560   -1.059970
  N      1.263538    0.000057    0.197100
  C      0.198019    0.056811    1.027544
  O     -0.000086    0.000470    2.202440
  C     -0.758372    0.125122   -0.183427
  N     -1.767179   -0.970377   -0.120073
  H      1.813755    0.887492   -2.465931
  H      0.720987    2.003024   -1.636766
  H      0.114807    0.937423   -2.924116
  H      0.554539   -1.060866   -1.515509
  H      2.255216   -0.045435    0.385600
  H     -1.283834    1.070163   -0.311854
  H     -1.320242   -1.890658   -0.146772
  H     -2.455571   -0.929666   -0.874860
  H     -2.265707   -0.906742    0.775865

FINAL SINGLE POINT ENERGY      -342.052196706466
                    ***********************HURRAY********************
 Multiplicity           Mult            ....    1
 Number of Electrons    NEL             ....   54
 Basis Dimension        Dim             ....  271
FINAL SINGLE POINT ENERGY      -342.052197004273

VIBRATIONAL FREQUENCIES
-----------------------

   0:         0.00 cm**-1
   1:         0.00 cm**-1
   2:         0.00 cm**-1
   3:         0.00 cm**-1
   4:         0.00 cm**-1
   5:         0.00 cm**-1
   6:        92.43 cm**-1
   7:       156.65 cm**-1
   8:       202.45 cm**-1
   9:       231.85 cm**-1
  10:       259.32 cm**-1
  11:       305.88 cm**-1
  12:       443.93 cm**-1
  13:       520.26 cm**-1
  14:       552.02 cm**-1
  15:       684.27 cm**-1
  16:       729.73 cm**-1
  17:       828.18 cm**-1
  18:       852.76 cm**-1
  19:       913.88 cm**-1
  20:      1005.57 cm**-1
  21:      1068.98 cm**-1
  22:      1072.79 cm**-1
  23:      1098.81 cm**-1
  24:      1119.93 cm**-1
  25:      1176.91 cm**-1
  26:      1210.03 cm**-1
  27:      1225.42 cm**-1
  28:      1306.81 cm**-1
  29:      1368.30 cm**-1
  30:      1387.57 cm**-1
  31:      1420.11 cm**-1
  32:      1428.82 cm**-1
  33:      1481.02 cm**-1
  34:      1488.97 cm**-1
  35:      1513.31 cm**-1
  36:      1650.25 cm**-1
  37:      1654.61 cm**-1
  38:      1932.39 cm**-1
  39:      3034.58 cm**-1
  40:      3061.74 cm**-1
  41:      3144.07 cm**-1
  42:      3147.55 cm**-1
  43:      3153.38 cm**-1
  44:      3390.46 cm**-1
  45:      3465.35 cm**-1
  46:      3498.66 cm**-1
  47:      3615.13 cm**-1

IR SPECTRUM
-----------

 Mode    freq (cm**-1)   T**2         TX         TY         TZ
-------------------------------------------------------------------
   6:        92.43    3.809539  ( -0.015883  -1.930121  -0.289686)
   7:       156.65   12.429033  (  2.490286   0.023006   2.495392)
   8:       202.45   10.169173  ( -1.668891   0.122566  -2.714582)
   9:       231.85    2.379453  (  1.332734  -0.642178  -0.436898)
  10:       259.32    2.859366  (  0.108334   1.434525   0.888689)
  11:       305.88    9.258390  ( -2.899197   0.700633   0.601799)
  12:       443.93   27.814452  ( -0.913298  -5.113038   0.914975)
  13:       520.26   32.365417  (  2.216521   5.230168  -0.312714)
  14:       552.02   78.323467  ( -0.363136  -8.796147   0.905202)
  15:       684.27    2.116256  (  0.679994  -1.198666  -0.465903)
  16:       729.73    2.845441  (  0.113739   1.055638  -1.310776)
  17:       828.18    5.481988  ( -1.257046   0.360301  -1.942166)
  18:       852.76   17.235337  (  3.400085  -0.436794   2.341788)
  19:       913.88    1.461013  (  0.373712   0.967000  -0.621500)
  20:      1005.57   19.120128  ( -2.330454   2.644952   2.587149)
  21:      1068.98    0.822824  ( -0.763405  -0.402476   0.279372)
  22:      1072.79   16.329357  ( -1.142848   2.296764  -3.122200)
  23:      1098.81   11.941147  (  0.026420  -0.305063  -3.442003)
  24:      1119.93    0.962246  (  0.074052  -0.913264   0.350301)
  25:      1176.91    8.244969  (  0.300354  -0.563558  -2.799493)
  26:      1210.03   27.633120  ( -5.079207  -0.218684   1.336771)
  27:      1225.42   13.765827  (  2.896400   0.420328  -2.280355)
  28:      1306.81   31.427989  (  3.863603   0.089192   4.061109)
  29:      1368.30   13.721921  (  0.122697   0.126662  -3.700111)
  30:      1387.57   33.606804  ( -5.433187   0.476812   1.964671)
  31:      1420.11   10.826543  (  0.030464  -2.374760   2.277307)
  32:      1428.82   37.358026  (  1.506253  -0.231477  -5.919092)
  33:      1481.02    8.671556  ( -2.852243   0.459743  -0.570003)
  34:      1488.97    6.559140  (  0.882180   2.066125   1.229645)
  35:      1513.31  157.367943  (  8.625198   8.817503  -2.285942)
  36:      1650.25   50.555532  ( -5.115820   4.899907  -0.612231)
  37:      1654.61   36.700623  ( -0.802867   1.946713   5.680347)
  38:      1932.39  576.265559  (  6.221221   0.250736 -23.184027)
  39:      3034.58   20.823114  ( -1.375715  -3.744541  -2.215611)
  40:      3061.74    1.115611  (  0.351948  -0.833115   0.545585)
  41:      3144.07    3.911357  (  1.094085   0.773200   1.454819)
  42:      3147.55    3.333024  (  0.695562  -1.411107  -0.926280)
  43:      3153.38    1.331456  ( -0.659639   0.649872  -0.688476)
  44:      3390.46   60.887040  (  5.760948   3.004502  -4.321052)
  45:      3465.35   96.207642  ( -1.474796   5.639975   7.888175)
  46:      3498.66  103.415321  ( -6.894652   4.730565  -5.787991)
  47:      3615.13  103.863668  ( 10.167501  -0.462571   0.521165)

--------------------------
THERMOCHEMISTRY AT 298.15K
--------------------------

Temperature         ... 298.15 K
Pressure            ... 1.00 atm
Total Mass          ... 101.13 AMU

Throughout the following assumptions are being made:
  (1) The electronic state is orbitally nondegenerate
  (2) There are no thermally accessible electronically excited states
  (3) Hindered rotations indicated by low frequency modes) are not
      treated as such but are treated as vibrations and this may
      case some error
  (4) All equations used are the standard statistical mechanics
      equations for an ideal gas
  (5) All vibrations are strinctly harmonic

------------
INNER ENERGY
------------

The inner energy is: U= E(el) + E(ZPE) + E(vib) + E(rot) + E(trans)
    E(el)   - is the total energy from the electronic structure calculation
              = E(kin-el) + E(nuc-el) + E(el-el) + E(nuc-nuc)
    E(ZPE)  - the the zero temperature vibrational energy from the frequency calculation
    E(vib)  - the the finite temperature correction to E(ZPE) due to population
              of excietd vibrational states
    E(rot)  - is the rotational thermal energy
    E(trans)- is the translational thermal energy

Summary of contributions to the inner energy U:
Electronic energy                ...   -342.05219700 Eh
Zero point energy                ...      0.14100749 Eh      88.48 kcal/mol
Thermal vibrational correction   ...      0.00466221 Eh       2.93 kcal/mol
Thermal rotational correction    ...      0.00141627 Eh       0.89 kcal/mol
Thermal translational correction ...      0.00141627 Eh       0.89 kcal/mol
-----------------------------------------------------------------------
Total thermal energy                   -341.90369475 Eh

Summary of corrections to the electronic energy:
(perhaps to be used in another calculation)
Total thermal correction                  0.00749476 Eh       4.70 kcal/mol
Non-thermal (ZPE) correction              0.14100749 Eh      88.48 kcal/mol
-----------------------------------------------------------------------
Total correction                          0.14850225 Eh      93.19 kcal/mol

--------
ENTHALPY
--------

The enthalpy is H = U + kB*T
                kB is Boltzmann's constant
Total free energy                 ...   -341.90369475 Eh
Thermal Enthalpy correction       ...      0.00094421 Eh       0.59 kcal/mol
-----------------------------------------------------------------------
Total Enthalpy                    ...   -341.90275055 Eh

-------
ENTROPY
-------

The entropy contributions are T*S = T*(S(el)+S(vib)+S(rot)+S(trans)
     S(el)   - electronic entropy
     S(vib)  - vibrational entropy
     S(rot)  - rotational entropy
     S(trans)- translational entropy
The entropies will be listed as mutliplied by the temperature to get
units of energy

Electronic entropy                ...      0.00000000 Eh      0.00 kcal/mol
Vibrational entropy               ...      0.00802759 Eh      5.04 kcal/mol
Rotational entropy                ...      0.01200853 Eh      7.54 kcal/mol
Translational entropy             ...      0.01888714 Eh     11.85 kcal/mol
-----------------------------------------------------------------------
Final entropy term                ...      0.03892326 Eh     24.42 kcal/mol

CAUTION: The rotational entropy is not quite correctly treated here
         because it includes a symmetry number that is not yet correctly
         implemented in ORCA!
For a nonlinear molecule the correct rotational entropy is:
    S(rot) = R*(ln(qrot/sn)+1.5)
    R    = 8.31441 J/mol/K = 1.987191683e-3 kcal/mol/K
    qrot = 223479.2402938
    sn is the rotational symmetry number. We have assumed 3 here
       if it is different for your molecule then you should correct
       the printed rotational entropy by manually evaluating the equation
       as given above

For convenience we print out the resulting values for sn=1 - 12:
 sn= 1  qrot/sn=  223479.2403 T*S(rot)=     8.19 kcal/mol T*S(tot)=    25.08 kcal/mol
 sn= 2  qrot/sn=  111739.6201 T*S(rot)=     7.78 kcal/mol T*S(tot)=    24.66 kcal/mol
 sn= 3  qrot/sn=   74493.0801 T*S(rot)=     7.54 kcal/mol T*S(tot)=    24.42 kcal/mol
 sn= 4  qrot/sn=   55869.8101 T*S(rot)=     7.37 kcal/mol T*S(tot)=    24.25 kcal/mol
 sn= 5  qrot/sn=   44695.8481 T*S(rot)=     7.23 kcal/mol T*S(tot)=    24.12 kcal/mol
 sn= 6  qrot/sn=   37246.5400 T*S(rot)=     7.12 kcal/mol T*S(tot)=    24.01 kcal/mol
 sn= 7  qrot/sn=   31925.6058 T*S(rot)=     7.03 kcal/mol T*S(tot)=    23.92 kcal/mol
 sn= 8  qrot/sn=   27934.9050 T*S(rot)=     6.95 kcal/mol T*S(tot)=    23.84 kcal/mol
 sn= 9  qrot/sn=   24831.0267 T*S(rot)=     6.88 kcal/mol T*S(tot)=    23.77 kcal/mol
 sn=10  qrot/sn=   22347.9240 T*S(rot)=     6.82 kcal/mol T*S(tot)=    23.71 kcal/mol
 sn=11  qrot/sn=   20316.2946 T*S(rot)=     6.77 kcal/mol T*S(tot)=    23.65 kcal/mol
 sn=12  qrot/sn=   18623.2700 T*S(rot)=     6.71 kcal/mol T*S(tot)=    23.60 kcal/mol

-------------------
GIBBS FREE ENTHALPY
-------------------

The Gibbs free enthalpy is G = H - T*S

Total enthalpy                    ...   -341.90275055 Eh
Total entropy correction          ...     -0.03892326 Eh    -24.42 kcal/mol
-----------------------------------------------------------------------
Final Gibbs free enthalpy         ...   -341.94167380 Eh

For completeness - the Gibbs free enthalpy minus the electronic energy
G-E(el)                           ...      0.11052320 Eh     69.35 kcal/mol

                             ****ORCA TERMINATED NORMALLY****
TOTAL RUN TIME: 0 days 0 hours 25 minutes 17 seconds 124 msec
