                         Program Version 3.0.3 - RELEASE   -
|  1> ! NORI PBE0 def2-TZVP UseSym TightOPT Freq TightSCF Grid3 FinalGrid5 XYZFile
|  2> % pal
|  3>     nprocs 8
|  4> end
|  5> %method
|  6>     SymThresh 5.0e-2
|  7> end
|  8> % geom
|  9>     MaxIter 10
| 10> end
| 11> % maxcore 2000
| 12> % output
| 13>     printlevel mini
| 14>     print[ P_Basis ] 0
| 15>     print[ P_SCFInfo ] 1
| 16>     print[ P_SCFIterInfo ] 1
| 17>     print[ P_OrbEn ] 0
| 18>     print[ P_Cartesian ] 0
| 19> end
| 20> % elprop
| 21>     Dipole false
| 22> end
| 23> *xyz 1 1
| 24>  C        0.8279779825    -0.0398905520     0.0935640135
| 25>  C        2.3306697083     0.0041629560     0.0210115879
| 26>  N        2.7759496547     0.0114575877    -1.4163279629
| 27>  C        3.0980758313     0.9477214831     0.9535967948
| 28>  O        3.6788400972    -0.1985744077     1.6350065625
| 29>  C        3.1016503324    -1.0829087990     0.7952688387
| 30>  O        3.2125366303    -2.2513265539     0.6981887733
| 31>  H        0.4329717903    -0.9250178689    -0.4111184265
| 32>  H        0.3787069821     0.8568533932    -0.3427997005
| 33>  H        0.5181391784    -0.0941151501     1.1377099505
| 34>  H        2.5337319925    -0.8869703824    -1.8488440026
| 35>  H        3.7883935057     0.1308823061    -1.5105726629
| 36>  H        2.3152789022     0.7518599912    -1.9526793286
| 37>  H        2.4771847114     1.5360932140     1.6270999439
| 38>  H        3.8775327007     1.5677727825     0.5058656191
| 39> *
| 40>
| 41>                          ****END OF INPUT****
 Total Charge           Charge          ....    1
 Multiplicity           Mult            ....    1
 Number of Electrons    NEL             ....   54
FINAL SINGLE POINT ENERGY      -361.900538009013

CARTESIAN COORDINATES (ANGSTROEM)
---------------------------------
  C     -0.609865   -1.298896   -1.309210
  C     -0.439427   -0.064902   -0.464329
  N     -0.422555    1.159077   -1.339924
  C     -1.236349    0.067081    0.838260
  O      0.000130   -0.000807    1.601193
  C      0.768476   -0.032174    0.492722
  O      1.937472    0.000548    0.354229
  H      0.195268   -1.390460   -2.042340
  H     -1.573386   -1.300589   -1.826506
  H     -0.572074   -2.182456   -0.671041
  H      0.419475    1.142660   -1.926000
  H     -0.398029    2.026661   -0.797176
  H     -1.236064    1.192941   -1.960714
  H     -1.889220   -0.773575    1.066585
  H     -1.749785    1.014090    1.016372

FINAL SINGLE POINT ENERGY      -361.900538601110
                    ***********************HURRAY********************
 Multiplicity           Mult            ....    1
 Number of Electrons    NEL             ....   54
 Basis Dimension        Dim             ....  265
FINAL SINGLE POINT ENERGY      -361.900538823261

VIBRATIONAL FREQUENCIES
-----------------------

   0:         0.00 cm**-1
   1:         0.00 cm**-1
   2:         0.00 cm**-1
   3:         0.00 cm**-1
   4:         0.00 cm**-1
   5:         0.00 cm**-1
   6:       122.28 cm**-1
   7:       174.76 cm**-1
   8:       191.54 cm**-1
   9:       227.84 cm**-1
  10:       274.66 cm**-1
  11:       349.69 cm**-1
  12:       373.44 cm**-1
  13:       557.54 cm**-1
  14:       660.53 cm**-1
  15:       739.38 cm**-1
  16:       786.73 cm**-1
  17:       869.10 cm**-1
  18:       916.62 cm**-1
  19:       963.52 cm**-1
  20:       996.05 cm**-1
  21:      1016.35 cm**-1
  22:      1043.06 cm**-1
  23:      1148.31 cm**-1
  24:      1153.41 cm**-1
  25:      1210.73 cm**-1
  26:      1241.43 cm**-1
  27:      1320.52 cm**-1
  28:      1381.25 cm**-1
  29:      1423.60 cm**-1
  30:      1476.18 cm**-1
  31:      1481.98 cm**-1
  32:      1504.59 cm**-1
  33:      1518.86 cm**-1
  34:      1649.49 cm**-1
  35:      1651.26 cm**-1
  36:      1977.05 cm**-1
  37:      3055.38 cm**-1
  38:      3095.09 cm**-1
  39:      3134.93 cm**-1
  40:      3154.65 cm**-1
  41:      3172.55 cm**-1
  42:      3393.84 cm**-1
  43:      3469.00 cm**-1
  44:      3488.22 cm**-1

IR SPECTRUM
-----------

 Mode    freq (cm**-1)   T**2         TX         TY         TZ
-------------------------------------------------------------------
   6:       122.28    2.033420  ( -1.034586  -0.334139   0.922716)
   7:       174.76   16.623478  ( -1.962171   2.925573  -2.052897)
   8:       191.54    2.164648  (  0.193217  -1.358192  -0.531629)
   9:       227.84    4.586502  (  0.836935  -0.016066   1.971239)
  10:       274.66    7.630775  ( -1.871655  -0.526398  -1.962292)
  11:       349.69    4.911281  ( -0.182398   1.994229   0.949243)
  12:       373.44    3.096148  (  0.346539   0.566864  -1.629332)
  13:       557.54    0.742795  (  0.347760  -0.467689   0.634921)
  14:       660.53    1.542957  ( -0.718504  -0.665203   0.764339)
  15:       739.38    4.370139  ( -0.531186  -1.805087  -0.910847)
  16:       786.73    6.001925  ( -1.958968   0.682881  -1.303089)
  17:       869.10    3.572404  (  1.798358   0.580926  -0.028934)
  18:       916.62    1.802724  ( -0.171611   1.285909  -0.345993)
  19:       963.52    5.123956  ( -1.568775   1.628243   0.108281)
  20:       996.05   66.436125  ( -7.684257  -1.540792  -2.239259)
  21:      1016.35   39.520684  (  5.319036  -1.911589  -2.752157)
  22:      1043.06    8.004350  ( -2.717355  -0.374936   0.692645)
  23:      1148.31   98.717350  (  2.762306  -0.759860  -9.513655)
  24:      1153.41   23.419597  (  0.784431   0.643368  -4.731843)
  25:      1210.73   13.484664  (  1.194124  -3.193946   1.362879)
  26:      1241.43   15.633609  (  2.215509   0.774166  -3.182105)
  27:      1320.52   33.076815  (  1.272967  -1.154380  -5.488513)
  28:      1381.25    1.286649  (  0.628365  -0.234435  -0.914793)
  29:      1423.60   22.270123  (  0.447040  -4.513682  -1.302672)
  30:      1476.18    6.126207  ( -0.252710  -2.074730   1.325835)
  31:      1481.98   10.014675  ( -3.129369   0.192475   0.429738)
  32:      1504.59   72.005018  ( -1.326297  -5.934951   5.917965)
  33:      1518.86   84.644276  (  0.175409   7.502732  -5.321890)
  34:      1649.49   40.668357  (  6.202441   0.751483   1.278029)
  35:      1651.26   44.501497  ( -2.008040   4.428922   4.566610)
  36:      1977.05  406.196492  (-19.978575  -0.140676   2.652024)
  37:      3055.38    3.185281  (  0.544710  -1.305271   1.088504)
  38:      3095.09    7.365912  ( -2.096804   1.428439  -0.963789)
  39:      3134.93    0.617464  (  0.772004   0.145498  -0.017472)
  40:      3154.65    1.528542  ( -0.157319  -1.205043  -0.227299)
  41:      3172.55    0.205105  ( -0.016850  -0.337528  -0.301490)
  42:      3393.84   51.440788  (  1.612648   4.974493  -4.908622)
  43:      3469.00   99.125788  (  9.039533  -3.329765  -2.515014)
  44:      3488.22   92.530144  (  4.146420   5.458982   6.748101)

--------------------------
THERMOCHEMISTRY AT 298.15K
--------------------------

Temperature         ... 298.15 K
Pressure            ... 1.00 atm
Total Mass          ... 102.11 AMU

Throughout the following assumptions are being made:
  (1) The electronic state is orbitally nondegenerate
  (2) There are no thermally accessible electronically excited states
  (3) Hindered rotations indicated by low frequency modes) are not
      treated as such but are treated as vibrations and this may
      case some error
  (4) All equations used are the standard statistical mechanics
      equations for an ideal gas
  (5) All vibrations are strinctly harmonic

------------
INNER ENERGY
------------

The inner energy is: U= E(el) + E(ZPE) + E(vib) + E(rot) + E(trans)
    E(el)   - is the total energy from the electronic structure calculation
              = E(kin-el) + E(nuc-el) + E(el-el) + E(nuc-nuc)
    E(ZPE)  - the the zero temperature vibrational energy from the frequency calculation
    E(vib)  - the the finite temperature correction to E(ZPE) due to population
              of excietd vibrational states
    E(rot)  - is the rotational thermal energy
    E(trans)- is the translational thermal energy

Summary of contributions to the inner energy U:
Electronic energy                ...   -361.90053882 Eh
Zero point energy                ...      0.12840981 Eh      80.58 kcal/mol
Thermal vibrational correction   ...      0.00441105 Eh       2.77 kcal/mol
Thermal rotational correction    ...      0.00141627 Eh       0.89 kcal/mol
Thermal translational correction ...      0.00141627 Eh       0.89 kcal/mol
-----------------------------------------------------------------------
Total thermal energy                   -361.76488542 Eh

Summary of corrections to the electronic energy:
(perhaps to be used in another calculation)
Total thermal correction                  0.00724359 Eh       4.55 kcal/mol
Non-thermal (ZPE) correction              0.12840981 Eh      80.58 kcal/mol
-----------------------------------------------------------------------
Total correction                          0.13565340 Eh      85.12 kcal/mol

--------
ENTHALPY
--------

The enthalpy is H = U + kB*T
                kB is Boltzmann's constant
Total free energy                 ...   -361.76488542 Eh
Thermal Enthalpy correction       ...      0.00094421 Eh       0.59 kcal/mol
-----------------------------------------------------------------------
Total Enthalpy                    ...   -361.76394122 Eh

-------
ENTROPY
-------

The entropy contributions are T*S = T*(S(el)+S(vib)+S(rot)+S(trans)
     S(el)   - electronic entropy
     S(vib)  - vibrational entropy
     S(rot)  - rotational entropy
     S(trans)- translational entropy
The entropies will be listed as mutliplied by the temperature to get
units of energy

Electronic entropy                ...      0.00000000 Eh      0.00 kcal/mol
Vibrational entropy               ...      0.00744991 Eh      4.67 kcal/mol
Rotational entropy                ...      0.01187269 Eh      7.45 kcal/mol
Translational entropy             ...      0.01890086 Eh     11.86 kcal/mol
-----------------------------------------------------------------------
Final entropy term                ...      0.03822346 Eh     23.99 kcal/mol

CAUTION: The rotational entropy is not quite correctly treated here
         because it includes a symmetry number that is not yet correctly
         implemented in ORCA!
For a nonlinear molecule the correct rotational entropy is:
    S(rot) = R*(ln(qrot/sn)+1.5)
    R    = 8.31441 J/mol/K = 1.987191683e-3 kcal/mol/K
    qrot = 193533.3474311
    sn is the rotational symmetry number. We have assumed 3 here
       if it is different for your molecule then you should correct
       the printed rotational entropy by manually evaluating the equation
       as given above

For convenience we print out the resulting values for sn=1 - 12:
 sn= 1  qrot/sn=  193533.3474 T*S(rot)=     8.10 kcal/mol T*S(tot)=    24.64 kcal/mol
 sn= 2  qrot/sn=   96766.6737 T*S(rot)=     7.69 kcal/mol T*S(tot)=    24.23 kcal/mol
 sn= 3  qrot/sn=   64511.1158 T*S(rot)=     7.45 kcal/mol T*S(tot)=    23.99 kcal/mol
 sn= 4  qrot/sn=   48383.3369 T*S(rot)=     7.28 kcal/mol T*S(tot)=    23.82 kcal/mol
 sn= 5  qrot/sn=   38706.6695 T*S(rot)=     7.15 kcal/mol T*S(tot)=    23.68 kcal/mol
 sn= 6  qrot/sn=   32255.5579 T*S(rot)=     7.04 kcal/mol T*S(tot)=    23.57 kcal/mol
 sn= 7  qrot/sn=   27647.6211 T*S(rot)=     6.95 kcal/mol T*S(tot)=    23.48 kcal/mol
 sn= 8  qrot/sn=   24191.6684 T*S(rot)=     6.87 kcal/mol T*S(tot)=    23.40 kcal/mol
 sn= 9  qrot/sn=   21503.7053 T*S(rot)=     6.80 kcal/mol T*S(tot)=    23.33 kcal/mol
 sn=10  qrot/sn=   19353.3347 T*S(rot)=     6.74 kcal/mol T*S(tot)=    23.27 kcal/mol
 sn=11  qrot/sn=   17593.9407 T*S(rot)=     6.68 kcal/mol T*S(tot)=    23.22 kcal/mol
 sn=12  qrot/sn=   16127.7790 T*S(rot)=     6.63 kcal/mol T*S(tot)=    23.16 kcal/mol

-------------------
GIBBS FREE ENTHALPY
-------------------

The Gibbs free enthalpy is G = H - T*S

Total enthalpy                    ...   -361.76394122 Eh
Total entropy correction          ...     -0.03822346 Eh    -23.99 kcal/mol
-----------------------------------------------------------------------
Final Gibbs free enthalpy         ...   -361.80216468 Eh

For completeness - the Gibbs free enthalpy minus the electronic energy
G-E(el)                           ...      0.09837415 Eh     61.73 kcal/mol

                             ****ORCA TERMINATED NORMALLY****
TOTAL RUN TIME: 0 days 0 hours 25 minutes 15 seconds 893 msec
