                         Program Version 3.0.3 - RELEASE   -
|  1> ! NORI PBE0 def2-TZVP UseSym TightOPT Freq TightSCF Grid3 FinalGrid5 XYZFile
|  2> % pal
|  3>     nprocs 8
|  4> end
|  5> %method
|  6>     SymThresh 5.0e-2
|  7> end
|  8> % geom
|  9>     MaxIter 10
| 10> end
| 11> % maxcore 2000
| 12> % output
| 13>     printlevel mini
| 14>     print[ P_Basis ] 0
| 15>     print[ P_SCFInfo ] 1
| 16>     print[ P_SCFIterInfo ] 1
| 17>     print[ P_OrbEn ] 0
| 18>     print[ P_Cartesian ] 0
| 19> end
| 20> % elprop
| 21>     Dipole false
| 22> end
| 23> *xyz 1 1
| 24>  C        0.9814994339    -0.0675077428    -0.2507767342
| 25>  C        2.4591971364     0.0211004492     0.0561279663
| 26>  N        3.1786864175     0.3051237936    -1.3017639056
| 27>  C        3.0794567174    -1.2348642680     0.6713401768
| 28>  O        4.1191282408    -0.7833341488     1.5388854902
| 29>  C        3.8735448791     0.5162250187     1.7797405107
| 30>  C        2.9217079833     1.0636751988     1.0187430782
| 31>  H        0.7498959517    -0.8966462033    -0.9255651609
| 32>  H        0.6080616560     0.8587998488    -0.6943151943
| 33>  H        0.4344063885    -0.2258340411     0.6779239800
| 34>  H        2.9557620974    -0.3950480389    -2.0130614555
| 35>  H        4.1906193616     0.3261356817    -1.1613698350
| 36>  H        2.8988627647     1.2207528926    -1.6581529818
| 37>  H        3.4994720320    -1.9455266399    -0.0435126147
| 38>  H        2.3262480938    -1.7479442746     1.2751172387
| 39>  H        4.4765010045     0.9634988661     2.5588614908
| 40>  H        2.5575298413     2.0785536079     1.0696979503
| 41> *
| 42>
| 43>                          ****END OF INPUT****
 Total Charge           Charge          ....    1
 Multiplicity           Mult            ....    1
 Number of Electrons    NEL             ....   54
FINAL SINGLE POINT ENERGY      -326.003322205471

CARTESIAN COORDINATES (ANGSTROEM)
---------------------------------
  C     -0.764206   -0.885791   -1.728602
  C     -0.031133   -0.205338   -0.594669
  N      1.441199   -0.000173   -1.076612
  C      0.002351   -0.979475    0.724621
  O     -0.000556   -0.000191    1.763190
  C     -0.434695    1.142893    1.204433
  C     -0.524840    1.123934   -0.128343
  H     -0.351841   -1.873766   -1.951816
  H     -0.740803   -0.282921   -2.639760
  H     -1.809897   -1.012594   -1.450295
  H      1.879124   -0.876226   -1.370594
  H      1.997835    0.414315   -0.326733
  H      1.460820    0.646341   -1.867330
  H      0.865718   -1.634451    0.858998
  H     -0.908594   -1.577020    0.812704
  H     -0.656949    1.941409    1.899806
  H     -0.873697    1.923655   -0.764063

FINAL SINGLE POINT ENERGY      -326.003322942064
                    ***********************HURRAY********************
 Multiplicity           Mult            ....    1
 Number of Electrons    NEL             ....   54
 Basis Dimension        Dim             ....  277
FINAL SINGLE POINT ENERGY      -326.003323309449

VIBRATIONAL FREQUENCIES
-----------------------

   0:         0.00 cm**-1
   1:         0.00 cm**-1
   2:         0.00 cm**-1
   3:         0.00 cm**-1
   4:         0.00 cm**-1
   5:         0.00 cm**-1
   6:       119.13 cm**-1
   7:       216.26 cm**-1
   8:       243.63 cm**-1
   9:       273.76 cm**-1
  10:       336.16 cm**-1
  11:       363.85 cm**-1
  12:       395.01 cm**-1
  13:       539.85 cm**-1
  14:       589.64 cm**-1
  15:       713.83 cm**-1
  16:       752.37 cm**-1
  17:       822.18 cm**-1
  18:       874.87 cm**-1
  19:       938.40 cm**-1
  20:       955.44 cm**-1
  21:       972.17 cm**-1
  22:       983.35 cm**-1
  23:      1008.01 cm**-1
  24:      1029.64 cm**-1
  25:      1096.64 cm**-1
  26:      1119.50 cm**-1
  27:      1198.85 cm**-1
  28:      1250.99 cm**-1
  29:      1280.49 cm**-1
  30:      1290.11 cm**-1
  31:      1337.24 cm**-1
  32:      1420.49 cm**-1
  33:      1426.34 cm**-1
  34:      1466.47 cm**-1
  35:      1479.41 cm**-1
  36:      1490.02 cm**-1
  37:      1490.58 cm**-1
  38:      1641.19 cm**-1
  39:      1648.99 cm**-1
  40:      1661.88 cm**-1
  41:      3055.74 cm**-1
  42:      3080.67 cm**-1
  43:      3129.56 cm**-1
  44:      3134.31 cm**-1
  45:      3161.84 cm**-1
  46:      3249.01 cm**-1
  47:      3270.11 cm**-1
  48:      3410.96 cm**-1
  49:      3511.17 cm**-1
  50:      3517.02 cm**-1

IR SPECTRUM
-----------

 Mode    freq (cm**-1)   T**2         TX         TY         TZ
-------------------------------------------------------------------
   6:       119.13    5.955341  (  1.566797  -0.540763  -1.791106)
   7:       216.26    0.217170  (  0.018253   0.366991  -0.286626)
   8:       243.63    0.634783  (  0.045424  -0.703657   0.370926)
   9:       273.76    3.227515  (  0.700962   1.550465  -0.576391)
  10:       336.16    7.267981  (  1.313706   1.446086   1.857685)
  11:       363.85    1.031804  (  0.404897   0.921073  -0.139595)
  12:       395.01    3.928852  ( -0.534131   1.288024  -1.408741)
  13:       539.85    7.484296  (  2.294926   0.532551   1.390683)
  14:       589.64    3.138590  ( -1.644158  -0.174287   0.636363)
  15:       713.83   22.629090  (  3.473709  -0.357892  -3.230224)
  16:       752.37   63.164914  ( -7.425027  -2.541461   1.254937)
  17:       822.18    7.862450  (  2.628414   0.054373   0.975158)
  18:       874.87   10.366792  (  2.340166  -1.667317  -1.452745)
  19:       938.40   14.333050  (  1.602510  -0.343957   3.412727)
  20:       955.44    3.608244  ( -0.152850   1.851134  -0.397722)
  21:       972.17   11.673128  (  2.072681   1.733086   2.091301)
  22:       983.35    2.923589  ( -1.451581  -0.481854  -0.764407)
  23:      1008.01   38.305676  ( -0.191867   1.498458   6.001957)
  24:      1029.64    6.213141  (  1.768316   1.366134   1.104481)
  25:      1096.64   18.853599  ( -0.084954   4.118381  -1.373068)
  26:      1119.50   46.155086  (  4.899981   1.520893  -4.453331)
  27:      1198.85  100.120991  (  2.537593  -8.251580   5.058956)
  28:      1250.99    8.241294  (  2.857649  -0.169464   0.215449)
  29:      1280.49   24.704053  ( -0.439029   3.873344   3.083588)
  30:      1290.11   12.201770  (  1.101985  -1.224812   3.080136)
  31:      1337.24    7.573556  (  1.625269  -2.009773  -0.944916)
  32:      1420.49   35.504780  ( -5.542741  -1.793693  -1.251185)
  33:      1426.34   36.333874  ( -3.524298   2.788992   4.016805)
  34:      1466.47  112.172049  ( -9.533101  -2.563542   3.836702)
  35:      1479.41   21.060631  ( -4.375426  -0.991826   0.965690)
  36:      1490.02    6.236095  ( -1.050514   1.550500  -1.651807)
  37:      1490.58   14.061456  (  1.305971  -3.385856   0.944390)
  38:      1641.19   38.241338  (  2.213682  -3.413121   4.657419)
  39:      1648.99   57.568283  (  0.549108   3.852478   6.513461)
  40:      1661.88   82.905905  ( -0.076259  -3.817233   8.266125)
  41:      3055.74    3.596587  (  1.189361  -0.522272  -1.381752)
  42:      3080.67    6.550885  ( -0.630476   2.244473   1.056280)
  43:      3129.56    4.409068  ( -0.369779   1.987959  -0.565994)
  44:      3134.31    2.769096  (  1.544575  -0.615665  -0.065881)
  45:      3161.84    1.474386  ( -0.249517  -0.467744  -1.092402)
  46:      3249.01    5.155930  (  0.341589  -0.307615   2.223650)
  47:      3270.11    4.957300  ( -0.981497   1.952981  -0.424062)
  48:      3410.96   34.599524  ( -5.482451  -0.489619   2.074254)
  49:      3511.17   65.712859  (  0.563901   8.055339   0.711608)
  50:      3517.02   72.841782  (  2.806287  -1.282213   7.957541)

--------------------------
THERMOCHEMISTRY AT 298.15K
--------------------------

Temperature         ... 298.15 K
Pressure            ... 1.00 atm
Total Mass          ... 100.14 AMU

Throughout the following assumptions are being made:
  (1) The electronic state is orbitally nondegenerate
  (2) There are no thermally accessible electronically excited states
  (3) Hindered rotations indicated by low frequency modes) are not
      treated as such but are treated as vibrations and this may
      case some error
  (4) All equations used are the standard statistical mechanics
      equations for an ideal gas
  (5) All vibrations are strinctly harmonic

------------
INNER ENERGY
------------

The inner energy is: U= E(el) + E(ZPE) + E(vib) + E(rot) + E(trans)
    E(el)   - is the total energy from the electronic structure calculation
              = E(kin-el) + E(nuc-el) + E(el-el) + E(nuc-nuc)
    E(ZPE)  - the the zero temperature vibrational energy from the frequency calculation
    E(vib)  - the the finite temperature correction to E(ZPE) due to population
              of excietd vibrational states
    E(rot)  - is the rotational thermal energy
    E(trans)- is the translational thermal energy

Summary of contributions to the inner energy U:
Electronic energy                ...   -326.00332331 Eh
Zero point energy                ...      0.15251673 Eh      95.71 kcal/mol
Thermal vibrational correction   ...      0.00430963 Eh       2.70 kcal/mol
Thermal rotational correction    ...      0.00141627 Eh       0.89 kcal/mol
Thermal translational correction ...      0.00141627 Eh       0.89 kcal/mol
-----------------------------------------------------------------------
Total thermal energy                   -325.84366440 Eh

Summary of corrections to the electronic energy:
(perhaps to be used in another calculation)
Total thermal correction                  0.00714218 Eh       4.48 kcal/mol
Non-thermal (ZPE) correction              0.15251673 Eh      95.71 kcal/mol
-----------------------------------------------------------------------
Total correction                          0.15965891 Eh     100.19 kcal/mol

--------
ENTHALPY
--------

The enthalpy is H = U + kB*T
                kB is Boltzmann's constant
Total free energy                 ...   -325.84366440 Eh
Thermal Enthalpy correction       ...      0.00094421 Eh       0.59 kcal/mol
-----------------------------------------------------------------------
Total Enthalpy                    ...   -325.84272019 Eh

-------
ENTROPY
-------

The entropy contributions are T*S = T*(S(el)+S(vib)+S(rot)+S(trans)
     S(el)   - electronic entropy
     S(vib)  - vibrational entropy
     S(rot)  - rotational entropy
     S(trans)- translational entropy
The entropies will be listed as mutliplied by the temperature to get
units of energy

Electronic entropy                ...      0.00000000 Eh      0.00 kcal/mol
Vibrational entropy               ...      0.00697385 Eh      4.38 kcal/mol
Rotational entropy                ...      0.01183486 Eh      7.43 kcal/mol
Translational entropy             ...      0.01887324 Eh     11.84 kcal/mol
-----------------------------------------------------------------------
Final entropy term                ...      0.03768195 Eh     23.65 kcal/mol

CAUTION: The rotational entropy is not quite correctly treated here
         because it includes a symmetry number that is not yet correctly
         implemented in ORCA!
For a nonlinear molecule the correct rotational entropy is:
    S(rot) = R*(ln(qrot/sn)+1.5)
    R    = 8.31441 J/mol/K = 1.987191683e-3 kcal/mol/K
    qrot = 185932.5561886
    sn is the rotational symmetry number. We have assumed 3 here
       if it is different for your molecule then you should correct
       the printed rotational entropy by manually evaluating the equation
       as given above

For convenience we print out the resulting values for sn=1 - 12:
 sn= 1  qrot/sn=  185932.5562 T*S(rot)=     8.08 kcal/mol T*S(tot)=    24.30 kcal/mol
 sn= 2  qrot/sn=   92966.2781 T*S(rot)=     7.67 kcal/mol T*S(tot)=    23.89 kcal/mol
 sn= 3  qrot/sn=   61977.5187 T*S(rot)=     7.43 kcal/mol T*S(tot)=    23.65 kcal/mol
 sn= 4  qrot/sn=   46483.1390 T*S(rot)=     7.26 kcal/mol T*S(tot)=    23.48 kcal/mol
 sn= 5  qrot/sn=   37186.5112 T*S(rot)=     7.12 kcal/mol T*S(tot)=    23.34 kcal/mol
 sn= 6  qrot/sn=   30988.7594 T*S(rot)=     7.02 kcal/mol T*S(tot)=    23.24 kcal/mol
 sn= 7  qrot/sn=   26561.7937 T*S(rot)=     6.92 kcal/mol T*S(tot)=    23.14 kcal/mol
 sn= 8  qrot/sn=   23241.5695 T*S(rot)=     6.85 kcal/mol T*S(tot)=    23.06 kcal/mol
 sn= 9  qrot/sn=   20659.1729 T*S(rot)=     6.78 kcal/mol T*S(tot)=    22.99 kcal/mol
 sn=10  qrot/sn=   18593.2556 T*S(rot)=     6.71 kcal/mol T*S(tot)=    22.93 kcal/mol
 sn=11  qrot/sn=   16902.9597 T*S(rot)=     6.66 kcal/mol T*S(tot)=    22.88 kcal/mol
 sn=12  qrot/sn=   15494.3797 T*S(rot)=     6.61 kcal/mol T*S(tot)=    22.82 kcal/mol

-------------------
GIBBS FREE ENTHALPY
-------------------

The Gibbs free enthalpy is G = H - T*S

Total enthalpy                    ...   -325.84272019 Eh
Total entropy correction          ...     -0.03768195 Eh    -23.65 kcal/mol
-----------------------------------------------------------------------
Final Gibbs free enthalpy         ...   -325.88040214 Eh

For completeness - the Gibbs free enthalpy minus the electronic energy
G-E(el)                           ...      0.12292117 Eh     77.13 kcal/mol

                             ****ORCA TERMINATED NORMALLY****
TOTAL RUN TIME: 0 days 0 hours 33 minutes 1 seconds 749 msec
