                         Program Version 3.0.3 - RELEASE   -
|  1> ! NORI PBE0 def2-TZVP UseSym TightOPT Freq TightSCF Grid3 FinalGrid5 XYZFile
|  2> % pal
|  3>     nprocs 8
|  4> end
|  5> %method
|  6>     SymThresh 5.0e-2
|  7> end
|  8> % geom
|  9>     MaxIter 10
| 10> end
| 11> % maxcore 2000
| 12> % output
| 13>     printlevel mini
| 14>     print[ P_Basis ] 0
| 15>     print[ P_SCFInfo ] 1
| 16>     print[ P_SCFIterInfo ] 1
| 17>     print[ P_OrbEn ] 0
| 18>     print[ P_Cartesian ] 0
| 19> end
| 20> % elprop
| 21>     Dipole false
| 22> end
| 23> *xyz 1 1
| 24>  C        0.8748211081    -0.2080740126    -0.2385981044
| 25>  C        2.3575079547    -0.1443438102     0.0326374118
| 26>  N        3.0727892061     0.2618828292    -1.2763485829
| 27>  C        3.0205850302    -1.3962336558     0.5701502231
| 28>  O        4.1214602990    -0.9102551580     1.3425102454
| 29>  N        3.8378178518     0.3642294049     1.7369858770
| 30>  C        2.8467924725     0.8196595946     1.0818025769
| 31>  H        0.6287141279    -0.9762582405    -0.9763968598
| 32>  H        0.4879899001     0.7519222225    -0.5890402822
| 33>  H        0.3517361699    -0.4525865788     0.6859516145
| 34>  H        2.8393464697    -0.3767168277    -2.0405274278
| 35>  H        4.0879201756     0.2512703726    -1.1424505335
| 36>  H        2.8047879089     1.2060981577    -1.5626427010
| 37>  H        3.3984804920    -2.0953977594    -0.1779908800
| 38>  H        2.3251703216    -1.9187264706     1.2345271710
| 39>  H        2.4768905120     1.8203099322     1.2672902518
| 40> *
| 41>
| 42>                          ****END OF INPUT****
 Total Charge           Charge          ....    1
 Multiplicity           Mult            ....    1
 Number of Electrons    NEL             ....   54
FINAL SINGLE POINT ENERGY      -341.988535490625

CARTESIAN COORDINATES (ANGSTROEM)
---------------------------------
  C     -0.704185   -0.850469   -1.801066
  C     -0.015635   -0.238307   -0.606265
  N      1.467701    0.000255   -0.970530
  C     -0.068849   -1.009040    0.697115
  O      0.000611   -0.000207    1.708217
  N     -0.454017    1.170668    1.176347
  C     -0.526954    1.081707   -0.090833
  H     -0.288284   -1.829293   -2.053190
  H     -0.637274   -0.203749   -2.679347
  H     -1.761914   -0.985071   -1.574775
  H      1.916957   -0.863784   -1.283374
  H      1.978389    0.356210   -0.157565
  H      1.554571    0.689459   -1.720839
  H      0.737652   -1.725985    0.861278
  H     -1.031457   -1.523549    0.775615
  H     -0.874978    1.919204   -0.682761

FINAL SINGLE POINT ENERGY      -341.988535964730
                    ***********************HURRAY********************
 Multiplicity           Mult            ....    1
 Number of Electrons    NEL             ....   54
 Basis Dimension        Dim             ....  271
FINAL SINGLE POINT ENERGY      -341.988536225126

VIBRATIONAL FREQUENCIES
-----------------------

   0:         0.00 cm**-1
   1:         0.00 cm**-1
   2:         0.00 cm**-1
   3:         0.00 cm**-1
   4:         0.00 cm**-1
   5:         0.00 cm**-1
   6:       118.95 cm**-1
   7:       220.92 cm**-1
   8:       245.60 cm**-1
   9:       264.39 cm**-1
  10:       333.35 cm**-1
  11:       359.33 cm**-1
  12:       399.83 cm**-1
  13:       584.58 cm**-1
  14:       606.15 cm**-1
  15:       751.34 cm**-1
  16:       816.47 cm**-1
  17:       853.12 cm**-1
  18:       908.39 cm**-1
  19:       939.30 cm**-1
  20:       957.01 cm**-1
  21:       977.51 cm**-1
  22:       991.23 cm**-1
  23:      1001.50 cm**-1
  24:      1042.60 cm**-1
  25:      1129.93 cm**-1
  26:      1234.01 cm**-1
  27:      1238.36 cm**-1
  28:      1291.13 cm**-1
  29:      1299.79 cm**-1
  30:      1394.66 cm**-1
  31:      1424.18 cm**-1
  32:      1476.36 cm**-1
  33:      1482.19 cm**-1
  34:      1488.04 cm**-1
  35:      1489.20 cm**-1
  36:      1647.69 cm**-1
  37:      1649.47 cm**-1
  38:      1661.98 cm**-1
  39:      3058.95 cm**-1
  40:      3074.17 cm**-1
  41:      3133.96 cm**-1
  42:      3139.02 cm**-1
  43:      3159.66 cm**-1
  44:      3233.54 cm**-1
  45:      3404.37 cm**-1
  46:      3494.39 cm**-1
  47:      3503.61 cm**-1

IR SPECTRUM
-----------

 Mode    freq (cm**-1)   T**2         TX         TY         TZ
-------------------------------------------------------------------
   6:       118.95   15.887797  (  3.404604  -0.274664  -2.054515)
   7:       220.92    0.587560  (  0.081718  -0.690592   0.322436)
   8:       245.60    0.697117  (  0.432206  -0.650557   0.295112)
   9:       264.39    2.945527  (  0.879377  -1.381611   0.513199)
  10:       333.35    8.100013  (  0.746461   1.467552   2.321444)
  11:       359.33    2.627607  ( -1.560346  -0.298477   0.322239)
  12:       399.83    2.976307  (  0.704984   1.252122  -0.954722)
  13:       584.58    3.094013  (  0.062455   1.286478  -1.197951)
  14:       606.15    0.146165  ( -0.353744  -0.086845   0.116140)
  15:       751.34    7.699447  (  2.523345  -0.227936  -1.131468)
  16:       816.47    7.556482  ( -2.047590  -0.684510  -1.701559)
  17:       853.12   23.907880  ( -4.712783  -1.066795   0.748002)
  18:       908.39    3.267383  ( -1.028496  -0.081989   1.484203)
  19:       939.30   38.389203  (  0.151019   0.717100   6.152411)
  20:       957.01   10.640292  (  0.659898   1.097170   3.000174)
  21:       977.51   51.805671  (  1.846860  -3.612800   5.944952)
  22:       991.23   11.377710  (  0.078756  -2.843056   1.813433)
  23:      1001.50   20.709811  (  0.361415   4.527911  -0.277870)
  24:      1042.60   20.334612  (  1.451111   3.943341  -1.636750)
  25:      1129.93   28.452475  (  4.767768   0.242748  -2.379483)
  26:      1234.01    6.443877  ( -2.530202  -0.065191   0.194176)
  27:      1238.36   12.375637  ( -2.150825   0.102746  -2.781911)
  28:      1291.13    1.160005  (  0.458461  -0.040553   0.973742)
  29:      1299.79    9.300830  (  1.017918  -1.695114  -2.321909)
  30:      1394.66   10.313776  ( -1.086248   0.472639   2.985038)
  31:      1424.18   27.757012  ( -4.446157  -1.630836  -2.308480)
  32:      1476.36   47.667785  ( -5.604911  -2.978459   2.716898)
  33:      1482.19   45.121203  ( -5.904299  -2.471582   2.037581)
  34:      1488.04   10.653142  (  1.645985   2.347794  -1.559403)
  35:      1489.20   77.823694  (  8.628866  -1.552352  -0.978041)
  36:      1647.69   32.734486  ( -1.184675   5.579852  -0.443035)
  37:      1649.47   49.975247  (  1.467424   0.310966   6.908344)
  38:      1661.98   18.771769  ( -0.172264   3.771966  -2.124704)
  39:      3058.95    2.662862  ( -1.397190  -0.055269   0.841230)
  40:      3074.17    3.689315  ( -0.236467   1.350791   1.344902)
  41:      3133.96    2.015089  (  0.193609  -1.334358   0.443951)
  42:      3139.02    1.078671  ( -0.939911   0.397020   0.193943)
  43:      3159.66    1.365621  ( -0.606336  -0.406269  -0.912646)
  44:      3233.54    7.758923  ( -1.106163   2.178884  -1.337083)
  45:      3404.37   47.678333  (  6.700812   1.217242  -1.138320)
  46:      3494.39   83.316959  (  1.209917   3.754974   8.231235)
  47:      3503.61   82.109176  ( -1.635900   8.162624  -3.578349)

--------------------------
THERMOCHEMISTRY AT 298.15K
--------------------------

Temperature         ... 298.15 K
Pressure            ... 1.00 atm
Total Mass          ... 101.13 AMU

Throughout the following assumptions are being made:
  (1) The electronic state is orbitally nondegenerate
  (2) There are no thermally accessible electronically excited states
  (3) Hindered rotations indicated by low frequency modes) are not
      treated as such but are treated as vibrations and this may
      case some error
  (4) All equations used are the standard statistical mechanics
      equations for an ideal gas
  (5) All vibrations are strinctly harmonic

------------
INNER ENERGY
------------

The inner energy is: U= E(el) + E(ZPE) + E(vib) + E(rot) + E(trans)
    E(el)   - is the total energy from the electronic structure calculation
              = E(kin-el) + E(nuc-el) + E(el-el) + E(nuc-nuc)
    E(ZPE)  - the the zero temperature vibrational energy from the frequency calculation
    E(vib)  - the the finite temperature correction to E(ZPE) due to population
              of excietd vibrational states
    E(rot)  - is the rotational thermal energy
    E(trans)- is the translational thermal energy

Summary of contributions to the inner energy U:
Electronic energy                ...   -341.98853623 Eh
Zero point energy                ...      0.14006235 Eh      87.89 kcal/mol
Thermal vibrational correction   ...      0.00419045 Eh       2.63 kcal/mol
Thermal rotational correction    ...      0.00141627 Eh       0.89 kcal/mol
Thermal translational correction ...      0.00141627 Eh       0.89 kcal/mol
-----------------------------------------------------------------------
Total thermal energy                   -341.84145088 Eh

Summary of corrections to the electronic energy:
(perhaps to be used in another calculation)
Total thermal correction                  0.00702299 Eh       4.41 kcal/mol
Non-thermal (ZPE) correction              0.14006235 Eh      87.89 kcal/mol
-----------------------------------------------------------------------
Total correction                          0.14708534 Eh      92.30 kcal/mol

--------
ENTHALPY
--------

The enthalpy is H = U + kB*T
                kB is Boltzmann's constant
Total free energy                 ...   -341.84145088 Eh
Thermal Enthalpy correction       ...      0.00094421 Eh       0.59 kcal/mol
-----------------------------------------------------------------------
Total Enthalpy                    ...   -341.84050667 Eh

-------
ENTROPY
-------

The entropy contributions are T*S = T*(S(el)+S(vib)+S(rot)+S(trans)
     S(el)   - electronic entropy
     S(vib)  - vibrational entropy
     S(rot)  - rotational entropy
     S(trans)- translational entropy
The entropies will be listed as mutliplied by the temperature to get
units of energy

Electronic entropy                ...      0.00000000 Eh      0.00 kcal/mol
Vibrational entropy               ...      0.00681693 Eh      4.28 kcal/mol
Rotational entropy                ...      0.01180515 Eh      7.41 kcal/mol
Translational entropy             ...      0.01888714 Eh     11.85 kcal/mol
-----------------------------------------------------------------------
Final entropy term                ...      0.03750922 Eh     23.54 kcal/mol

CAUTION: The rotational entropy is not quite correctly treated here
         because it includes a symmetry number that is not yet correctly
         implemented in ORCA!
For a nonlinear molecule the correct rotational entropy is:
    S(rot) = R*(ln(qrot/sn)+1.5)
    R    = 8.31441 J/mol/K = 1.987191683e-3 kcal/mol/K
    qrot = 180172.5056895
    sn is the rotational symmetry number. We have assumed 3 here
       if it is different for your molecule then you should correct
       the printed rotational entropy by manually evaluating the equation
       as given above

For convenience we print out the resulting values for sn=1 - 12:
 sn= 1  qrot/sn=  180172.5057 T*S(rot)=     8.06 kcal/mol T*S(tot)=    24.19 kcal/mol
 sn= 2  qrot/sn=   90086.2528 T*S(rot)=     7.65 kcal/mol T*S(tot)=    23.78 kcal/mol
 sn= 3  qrot/sn=   60057.5019 T*S(rot)=     7.41 kcal/mol T*S(tot)=    23.54 kcal/mol
 sn= 4  qrot/sn=   45043.1264 T*S(rot)=     7.24 kcal/mol T*S(tot)=    23.37 kcal/mol
 sn= 5  qrot/sn=   36034.5011 T*S(rot)=     7.11 kcal/mol T*S(tot)=    23.23 kcal/mol
 sn= 6  qrot/sn=   30028.7509 T*S(rot)=     7.00 kcal/mol T*S(tot)=    23.13 kcal/mol
 sn= 7  qrot/sn=   25738.9294 T*S(rot)=     6.91 kcal/mol T*S(tot)=    23.04 kcal/mol
 sn= 8  qrot/sn=   22521.5632 T*S(rot)=     6.83 kcal/mol T*S(tot)=    22.96 kcal/mol
 sn= 9  qrot/sn=   20019.1673 T*S(rot)=     6.76 kcal/mol T*S(tot)=    22.89 kcal/mol
 sn=10  qrot/sn=   18017.2506 T*S(rot)=     6.69 kcal/mol T*S(tot)=    22.82 kcal/mol
 sn=11  qrot/sn=   16379.3187 T*S(rot)=     6.64 kcal/mol T*S(tot)=    22.77 kcal/mol
 sn=12  qrot/sn=   15014.3755 T*S(rot)=     6.59 kcal/mol T*S(tot)=    22.72 kcal/mol

-------------------
GIBBS FREE ENTHALPY
-------------------

The Gibbs free enthalpy is G = H - T*S

Total enthalpy                    ...   -341.84050667 Eh
Total entropy correction          ...     -0.03750922 Eh    -23.54 kcal/mol
-----------------------------------------------------------------------
Final Gibbs free enthalpy         ...   -341.87801590 Eh

For completeness - the Gibbs free enthalpy minus the electronic energy
G-E(el)                           ...      0.11052033 Eh     69.35 kcal/mol

                             ****ORCA TERMINATED NORMALLY****
TOTAL RUN TIME: 0 days 0 hours 29 minutes 1 seconds 734 msec
