                         Program Version 3.0.3 - RELEASE   -
|  1> ! NORI PBE0 def2-TZVP UseSym TightOPT Freq TightSCF Grid3 FinalGrid5 XYZFile
|  2> % pal
|  3>     nprocs 8
|  4> end
|  5> %method
|  6>     SymThresh 5.0e-2
|  7> end
|  8> % geom
|  9>     MaxIter 10
| 10> end
| 11> % maxcore 2000
| 12> % output
| 13>     printlevel mini
| 14>     print[ P_Basis ] 0
| 15>     print[ P_SCFInfo ] 1
| 16>     print[ P_SCFIterInfo ] 1
| 17>     print[ P_OrbEn ] 0
| 18>     print[ P_Cartesian ] 0
| 19> end
| 20> % elprop
| 21>     Dipole false
| 22> end
| 23> *xyz 1 1
| 24>  C        0.9484748375    -0.1110245043    -0.0778237214
| 25>  C        2.4143802342     0.0211452206     0.0203677162
| 26>  C        3.2589418806     1.0699633332     0.0380951397
| 27>  O        2.9343671275     2.3371176231    -0.0368436349
| 28>  N        4.6105861758     0.6861281988     0.1501365164
| 29>  C        4.6543883635    -0.5658494183     0.2041732596
| 30>  N        3.2914499694    -1.1529793791     0.1299187655
| 31>  H        0.5173019698     0.8883738400    -0.1369256746
| 32>  H        0.5155227857    -0.6074591633     0.7960947053
| 33>  H        0.6376260760    -0.6592990845    -0.9724804864
| 34>  H        3.7232126339     2.8946734237    -0.0020406037
| 35>  H        5.5142954990    -1.2173137414     0.2921330143
| 36>  H        3.2129129035    -1.7823863225    -0.6795510540
| 37>  H        3.0944095436    -1.7185900261     0.9659360580
| 38> *
| 39>
| 40>                          ****END OF INPUT****
 Total Charge           Charge          ....    1
 Multiplicity           Mult            ....    1
 Number of Electrons    NEL             ....   52
FINAL SINGLE POINT ENERGY      -340.814766987005

CARTESIAN COORDINATES (ANGSTROEM)
---------------------------------
  C     -2.222132   -0.000932   -0.226364
  C     -0.747136   -0.000099   -0.243637
  C      0.198680   -0.000253    0.715088
  O      0.000124   -0.000584    2.010216
  N      1.508872    0.000057    0.195204
  C      1.429091    0.000606   -1.056217
  N      0.011651    0.000908   -1.502176
  H     -2.552890   -0.012165    0.812355
  H     -2.643901   -0.882836   -0.717938
  H     -2.645413    0.890456   -0.699232
  H      0.841974   -0.001854    2.485268
  H      2.222415    0.000882   -1.792558
  H     -0.184491    0.827333   -2.081818
  H     -0.185181   -0.823479   -2.084387

FINAL SINGLE POINT ENERGY      -340.814767332493
                    ***********************HURRAY********************
 Multiplicity           Mult            ....    1
 Number of Electrons    NEL             ....   52
 Basis Dimension        Dim             ....  259
FINAL SINGLE POINT ENERGY      -340.814767568447

VIBRATIONAL FREQUENCIES
-----------------------

   0:         0.00 cm**-1
   1:         0.00 cm**-1
   2:         0.00 cm**-1
   3:         0.00 cm**-1
   4:         0.00 cm**-1
   5:         0.00 cm**-1
   6:       140.71 cm**-1
   7:       191.92 cm**-1
   8:       251.33 cm**-1
   9:       282.43 cm**-1
  10:       401.04 cm**-1
  11:       435.79 cm**-1
  12:       454.71 cm**-1
  13:       629.94 cm**-1
  14:       694.74 cm**-1
  15:       729.26 cm**-1
  16:       787.24 cm**-1
  17:       861.39 cm**-1
  18:       916.90 cm**-1
  19:       932.65 cm**-1
  20:       954.89 cm**-1
  21:      1059.98 cm**-1
  22:      1065.55 cm**-1
  23:      1176.01 cm**-1
  24:      1186.43 cm**-1
  25:      1240.58 cm**-1
  26:      1297.93 cm**-1
  27:      1323.70 cm**-1
  28:      1410.39 cm**-1
  29:      1452.61 cm**-1
  30:      1464.98 cm**-1
  31:      1474.34 cm**-1
  32:      1586.70 cm**-1
  33:      1699.75 cm**-1
  34:      1796.86 cm**-1
  35:      3046.73 cm**-1
  36:      3107.84 cm**-1
  37:      3156.84 cm**-1
  38:      3254.00 cm**-1
  39:      3373.25 cm**-1
  40:      3418.52 cm**-1
  41:      3806.27 cm**-1

IR SPECTRUM
-----------

 Mode    freq (cm**-1)   T**2         TX         TY         TZ
-------------------------------------------------------------------
   6:       140.71    0.322315  (  0.006941   0.567685   0.001120)
   7:       191.92    0.003478  (  0.000528  -0.058947  -0.001779)
   8:       251.33    2.151863  (  1.151106  -0.008383   0.909257)
   9:       282.43    7.161186  ( -0.006038   2.676021   0.007979)
  10:       401.04  145.911491  (  0.019433  12.079364   0.009132)
  11:       435.79    6.705522  ( -0.013179  -2.589468   0.002145)
  12:       454.71   20.619077  ( -3.005607   0.029313   3.403608)
  13:       629.94    5.142256  ( -0.311535  -0.003154   2.246150)
  14:       694.74    0.003811  (  0.003807   0.061612   0.000077)
  15:       729.26    2.192193  (  1.449898  -0.000273   0.299981)
  16:       787.24   25.804928  ( -0.000929  -5.079854   0.003355)
  17:       861.39    5.584998  (  2.338871   0.003688   0.338628)
  18:       916.90    1.713205  ( -1.193395   0.002518  -0.537594)
  19:       932.65    1.819415  (  0.006601  -1.348839   0.002151)
  20:       954.89    0.598185  (  0.771683  -0.000524   0.051859)
  21:      1059.98    0.118645  (  0.026726   0.317980   0.129689)
  22:      1065.55   76.366436  ( -0.115704  -0.009192   8.738018)
  23:      1176.01    0.273375  ( -0.000665  -0.522611   0.015895)
  24:      1186.43   10.173599  (  3.156628   0.003441   0.457479)
  25:      1240.58   57.661639  (  6.210360   0.000990   4.369561)
  26:      1297.93   77.467330  (  6.244998   0.006890  -6.202200)
  27:      1323.70   87.633398  (  4.790479   0.005539  -8.042679)
  28:      1410.39   79.242684  ( -1.135609   0.024063  -8.829071)
  29:      1452.61  142.775334  (  4.603344  -0.051554  11.026418)
  30:      1464.98   17.538240  (  0.071250   4.183331   0.181386)
  31:      1474.34    5.832522  ( -2.100541   0.040651  -1.191050)
  32:      1586.70   57.450887  (  2.441534  -0.013828   7.175626)
  33:      1699.75    4.947098  (  2.034566   0.001789   0.898686)
  34:      1796.86  175.853868  ( -1.261726   0.008846 -13.200827)
  35:      3046.73    2.824902  (  0.607825  -0.004733   1.566980)
  36:      3107.84    1.369741  (  0.003151   1.170162   0.021268)
  37:      3156.84    1.846473  (  0.921358   0.016118  -0.998655)
  38:      3254.00   30.199530  ( -4.916850  -0.002701   2.454406)
  39:      3373.25   86.065563  (  2.982991  -0.117973   8.783701)
  40:      3418.52  103.868887  (  0.028629  10.191013   0.106437)
  41:      3806.27  247.108968  (-10.381083   0.017185 -11.804312)

--------------------------
THERMOCHEMISTRY AT 298.15K
--------------------------

Temperature         ... 298.15 K
Pressure            ... 1.00 atm
Total Mass          ... 99.11 AMU

Throughout the following assumptions are being made:
  (1) The electronic state is orbitally nondegenerate
  (2) There are no thermally accessible electronically excited states
  (3) Hindered rotations indicated by low frequency modes) are not
      treated as such but are treated as vibrations and this may
      case some error
  (4) All equations used are the standard statistical mechanics
      equations for an ideal gas
  (5) All vibrations are strinctly harmonic

------------
INNER ENERGY
------------

The inner energy is: U= E(el) + E(ZPE) + E(vib) + E(rot) + E(trans)
    E(el)   - is the total energy from the electronic structure calculation
              = E(kin-el) + E(nuc-el) + E(el-el) + E(nuc-nuc)
    E(ZPE)  - the the zero temperature vibrational energy from the frequency calculation
    E(vib)  - the the finite temperature correction to E(ZPE) due to population
              of excietd vibrational states
    E(rot)  - is the rotational thermal energy
    E(trans)- is the translational thermal energy

Summary of contributions to the inner energy U:
Electronic energy                ...   -340.81476757 Eh
Zero point energy                ...      0.11633284 Eh      73.00 kcal/mol
Thermal vibrational correction   ...      0.00381282 Eh       2.39 kcal/mol
Thermal rotational correction    ...      0.00141627 Eh       0.89 kcal/mol
Thermal translational correction ...      0.00141627 Eh       0.89 kcal/mol
-----------------------------------------------------------------------
Total thermal energy                   -340.69178936 Eh

Summary of corrections to the electronic energy:
(perhaps to be used in another calculation)
Total thermal correction                  0.00664537 Eh       4.17 kcal/mol
Non-thermal (ZPE) correction              0.11633284 Eh      73.00 kcal/mol
-----------------------------------------------------------------------
Total correction                          0.12297821 Eh      77.17 kcal/mol

--------
ENTHALPY
--------

The enthalpy is H = U + kB*T
                kB is Boltzmann's constant
Total free energy                 ...   -340.69178936 Eh
Thermal Enthalpy correction       ...      0.00094421 Eh       0.59 kcal/mol
-----------------------------------------------------------------------
Total Enthalpy                    ...   -340.69084515 Eh

-------
ENTROPY
-------

The entropy contributions are T*S = T*(S(el)+S(vib)+S(rot)+S(trans)
     S(el)   - electronic entropy
     S(vib)  - vibrational entropy
     S(rot)  - rotational entropy
     S(trans)- translational entropy
The entropies will be listed as mutliplied by the temperature to get
units of energy

Electronic entropy                ...      0.00000000 Eh      0.00 kcal/mol
Vibrational entropy               ...      0.00615458 Eh      3.86 kcal/mol
Rotational entropy                ...      0.01185146 Eh      7.44 kcal/mol
Translational entropy             ...      0.01885862 Eh     11.83 kcal/mol
-----------------------------------------------------------------------
Final entropy term                ...      0.03686466 Eh     23.13 kcal/mol

CAUTION: The rotational entropy is not quite correctly treated here
         because it includes a symmetry number that is not yet correctly
         implemented in ORCA!
For a nonlinear molecule the correct rotational entropy is:
    S(rot) = R*(ln(qrot/sn)+1.5)
    R    = 8.31441 J/mol/K = 1.987191683e-3 kcal/mol/K
    qrot = 189229.5160193
    sn is the rotational symmetry number. We have assumed 3 here
       if it is different for your molecule then you should correct
       the printed rotational entropy by manually evaluating the equation
       as given above

For convenience we print out the resulting values for sn=1 - 12:
 sn= 1  qrot/sn=  189229.5160 T*S(rot)=     8.09 kcal/mol T*S(tot)=    23.78 kcal/mol
 sn= 2  qrot/sn=   94614.7580 T*S(rot)=     7.68 kcal/mol T*S(tot)=    23.37 kcal/mol
 sn= 3  qrot/sn=   63076.5053 T*S(rot)=     7.44 kcal/mol T*S(tot)=    23.13 kcal/mol
 sn= 4  qrot/sn=   47307.3790 T*S(rot)=     7.27 kcal/mol T*S(tot)=    22.96 kcal/mol
 sn= 5  qrot/sn=   37845.9032 T*S(rot)=     7.13 kcal/mol T*S(tot)=    22.83 kcal/mol
 sn= 6  qrot/sn=   31538.2527 T*S(rot)=     7.03 kcal/mol T*S(tot)=    22.72 kcal/mol
 sn= 7  qrot/sn=   27032.7880 T*S(rot)=     6.93 kcal/mol T*S(tot)=    22.63 kcal/mol
 sn= 8  qrot/sn=   23653.6895 T*S(rot)=     6.86 kcal/mol T*S(tot)=    22.55 kcal/mol
 sn= 9  qrot/sn=   21025.5018 T*S(rot)=     6.79 kcal/mol T*S(tot)=    22.48 kcal/mol
 sn=10  qrot/sn=   18922.9516 T*S(rot)=     6.72 kcal/mol T*S(tot)=    22.42 kcal/mol
 sn=11  qrot/sn=   17202.6833 T*S(rot)=     6.67 kcal/mol T*S(tot)=    22.36 kcal/mol
 sn=12  qrot/sn=   15769.1263 T*S(rot)=     6.62 kcal/mol T*S(tot)=    22.31 kcal/mol

-------------------
GIBBS FREE ENTHALPY
-------------------

The Gibbs free enthalpy is G = H - T*S

Total enthalpy                    ...   -340.69084515 Eh
Total entropy correction          ...     -0.03686466 Eh    -23.13 kcal/mol
-----------------------------------------------------------------------
Final Gibbs free enthalpy         ...   -340.72770981 Eh

For completeness - the Gibbs free enthalpy minus the electronic energy
G-E(el)                           ...      0.08705775 Eh     54.63 kcal/mol

                             ****ORCA TERMINATED NORMALLY****
TOTAL RUN TIME: 0 days 0 hours 22 minutes 25 seconds 647 msec
