                         Program Version 3.0.3 - RELEASE   -
|  1> ! NORI PBE0 def2-TZVP UseSym TightOPT Freq TightSCF Grid3 FinalGrid5 XYZFile
|  2> % pal
|  3>     nprocs 8
|  4> end
|  5> %method
|  6>     SymThresh 5.0e-2
|  7> end
|  8> % geom
|  9>     MaxIter 10
| 10> end
| 11> % maxcore 2000
| 12> % output
| 13>     printlevel mini
| 14>     print[ P_Basis ] 0
| 15>     print[ P_SCFInfo ] 1
| 16>     print[ P_SCFIterInfo ] 1
| 17>     print[ P_OrbEn ] 0
| 18>     print[ P_Cartesian ] 0
| 19> end
| 20> % elprop
| 21>     Dipole false
| 22> end
| 23> *xyz 1 1
| 24>  C        1.0078997761    -0.0631366486     0.2566284611
| 25>  C        2.4202049095     0.1035468298    -0.1616879281
| 26>  N        3.1108618689    -0.8363565511    -0.6807929738
| 27>  O        4.3862797726    -0.4201823030    -0.9494771982
| 28>  C        4.6070226529     0.8083902487    -0.2561504802
| 29>  C        3.2234397261     1.3818690415    -0.1054921397
| 30>  N        2.8432046812     2.2239078281    -1.3253794195
| 31>  H        0.6766869482    -1.0753013550     0.0291294056
| 32>  H        0.3380182844     0.6376584980    -0.2521514798
| 33>  H        0.9003106968     0.1073471653     1.3314208908
| 34>  H        5.3224628517     1.4090685670    -0.8204535716
| 35>  H        5.0176319797     0.5937671635     0.7357881087
| 36>  H        3.0703852585     2.0119970684     0.7689335581
| 37>  H        3.0349824655     1.6933308521    -2.1803482100
| 38>  H        3.3735432157     3.0970745773    -1.3652265455
| 39>  H        1.8481449122     2.4581890181    -1.3216304779
| 40> *
| 41>
| 42>                          ****END OF INPUT****
 Total Charge           Charge          ....    1
 Multiplicity           Mult            ....    1
 Number of Electrons    NEL             ....   54
FINAL SINGLE POINT ENERGY      -341.992753555387

CARTESIAN COORDINATES (ANGSTROEM)
---------------------------------
  C      1.675132   -0.280035   -1.526112
  C      0.718461   -0.203935   -0.396179
  N      1.078545   -0.000909    0.811846
  O      0.000270   -0.000929    1.654232
  C     -1.111618   -0.556215    0.951150
  C     -0.787008   -0.284843   -0.493442
  N     -1.299749    1.091975   -0.921371
  H      2.687093   -0.114318   -1.159519
  H      1.465421    0.466370   -2.299532
  H      1.632129   -1.262646   -2.003633
  H     -2.030948   -0.109636    1.334077
  H     -1.138730   -1.638117    1.116812
  H     -1.188566   -1.002803   -1.206286
  H     -1.001625    1.795421   -0.239040
  H     -2.320365    1.116222   -0.980605
  H     -0.923517    1.363538   -1.832445

FINAL SINGLE POINT ENERGY      -341.992754013857
                    ***********************HURRAY********************
 Multiplicity           Mult            ....    1
 Number of Electrons    NEL             ....   54
 Basis Dimension        Dim             ....  271
FINAL SINGLE POINT ENERGY      -341.992754214896

VIBRATIONAL FREQUENCIES
-----------------------

   0:         0.00 cm**-1
   1:         0.00 cm**-1
   2:         0.00 cm**-1
   3:         0.00 cm**-1
   4:         0.00 cm**-1
   5:         0.00 cm**-1
   6:       103.06 cm**-1
   7:       159.96 cm**-1
   8:       214.86 cm**-1
   9:       224.33 cm**-1
  10:       300.95 cm**-1
  11:       367.42 cm**-1
  12:       383.38 cm**-1
  13:       595.48 cm**-1
  14:       643.63 cm**-1
  15:       785.08 cm**-1
  16:       796.19 cm**-1
  17:       852.63 cm**-1
  18:       946.93 cm**-1
  19:       960.49 cm**-1
  20:       980.61 cm**-1
  21:      1009.99 cm**-1
  22:      1028.36 cm**-1
  23:      1053.35 cm**-1
  24:      1100.08 cm**-1
  25:      1139.04 cm**-1
  26:      1218.79 cm**-1
  27:      1243.97 cm**-1
  28:      1348.13 cm**-1
  29:      1360.80 cm**-1
  30:      1387.81 cm**-1
  31:      1421.54 cm**-1
  32:      1457.35 cm**-1
  33:      1469.39 cm**-1
  34:      1479.15 cm**-1
  35:      1493.77 cm**-1
  36:      1651.93 cm**-1
  37:      1654.23 cm**-1
  38:      1694.22 cm**-1
  39:      3046.28 cm**-1
  40:      3068.95 cm**-1
  41:      3108.62 cm**-1
  42:      3137.53 cm**-1
  43:      3156.54 cm**-1
  44:      3169.37 cm**-1
  45:      3407.25 cm**-1
  46:      3491.54 cm**-1
  47:      3504.68 cm**-1

IR SPECTRUM
-----------

 Mode    freq (cm**-1)   T**2         TX         TY         TZ
-------------------------------------------------------------------
   6:       103.06    8.702348  (  1.480819  -1.484365   2.075135)
   7:       159.96    0.513471  (  0.115125   0.585366  -0.396943)
   8:       214.86    9.012527  ( -2.838820   0.964779   0.151097)
   9:       224.33    5.380075  (  2.244654  -0.551142   0.194546)
  10:       300.95    9.252708  (  1.169621  -0.897415  -2.660703)
  11:       367.42    6.144735  ( -0.630833   0.853081  -2.240321)
  12:       383.38    1.635886  (  0.333671  -1.056036   0.639794)
  13:       595.48    4.818604  ( -1.744175   0.742806   1.106661)
  14:       643.63    6.204599  (  1.528844  -0.050017  -1.965892)
  15:       785.08   12.614892  (  1.536704  -2.194139   2.332206)
  16:       796.19    2.225071  ( -1.055306  -0.091423  -1.050258)
  17:       852.63    2.239194  ( -0.023535   1.132316  -0.978008)
  18:       946.93   14.793151  ( -2.243821   0.017614  -3.123797)
  19:       960.49   14.339846  ( -1.113154   0.766831   3.537330)
  20:       980.61   35.142501  (  3.261303  -0.436771  -4.931088)
  21:      1009.99   49.134290  (  0.388764   2.181882  -6.650003)
  22:      1028.36   23.066000  (  3.092019   2.346815   2.828052)
  23:      1053.35    6.115644  ( -0.987855   0.945377   2.060594)
  24:      1100.08   21.786543  (  3.835473   2.211936  -1.477508)
  25:      1139.04   20.742388  ( -3.166409  -0.114183   3.271576)
  26:      1218.79    3.168197  (  0.177254  -1.078005  -1.405234)
  27:      1243.97    6.118866  (  1.857859  -1.242606  -1.059792)
  28:      1348.13   16.193780  ( -2.734709  -0.905382   2.809881)
  29:      1360.80    1.152214  (  0.672779  -0.209392   0.809776)
  30:      1387.81   14.936938  (  1.995622  -0.763779   3.220415)
  31:      1421.54   16.255855  ( -3.230035   0.279687   2.396769)
  32:      1457.35   11.718172  ( -2.229818  -1.366661  -2.208693)
  33:      1469.39    6.328121  ( -0.844720   1.457543  -1.868191)
  34:      1479.15   53.530619  (  0.334920   6.311910  -3.684867)
  35:      1493.77  134.393490  ( -5.063384  10.254027  -1.900147)
  36:      1651.93   36.183350  ( -3.933132  -0.042527   4.551046)
  37:      1654.23   47.426213  (  4.483985   2.459469   4.612060)
  38:      1694.22    3.789324  (  0.022284   0.573126  -1.860203)
  39:      3046.28    6.463419  (  1.093754  -1.292814   1.896247)
  40:      3068.95    3.255437  (  1.678921   0.359543   0.554427)
  41:      3108.62    2.755508  ( -0.169083   1.347128  -0.955073)
  42:      3137.53    1.432191  (  1.071304  -0.518450   0.125334)
  43:      3156.54    0.244992  (  0.056783   0.488475  -0.056212)
  44:      3169.37    0.689903  ( -0.668456  -0.421096  -0.256414)
  45:      3407.25   47.538808  (  2.490396  -6.284554   1.356875)
  46:      3491.54   94.919996  ( -4.926858  -3.632829  -7.579487)
  47:      3504.68   95.095098  ( -8.107409  -1.229016   5.277740)

--------------------------
THERMOCHEMISTRY AT 298.15K
--------------------------

Temperature         ... 298.15 K
Pressure            ... 1.00 atm
Total Mass          ... 101.13 AMU

Throughout the following assumptions are being made:
  (1) The electronic state is orbitally nondegenerate
  (2) There are no thermally accessible electronically excited states
  (3) Hindered rotations indicated by low frequency modes) are not
      treated as such but are treated as vibrations and this may
      case some error
  (4) All equations used are the standard statistical mechanics
      equations for an ideal gas
  (5) All vibrations are strinctly harmonic

------------
INNER ENERGY
------------

The inner energy is: U= E(el) + E(ZPE) + E(vib) + E(rot) + E(trans)
    E(el)   - is the total energy from the electronic structure calculation
              = E(kin-el) + E(nuc-el) + E(el-el) + E(nuc-nuc)
    E(ZPE)  - the the zero temperature vibrational energy from the frequency calculation
    E(vib)  - the the finite temperature correction to E(ZPE) due to population
              of excietd vibrational states
    E(rot)  - is the rotational thermal energy
    E(trans)- is the translational thermal energy

Summary of contributions to the inner energy U:
Electronic energy                ...   -341.99275421 Eh
Zero point energy                ...      0.14037533 Eh      88.09 kcal/mol
Thermal vibrational correction   ...      0.00439449 Eh       2.76 kcal/mol
Thermal rotational correction    ...      0.00141627 Eh       0.89 kcal/mol
Thermal translational correction ...      0.00141627 Eh       0.89 kcal/mol
-----------------------------------------------------------------------
Total thermal energy                   -341.84515185 Eh

Summary of corrections to the electronic energy:
(perhaps to be used in another calculation)
Total thermal correction                  0.00722704 Eh       4.54 kcal/mol
Non-thermal (ZPE) correction              0.14037533 Eh      88.09 kcal/mol
-----------------------------------------------------------------------
Total correction                          0.14760237 Eh      92.62 kcal/mol

--------
ENTHALPY
--------

The enthalpy is H = U + kB*T
                kB is Boltzmann's constant
Total free energy                 ...   -341.84515185 Eh
Thermal Enthalpy correction       ...      0.00094421 Eh       0.59 kcal/mol
-----------------------------------------------------------------------
Total Enthalpy                    ...   -341.84420764 Eh

-------
ENTROPY
-------

The entropy contributions are T*S = T*(S(el)+S(vib)+S(rot)+S(trans)
     S(el)   - electronic entropy
     S(vib)  - vibrational entropy
     S(rot)  - rotational entropy
     S(trans)- translational entropy
The entropies will be listed as mutliplied by the temperature to get
units of energy

Electronic entropy                ...      0.00000000 Eh      0.00 kcal/mol
Vibrational entropy               ...      0.00748285 Eh      4.70 kcal/mol
Rotational entropy                ...      0.01188692 Eh      7.46 kcal/mol
Translational entropy             ...      0.01888714 Eh     11.85 kcal/mol
-----------------------------------------------------------------------
Final entropy term                ...      0.03825691 Eh     24.01 kcal/mol

CAUTION: The rotational entropy is not quite correctly treated here
         because it includes a symmetry number that is not yet correctly
         implemented in ORCA!
For a nonlinear molecule the correct rotational entropy is:
    S(rot) = R*(ln(qrot/sn)+1.5)
    R    = 8.31441 J/mol/K = 1.987191683e-3 kcal/mol/K
    qrot = 196471.7884788
    sn is the rotational symmetry number. We have assumed 3 here
       if it is different for your molecule then you should correct
       the printed rotational entropy by manually evaluating the equation
       as given above

For convenience we print out the resulting values for sn=1 - 12:
 sn= 1  qrot/sn=  196471.7885 T*S(rot)=     8.11 kcal/mol T*S(tot)=    24.66 kcal/mol
 sn= 2  qrot/sn=   98235.8942 T*S(rot)=     7.70 kcal/mol T*S(tot)=    24.25 kcal/mol
 sn= 3  qrot/sn=   65490.5962 T*S(rot)=     7.46 kcal/mol T*S(tot)=    24.01 kcal/mol
 sn= 4  qrot/sn=   49117.9471 T*S(rot)=     7.29 kcal/mol T*S(tot)=    23.84 kcal/mol
 sn= 5  qrot/sn=   39294.3577 T*S(rot)=     7.16 kcal/mol T*S(tot)=    23.70 kcal/mol
 sn= 6  qrot/sn=   32745.2981 T*S(rot)=     7.05 kcal/mol T*S(tot)=    23.60 kcal/mol
 sn= 7  qrot/sn=   28067.3984 T*S(rot)=     6.96 kcal/mol T*S(tot)=    23.50 kcal/mol
 sn= 8  qrot/sn=   24558.9736 T*S(rot)=     6.88 kcal/mol T*S(tot)=    23.43 kcal/mol
 sn= 9  qrot/sn=   21830.1987 T*S(rot)=     6.81 kcal/mol T*S(tot)=    23.36 kcal/mol
 sn=10  qrot/sn=   19647.1788 T*S(rot)=     6.75 kcal/mol T*S(tot)=    23.29 kcal/mol
 sn=11  qrot/sn=   17861.0717 T*S(rot)=     6.69 kcal/mol T*S(tot)=    23.24 kcal/mol
 sn=12  qrot/sn=   16372.6490 T*S(rot)=     6.64 kcal/mol T*S(tot)=    23.19 kcal/mol

-------------------
GIBBS FREE ENTHALPY
-------------------

The Gibbs free enthalpy is G = H - T*S

Total enthalpy                    ...   -341.84420764 Eh
Total entropy correction          ...     -0.03825691 Eh    -24.01 kcal/mol
-----------------------------------------------------------------------
Final Gibbs free enthalpy         ...   -341.88246455 Eh

For completeness - the Gibbs free enthalpy minus the electronic energy
G-E(el)                           ...      0.11028967 Eh     69.21 kcal/mol

                             ****ORCA TERMINATED NORMALLY****
TOTAL RUN TIME: 0 days 0 hours 26 minutes 11 seconds 542 msec
