                         Program Version 3.0.3 - RELEASE   -
|  1> ! NORI PBE0 def2-TZVP UseSym TightOPT Freq TightSCF Grid3 FinalGrid5 XYZFile
|  2> % pal
|  3>     nprocs 8
|  4> end
|  5> %method
|  6>     SymThresh 5.0e-2
|  7> end
|  8> % geom
|  9>     MaxIter 10
| 10> end
| 11> % maxcore 2000
| 12> % output
| 13>     printlevel mini
| 14>     print[ P_Basis ] 0
| 15>     print[ P_SCFInfo ] 1
| 16>     print[ P_SCFIterInfo ] 1
| 17>     print[ P_OrbEn ] 0
| 18>     print[ P_Cartesian ] 0
| 19> end
| 20> % elprop
| 21>     Dipole false
| 22> end
| 23> *xyz 1 1
| 24>  C        0.9628685727    -0.0728352742     0.0286824439
| 25>  C        2.4482188972     0.0509783241    -0.0395975363
| 26>  O        3.0557535693    -0.0928912823    -1.3218437997
| 27>  C        3.1043197187     1.1740285289    -0.7193912245
| 28>  C        4.4915131851     1.5831104688    -0.3692575369
| 29>  C        5.1988917816     2.6334937948    -1.1178089198
| 30>  N        4.6611210920     2.9446307872     0.2307831462
| 31>  H        0.6763685160    -1.1247082972    -0.0208980640
| 32>  H        0.4842179291     0.4527535088    -0.7986477122
| 33>  H        0.5901080215     0.3321958383     0.9720615450
| 34>  H        3.0105195530    -0.4398012178     0.7547113090
| 35>  H        2.4911463465     1.9456875896    -1.1912253125
| 36>  H        5.0945427641     0.8317836210     0.1289961028
| 37>  H        4.6832599776     3.1460227029    -1.9205041096
| 38>  H        6.2801443493     2.6266989988    -1.1702797808
| 39>  H        3.8419394518     3.5406648126     0.2929234179
| 40>  H        5.3138362743     3.0619370958     0.9981660315
| 41> *
| 42>
| 43>                          ****END OF INPUT****
 Total Charge           Charge          ....    1
 Multiplicity           Mult            ....    1
 Number of Electrons    NEL             ....   54
FINAL SINGLE POINT ENERGY      -325.951398034677

CARTESIAN COORDINATES (ANGSTROEM)
---------------------------------
  C     -2.475248    0.002859    1.300965
  C     -1.137688    0.531870    0.903891
  O     -0.000057   -0.000224    1.579424
  C     -0.144942   -0.301918    0.216260
  C      0.928149    0.305721   -0.616380
  C      1.993469   -0.510173   -1.218929
  N      0.898576   -0.000279   -2.082090
  H     -2.787236    0.454937    2.244155
  H     -2.448563   -1.079817    1.431599
  H     -3.223221    0.253038    0.545394
  H     -1.072371    1.608073    0.743953
  H     -0.387429   -1.342069   -0.014528
  H      1.150358    1.347803   -0.414023
  H      1.974822   -1.584561   -1.082200
  H      2.960186   -0.070470   -1.427542
  H      0.204297   -0.662013   -2.414220
  H      1.105637    0.743191   -2.740100

FINAL SINGLE POINT ENERGY      -325.951398562886
                    ***********************HURRAY********************
 Multiplicity           Mult            ....    1
 Number of Electrons    NEL             ....   54
 Basis Dimension        Dim             ....  277
FINAL SINGLE POINT ENERGY      -325.951398792440

VIBRATIONAL FREQUENCIES
-----------------------

   0:         0.00 cm**-1
   1:         0.00 cm**-1
   2:         0.00 cm**-1
   3:         0.00 cm**-1
   4:         0.00 cm**-1
   5:         0.00 cm**-1
   6:        63.04 cm**-1
   7:       153.57 cm**-1
   8:       177.93 cm**-1
   9:       208.72 cm**-1
  10:       357.49 cm**-1
  11:       370.75 cm**-1
  12:       406.53 cm**-1
  13:       521.81 cm**-1
  14:       798.27 cm**-1
  15:       820.61 cm**-1
  16:       841.92 cm**-1
  17:       873.61 cm**-1
  18:       894.09 cm**-1
  19:       917.17 cm**-1
  20:       969.08 cm**-1
  21:      1025.73 cm**-1
  22:      1031.44 cm**-1
  23:      1039.63 cm**-1
  24:      1088.76 cm**-1
  25:      1157.31 cm**-1
  26:      1166.41 cm**-1
  27:      1170.14 cm**-1
  28:      1180.64 cm**-1
  29:      1218.41 cm**-1
  30:      1249.77 cm**-1
  31:      1263.46 cm**-1
  32:      1288.19 cm**-1
  33:      1338.40 cm**-1
  34:      1405.33 cm**-1
  35:      1427.72 cm**-1
  36:      1467.41 cm**-1
  37:      1480.75 cm**-1
  38:      1493.63 cm**-1
  39:      1526.60 cm**-1
  40:      1632.84 cm**-1
  41:      3064.27 cm**-1
  42:      3094.19 cm**-1
  43:      3121.89 cm**-1
  44:      3142.63 cm**-1
  45:      3155.17 cm**-1
  46:      3170.32 cm**-1
  47:      3204.13 cm**-1
  48:      3273.98 cm**-1
  49:      3510.10 cm**-1
  50:      3613.38 cm**-1

IR SPECTRUM
-----------

 Mode    freq (cm**-1)   T**2         TX         TY         TZ
-------------------------------------------------------------------
   6:        63.04    0.518823  ( -0.647416  -0.215244  -0.230966)
   7:       153.57    1.817493  ( -1.238134   0.158350  -0.509355)
   8:       177.93    0.203429  (  0.436959  -0.094786   0.059258)
   9:       208.72    0.410830  (  0.356987  -0.522911   0.099770)
  10:       357.49    3.092264  (  1.153234   0.706503   1.123908)
  11:       370.75    6.170859  (  1.675959   0.016687  -1.833505)
  12:       406.53    1.338172  (  0.093557   0.382658   1.087654)
  13:       521.81   12.891142  (  2.704047   0.513364  -2.305587)
  14:       798.27   13.237579  (  0.224222  -1.253181   3.408349)
  15:       820.61    7.652325  ( -2.565629   0.656984   0.798903)
  16:       841.92    2.950112  ( -1.705801   0.169054  -0.108520)
  17:       873.61    4.389198  ( -1.398651  -0.738031   1.374148)
  18:       894.09   37.527321  (  2.889621  -1.234926   5.258552)
  19:       917.17   25.825855  (  1.628628   1.528472   4.564778)
  20:       969.08    6.865029  (  2.427830   0.435912  -0.883544)
  21:      1025.73   74.838581  ( -6.362655   5.064706   2.950248)
  22:      1031.44    2.258420  (  0.862019  -1.035586   0.665511)
  23:      1039.63   48.100732  ( -2.861256   2.260544   5.899482)
  24:      1088.76    1.459610  (  0.156775   0.781274  -0.908099)
  25:      1157.31    1.383869  ( -0.596072  -0.575551  -0.835050)
  26:      1166.41    3.445288  (  0.543676   0.507120   1.700745)
  27:      1170.14    2.155357  (  0.374472   1.389560  -0.290258)
  28:      1180.64    4.496358  ( -0.662156   0.450185   1.963477)
  29:      1218.41    0.532378  ( -0.701966   0.193054   0.048502)
  30:      1249.77    3.869214  (  1.415269   1.050517  -0.873294)
  31:      1263.46    2.117672  ( -0.362190  -0.924703  -1.063679)
  32:      1288.19   12.102983  (  2.868078  -1.834792   0.714598)
  33:      1338.40   11.318447  (  1.817918   0.078018  -2.829758)
  34:      1405.33    3.906840  ( -0.183362  -1.894302   0.533701)
  35:      1427.72   13.353883  ( -3.651650  -0.084494  -0.110433)
  36:      1467.41    4.937775  (  0.454291  -1.432197  -1.637134)
  37:      1480.75   10.745340  ( -1.517268   1.653221  -2.389581)
  38:      1493.63   13.471626  ( -2.262788   2.870291   0.335925)
  39:      1526.60   20.049260  ( -4.370298  -0.869648  -0.439852)
  40:      1632.84   64.428988  ( -2.490125  -0.308925  -7.624489)
  41:      3064.27    1.860992  (  1.270517   0.490527   0.078499)
  42:      3094.19    8.850623  ( -0.375219  -2.009780  -2.161161)
  43:      3121.89    8.783635  ( -0.630894  -2.697880   1.052165)
  44:      3142.63    2.456118  (  0.650409  -0.357253   1.380382)
  45:      3155.17    7.840932  (  0.568447  -2.720497   0.341604)
  46:      3170.32    4.147079  (  1.809697  -0.933784   0.011017)
  47:      3204.13    2.728597  (  0.286107   1.451484   0.734802)
  48:      3273.98    7.576242  (  1.534045   2.230283  -0.498785)
  49:      3510.10  111.310684  (  3.222874  -0.723448  10.019999)
  50:      3613.38  131.849611  (  5.990671   9.199496  -3.366116)

--------------------------
THERMOCHEMISTRY AT 298.15K
--------------------------

Temperature         ... 298.15 K
Pressure            ... 1.00 atm
Total Mass          ... 100.14 AMU

Throughout the following assumptions are being made:
  (1) The electronic state is orbitally nondegenerate
  (2) There are no thermally accessible electronically excited states
  (3) Hindered rotations indicated by low frequency modes) are not
      treated as such but are treated as vibrations and this may
      case some error
  (4) All equations used are the standard statistical mechanics
      equations for an ideal gas
  (5) All vibrations are strinctly harmonic

------------
INNER ENERGY
------------

The inner energy is: U= E(el) + E(ZPE) + E(vib) + E(rot) + E(trans)
    E(el)   - is the total energy from the electronic structure calculation
              = E(kin-el) + E(nuc-el) + E(el-el) + E(nuc-nuc)
    E(ZPE)  - the the zero temperature vibrational energy from the frequency calculation
    E(vib)  - the the finite temperature correction to E(ZPE) due to population
              of excietd vibrational states
    E(rot)  - is the rotational thermal energy
    E(trans)- is the translational thermal energy

Summary of contributions to the inner energy U:
Electronic energy                ...   -325.95139879 Eh
Zero point energy                ...      0.15121842 Eh      94.89 kcal/mol
Thermal vibrational correction   ...      0.00451809 Eh       2.84 kcal/mol
Thermal rotational correction    ...      0.00141627 Eh       0.89 kcal/mol
Thermal translational correction ...      0.00141627 Eh       0.89 kcal/mol
-----------------------------------------------------------------------
Total thermal energy                   -325.79282974 Eh

Summary of corrections to the electronic energy:
(perhaps to be used in another calculation)
Total thermal correction                  0.00735063 Eh       4.61 kcal/mol
Non-thermal (ZPE) correction              0.15121842 Eh      94.89 kcal/mol
-----------------------------------------------------------------------
Total correction                          0.15856905 Eh      99.50 kcal/mol

--------
ENTHALPY
--------

The enthalpy is H = U + kB*T
                kB is Boltzmann's constant
Total free energy                 ...   -325.79282974 Eh
Thermal Enthalpy correction       ...      0.00094421 Eh       0.59 kcal/mol
-----------------------------------------------------------------------
Total Enthalpy                    ...   -325.79188553 Eh

-------
ENTROPY
-------

The entropy contributions are T*S = T*(S(el)+S(vib)+S(rot)+S(trans)
     S(el)   - electronic entropy
     S(vib)  - vibrational entropy
     S(rot)  - rotational entropy
     S(trans)- translational entropy
The entropies will be listed as mutliplied by the temperature to get
units of energy

Electronic entropy                ...      0.00000000 Eh      0.00 kcal/mol
Vibrational entropy               ...      0.00807809 Eh      5.07 kcal/mol
Rotational entropy                ...      0.01204820 Eh      7.56 kcal/mol
Translational entropy             ...      0.01887324 Eh     11.84 kcal/mol
-----------------------------------------------------------------------
Final entropy term                ...      0.03899953 Eh     24.47 kcal/mol

CAUTION: The rotational entropy is not quite correctly treated here
         because it includes a symmetry number that is not yet correctly
         implemented in ORCA!
For a nonlinear molecule the correct rotational entropy is:
    S(rot) = R*(ln(qrot/sn)+1.5)
    R    = 8.31441 J/mol/K = 1.987191683e-3 kcal/mol/K
    qrot = 233069.4606541
    sn is the rotational symmetry number. We have assumed 3 here
       if it is different for your molecule then you should correct
       the printed rotational entropy by manually evaluating the equation
       as given above

For convenience we print out the resulting values for sn=1 - 12:
 sn= 1  qrot/sn=  233069.4607 T*S(rot)=     8.21 kcal/mol T*S(tot)=    25.12 kcal/mol
 sn= 2  qrot/sn=  116534.7303 T*S(rot)=     7.80 kcal/mol T*S(tot)=    24.71 kcal/mol
 sn= 3  qrot/sn=   77689.8202 T*S(rot)=     7.56 kcal/mol T*S(tot)=    24.47 kcal/mol
 sn= 4  qrot/sn=   58267.3652 T*S(rot)=     7.39 kcal/mol T*S(tot)=    24.30 kcal/mol
 sn= 5  qrot/sn=   46613.8921 T*S(rot)=     7.26 kcal/mol T*S(tot)=    24.17 kcal/mol
 sn= 6  qrot/sn=   38844.9101 T*S(rot)=     7.15 kcal/mol T*S(tot)=    24.06 kcal/mol
 sn= 7  qrot/sn=   33295.6372 T*S(rot)=     7.06 kcal/mol T*S(tot)=    23.97 kcal/mol
 sn= 8  qrot/sn=   29133.6826 T*S(rot)=     6.98 kcal/mol T*S(tot)=    23.89 kcal/mol
 sn= 9  qrot/sn=   25896.6067 T*S(rot)=     6.91 kcal/mol T*S(tot)=    23.82 kcal/mol
 sn=10  qrot/sn=   23306.9461 T*S(rot)=     6.85 kcal/mol T*S(tot)=    23.76 kcal/mol
 sn=11  qrot/sn=   21188.1328 T*S(rot)=     6.79 kcal/mol T*S(tot)=    23.70 kcal/mol
 sn=12  qrot/sn=   19422.4551 T*S(rot)=     6.74 kcal/mol T*S(tot)=    23.65 kcal/mol

-------------------
GIBBS FREE ENTHALPY
-------------------

The Gibbs free enthalpy is G = H - T*S

Total enthalpy                    ...   -325.79188553 Eh
Total entropy correction          ...     -0.03899953 Eh    -24.47 kcal/mol
-----------------------------------------------------------------------
Final Gibbs free enthalpy         ...   -325.83088506 Eh

For completeness - the Gibbs free enthalpy minus the electronic energy
G-E(el)                           ...      0.12051373 Eh     75.62 kcal/mol

                             ****ORCA TERMINATED NORMALLY****
TOTAL RUN TIME: 0 days 0 hours 26 minutes 37 seconds 249 msec
