                         Program Version 3.0.3 - RELEASE   -
|  1> ! NORI PBE0 def2-TZVP UseSym TightOPT Freq TightSCF Grid3 FinalGrid5 XYZFile
|  2> % pal
|  3>     nprocs 8
|  4> end
|  5> %method
|  6>     SymThresh 5.0e-2
|  7> end
|  8> % geom
|  9>     MaxIter 10
| 10> end
| 11> % maxcore 2000
| 12> % output
| 13>     printlevel mini
| 14>     print[ P_Basis ] 0
| 15>     print[ P_SCFInfo ] 1
| 16>     print[ P_SCFIterInfo ] 1
| 17>     print[ P_OrbEn ] 0
| 18>     print[ P_Cartesian ] 0
| 19> end
| 20> % elprop
| 21>     Dipole false
| 22> end
| 23> *xyz 1 1
| 24>  C        0.5821298276     0.0531291949    -0.4097879773
| 25>  C        1.9806062403     0.1737646375     0.0968466679
| 26>  O        2.8640346683    -0.9179303333    -0.1711246625
| 27>  C        3.1289053126     0.3260610170    -0.7945684140
| 28>  C        4.4154471700     0.9698371539    -0.3437445943
| 29>  C        5.5685567766     0.0741545677    -0.7446968650
| 30>  N        6.8691352107     0.5684812198    -0.1636871369
| 31>  H        0.0925620821     1.0297878203    -0.4056737562
| 32>  H        0.0049238186    -0.6155584630     0.2317973968
| 33>  H        0.5668031529    -0.3453864004    -1.4250059746
| 34>  H        2.0893462523     0.5713809927     1.1055019075
| 35>  H        2.9447528396     0.3446474854    -1.8689000942
| 36>  H        4.5151506797     1.9666730385    -0.7859578498
| 37>  H        4.3900395520     1.0787537843     0.7460348328
| 38>  H        5.4192776548    -0.9371516086    -0.3643651007
| 39>  H        5.7097562391     0.0305289934    -1.8255037899
| 40>  H        6.8203377174     0.5989754892     0.8573548948
| 41>  H        7.0840429843     1.5137299497    -0.4883596800
| 42>  H        7.6520818211    -0.0364585390    -0.4207298045
| 43> *
| 44>
| 45>                          ****END OF INPUT****
 Total Charge           Charge          ....    1
 Multiplicity           Mult            ....    1
 Number of Electrons    NEL             ....   56
FINAL SINGLE POINT ENERGY      -327.196546256252

CARTESIAN COORDINATES (ANGSTROEM)
---------------------------------
  C     -2.415693    0.186814    1.966833
  C     -1.271849    0.585594    1.095420
  O      0.000078    0.001302    1.386704
  C     -0.630820   -0.343175    0.166392
  C      0.112822    0.129578   -1.056825
  C      1.458132   -0.563635   -1.100072
  N      2.325871   -0.000499   -2.196895
  H     -3.363118    0.455591    1.494148
  H     -2.358498    0.706219    2.925325
  H     -2.407703   -0.887378    2.156201
  H     -1.207031    1.645274    0.849199
  H     -1.007818   -1.365026    0.121888
  H     -0.470743   -0.080372   -1.959504
  H      0.254418    1.213301   -0.983931
  H      1.997947   -0.412720   -0.164432
  H      1.372340   -1.633865   -1.292545
  H      2.480631    1.000541   -2.057275
  H      1.887487   -0.117641   -3.112935
  H      3.240383   -0.456161   -2.226904

FINAL SINGLE POINT ENERGY      -327.196546807306
                    ***********************HURRAY********************
 Multiplicity           Mult            ....    1
 Number of Electrons    NEL             ....   56
 Basis Dimension        Dim             ....  289
FINAL SINGLE POINT ENERGY      -327.196547174547

VIBRATIONAL FREQUENCIES
-----------------------

   0:         0.00 cm**-1
   1:         0.00 cm**-1
   2:         0.00 cm**-1
   3:         0.00 cm**-1
   4:         0.00 cm**-1
   5:         0.00 cm**-1
   6:        71.44 cm**-1
   7:        98.07 cm**-1
   8:       122.67 cm**-1
   9:       201.90 cm**-1
  10:       226.61 cm**-1
  11:       267.43 cm**-1
  12:       318.15 cm**-1
  13:       343.67 cm**-1
  14:       470.27 cm**-1
  15:       549.78 cm**-1
  16:       771.24 cm**-1
  17:       801.64 cm**-1
  18:       877.82 cm**-1
  19:       901.77 cm**-1
  20:       912.84 cm**-1
  21:       971.79 cm**-1
  22:       992.38 cm**-1
  23:      1029.88 cm**-1
  24:      1057.26 cm**-1
  25:      1083.46 cm**-1
  26:      1144.06 cm**-1
  27:      1162.31 cm**-1
  28:      1177.78 cm**-1
  29:      1194.31 cm**-1
  30:      1286.68 cm**-1
  31:      1296.81 cm**-1
  32:      1321.44 cm**-1
  33:      1353.63 cm**-1
  34:      1378.37 cm**-1
  35:      1411.60 cm**-1
  36:      1415.15 cm**-1
  37:      1466.17 cm**-1
  38:      1470.61 cm**-1
  39:      1480.65 cm**-1
  40:      1502.11 cm**-1
  41:      1508.66 cm**-1
  42:      1524.87 cm**-1
  43:      1659.48 cm**-1
  44:      1663.80 cm**-1
  45:      3045.10 cm**-1
  46:      3062.97 cm**-1
  47:      3094.26 cm**-1
  48:      3101.29 cm**-1
  49:      3117.33 cm**-1
  50:      3124.89 cm**-1
  51:      3139.45 cm**-1
  52:      3153.77 cm**-1
  53:      3163.77 cm**-1
  54:      3421.60 cm**-1
  55:      3503.34 cm**-1
  56:      3507.17 cm**-1

IR SPECTRUM
-----------

 Mode    freq (cm**-1)   T**2         TX         TY         TZ
-------------------------------------------------------------------
   6:        71.44   12.669646  (  0.028177   2.058035   2.904022)
   7:        98.07    0.511414  (  0.269501  -0.614291   0.247852)
   8:       122.67    9.558012  ( -0.745161   1.973743  -2.259886)
   9:       201.90    0.337984  (  0.446569  -0.195196  -0.316952)
  10:       226.61    0.074372  ( -0.061658   0.015725  -0.265186)
  11:       267.43    5.246296  ( -2.247675   0.340748   0.279539)
  12:       318.15    6.608601  ( -2.130180   0.805454   1.192551)
  13:       343.67    9.871468  (  2.744624   0.860021  -1.264465)
  14:       470.27    7.799563  (  2.162991   0.187626  -1.756653)
  15:       549.78    2.845835  ( -0.025819  -0.588156   1.580899)
  16:       771.24    4.384837  (  1.552973   1.229535   0.679231)
  17:       801.64   15.917861  ( -2.466458   2.243413   2.191243)
  18:       877.82   11.358546  (  3.018535  -1.417009   0.488954)
  19:       901.77   24.630412  (  4.946498  -0.343814  -0.210633)
  20:       912.84   13.905225  (  1.509846   1.072669   3.236506)
  21:       971.79   10.023476  ( -1.789792   0.313252  -2.592681)
  22:       992.38    5.097213  ( -0.387022   1.888391  -1.175332)
  23:      1029.88   10.193036  (  2.534149   0.224679   1.928897)
  24:      1057.26   28.728557  (  2.695910  -2.654958  -3.796291)
  25:      1083.46    4.783419  (  1.334667   0.117424   1.728668)
  26:      1144.06   15.229706  (  2.681378   0.155754  -2.831194)
  27:      1162.31   16.374429  ( -3.518755   1.548509  -1.262897)
  28:      1177.78    5.092530  (  0.474493   2.024773  -0.876175)
  29:      1194.31    1.857947  (  0.552517   0.691271   1.036734)
  30:      1286.68    5.925951  ( -2.271867   0.865585   0.123838)
  31:      1296.81    3.798960  (  1.117236  -1.033659  -1.217494)
  32:      1321.44    0.906596  ( -0.242802   0.919781  -0.040563)
  33:      1353.63    6.626383  (  0.046394  -1.594607  -2.020262)
  34:      1378.37   10.361783  (  2.088526   0.374221  -2.420702)
  35:      1411.60    3.096865  (  1.024990   0.222129  -1.413124)
  36:      1415.15   26.766884  ( -3.555328  -2.026258   3.165565)
  37:      1466.17    7.038783  ( -0.561406   2.424407   0.919705)
  38:      1470.61    1.861371  ( -0.209701   1.328854  -0.227030)
  39:      1480.65   15.451047  ( -2.278240   2.182543  -2.344605)
  40:      1502.11   17.450988  ( -3.741111   1.855233  -0.114837)
  41:      1508.66  136.281970  (  6.350319   4.393636  -8.755078)
  42:      1524.87   21.599011  ( -4.441881  -1.197672   0.659003)
  43:      1659.48   52.080141  (  2.896291   4.800581   4.543794)
  44:      1663.80   37.320906  (  4.587204  -3.889554   1.072304)
  45:      3045.10   10.668125  ( -0.597331  -1.566366   2.803180)
  46:      3062.97    3.919216  ( -1.681422  -0.334827   0.989913)
  47:      3094.26    2.095878  ( -0.467088  -0.748732  -1.147653)
  48:      3101.29    2.083882  ( -0.929534   0.953348   0.557653)
  49:      3117.33    6.098462  (  0.651277  -1.385016   1.938048)
  50:      3124.89   18.674439  (  1.831200   3.908801   0.205966)
  51:      3139.45    4.361030  ( -1.124400   0.009692  -1.759733)
  52:      3153.77   12.520596  ( -0.548416   3.492315  -0.153530)
  53:      3163.77    0.701226  (  0.328771   0.584354  -0.501663)
  54:      3421.60   48.458273  ( -4.693286  -1.769811   4.826915)
  55:      3503.34   92.564384  ( -1.667623  -7.636438  -5.609656)
  56:      3507.17  100.125095  (  8.060132  -4.634135   3.699210)

--------------------------
THERMOCHEMISTRY AT 298.15K
--------------------------

Temperature         ... 298.15 K
Pressure            ... 1.00 atm
Total Mass          ... 102.16 AMU

Throughout the following assumptions are being made:
  (1) The electronic state is orbitally nondegenerate
  (2) There are no thermally accessible electronically excited states
  (3) Hindered rotations indicated by low frequency modes) are not
      treated as such but are treated as vibrations and this may
      case some error
  (4) All equations used are the standard statistical mechanics
      equations for an ideal gas
  (5) All vibrations are strinctly harmonic

------------
INNER ENERGY
------------

The inner energy is: U= E(el) + E(ZPE) + E(vib) + E(rot) + E(trans)
    E(el)   - is the total energy from the electronic structure calculation
              = E(kin-el) + E(nuc-el) + E(el-el) + E(nuc-nuc)
    E(ZPE)  - the the zero temperature vibrational energy from the frequency calculation
    E(vib)  - the the finite temperature correction to E(ZPE) due to population
              of excietd vibrational states
    E(rot)  - is the rotational thermal energy
    E(trans)- is the translational thermal energy

Summary of contributions to the inner energy U:
Electronic energy                ...   -327.19654717 Eh
Zero point energy                ...      0.17524461 Eh     109.97 kcal/mol
Thermal vibrational correction   ...      0.00563792 Eh       3.54 kcal/mol
Thermal rotational correction    ...      0.00141627 Eh       0.89 kcal/mol
Thermal translational correction ...      0.00141627 Eh       0.89 kcal/mol
-----------------------------------------------------------------------
Total thermal energy                   -327.01283211 Eh

Summary of corrections to the electronic energy:
(perhaps to be used in another calculation)
Total thermal correction                  0.00847046 Eh       5.32 kcal/mol
Non-thermal (ZPE) correction              0.17524461 Eh     109.97 kcal/mol
-----------------------------------------------------------------------
Total correction                          0.18371506 Eh     115.28 kcal/mol

--------
ENTHALPY
--------

The enthalpy is H = U + kB*T
                kB is Boltzmann's constant
Total free energy                 ...   -327.01283211 Eh
Thermal Enthalpy correction       ...      0.00094421 Eh       0.59 kcal/mol
-----------------------------------------------------------------------
Total Enthalpy                    ...   -327.01188790 Eh

-------
ENTROPY
-------

The entropy contributions are T*S = T*(S(el)+S(vib)+S(rot)+S(trans)
     S(el)   - electronic entropy
     S(vib)  - vibrational entropy
     S(rot)  - rotational entropy
     S(trans)- translational entropy
The entropies will be listed as mutliplied by the temperature to get
units of energy

Electronic entropy                ...      0.00000000 Eh      0.00 kcal/mol
Vibrational entropy               ...      0.01036318 Eh      6.50 kcal/mol
Rotational entropy                ...      0.01215382 Eh      7.63 kcal/mol
Translational entropy             ...      0.01890147 Eh     11.86 kcal/mol
-----------------------------------------------------------------------
Final entropy term                ...      0.04141847 Eh     25.99 kcal/mol

CAUTION: The rotational entropy is not quite correctly treated here
         because it includes a symmetry number that is not yet correctly
         implemented in ORCA!
For a nonlinear molecule the correct rotational entropy is:
    S(rot) = R*(ln(qrot/sn)+1.5)
    R    = 8.31441 J/mol/K = 1.987191683e-3 kcal/mol/K
    qrot = 260655.6205268
    sn is the rotational symmetry number. We have assumed 3 here
       if it is different for your molecule then you should correct
       the printed rotational entropy by manually evaluating the equation
       as given above

For convenience we print out the resulting values for sn=1 - 12:
 sn= 1  qrot/sn=  260655.6205 T*S(rot)=     8.28 kcal/mol T*S(tot)=    26.64 kcal/mol
 sn= 2  qrot/sn=  130327.8103 T*S(rot)=     7.87 kcal/mol T*S(tot)=    26.23 kcal/mol
 sn= 3  qrot/sn=   86885.2068 T*S(rot)=     7.63 kcal/mol T*S(tot)=    25.99 kcal/mol
 sn= 4  qrot/sn=   65163.9051 T*S(rot)=     7.46 kcal/mol T*S(tot)=    25.82 kcal/mol
 sn= 5  qrot/sn=   52131.1241 T*S(rot)=     7.32 kcal/mol T*S(tot)=    25.69 kcal/mol
 sn= 6  qrot/sn=   43442.6034 T*S(rot)=     7.22 kcal/mol T*S(tot)=    25.58 kcal/mol
 sn= 7  qrot/sn=   37236.5172 T*S(rot)=     7.12 kcal/mol T*S(tot)=    25.49 kcal/mol
 sn= 8  qrot/sn=   32581.9526 T*S(rot)=     7.05 kcal/mol T*S(tot)=    25.41 kcal/mol
 sn= 9  qrot/sn=   28961.7356 T*S(rot)=     6.98 kcal/mol T*S(tot)=    25.34 kcal/mol
 sn=10  qrot/sn=   26065.5621 T*S(rot)=     6.91 kcal/mol T*S(tot)=    25.28 kcal/mol
 sn=11  qrot/sn=   23695.9655 T*S(rot)=     6.86 kcal/mol T*S(tot)=    25.22 kcal/mol
 sn=12  qrot/sn=   21721.3017 T*S(rot)=     6.81 kcal/mol T*S(tot)=    25.17 kcal/mol

-------------------
GIBBS FREE ENTHALPY
-------------------

The Gibbs free enthalpy is G = H - T*S

Total enthalpy                    ...   -327.01188790 Eh
Total entropy correction          ...     -0.04141847 Eh    -25.99 kcal/mol
-----------------------------------------------------------------------
Final Gibbs free enthalpy         ...   -327.05330637 Eh

For completeness - the Gibbs free enthalpy minus the electronic energy
G-E(el)                           ...      0.14324080 Eh     89.88 kcal/mol

                             ****ORCA TERMINATED NORMALLY****
TOTAL RUN TIME: 0 days 0 hours 29 minutes 31 seconds 520 msec
