                         Program Version 3.0.3 - RELEASE   -
|  1> ! NORI PBE0 def2-TZVP UseSym TightOPT Freq TightSCF Grid3 FinalGrid5 XYZFile
|  2> % pal
|  3>     nprocs 8
|  4> end
|  5> %method
|  6>     SymThresh 5.0e-2
|  7> end
|  8> % geom
|  9>     MaxIter 10
| 10> end
| 11> % maxcore 2000
| 12> % output
| 13>     printlevel mini
| 14>     print[ P_Basis ] 0
| 15>     print[ P_SCFInfo ] 1
| 16>     print[ P_SCFIterInfo ] 1
| 17>     print[ P_OrbEn ] 0
| 18>     print[ P_Cartesian ] 0
| 19> end
| 20> % elprop
| 21>     Dipole false
| 22> end
| 23> *xyz 1 1
| 24>  C        1.1294824159     0.0465566620     0.2046119974
| 25>  C        2.5303963271    -0.1432176881    -0.2780871419
| 26>  O        2.7235049046    -0.7795055083    -1.5369859001
| 27>  C        3.1302754789     0.5663070580    -1.4268910846
| 28>  C        2.3982985307     1.5767771068    -2.2628481833
| 29>  C        4.6376257743     0.6482053429    -1.4762802431
| 30>  N        5.1283230139     1.9515118677    -0.8988774836
| 31>  H        0.7441013206    -0.9040339303     0.5783788700
| 32>  H        0.4622384415     0.3909070681    -0.5840880393
| 33>  H        1.1039576849     0.7622334016     1.0300230889
| 34>  H        3.2246022356    -0.5037776660     0.4844827474
| 35>  H        2.7550405705     1.5521131554    -3.2963262193
| 36>  H        2.5080206951     2.5975439736    -1.8790632823
| 37>  H        1.3323689154     1.3602148688    -2.2793562882
| 38>  H        5.0063863521     0.6034040786    -2.5029457067
| 39>  H        5.0912159784    -0.1552110346    -0.8975998892
| 40>  H        4.7467341921     2.7454900424    -1.4178599538
| 41>  H        6.1478827322     2.0181467087    -0.9282157094
| 42>  H        4.8319844362     2.0493844928     0.0748984211
| 43> *
| 44>
| 45>                          ****END OF INPUT****
 Total Charge           Charge          ....    1
 Multiplicity           Mult            ....    1
 Number of Electrons    NEL             ....   56
FINAL SINGLE POINT ENERGY      -327.195106523471
FINAL SINGLE POINT ENERGY      -327.195107736402

CARTESIAN COORDINATES (ANGSTROEM)
---------------------------------
  C     -2.081642    1.104635    0.653283
  C     -0.600746    0.921240    0.589332
  O     -0.000647   -0.002035    1.491828
  C      0.079053   -0.302488    0.116464
  C     -0.641154   -1.530589   -0.362407
  C      1.506912   -0.157929   -0.354551
  N      1.569723   -0.001047   -1.852233
  H     -2.332200    1.722800    1.517598
  H     -2.613010    0.159667    0.752729
  H     -2.440988    1.622234   -0.239255
  H     -0.035155    1.852396    0.505510
  H     -0.062847   -2.429746   -0.132106
  H     -0.838514   -1.508233   -1.440366
  H     -1.605258   -1.626886    0.131345
  H      2.100819   -1.040370   -0.107852
  H      1.974465    0.722605    0.084502
  H      1.160676   -0.812948   -2.320093
  H      2.531843    0.099179   -2.181876
  H      1.044579    0.823751   -2.151377

FINAL SINGLE POINT ENERGY      -327.195108144782
                    ***********************HURRAY********************
 Multiplicity           Mult            ....    1
 Number of Electrons    NEL             ....   56
 Basis Dimension        Dim             ....  289
FINAL SINGLE POINT ENERGY      -327.195108273461

VIBRATIONAL FREQUENCIES
-----------------------

   0:         0.00 cm**-1
   1:         0.00 cm**-1
   2:         0.00 cm**-1
   3:         0.00 cm**-1
   4:         0.00 cm**-1
   5:         0.00 cm**-1
   6:        60.73 cm**-1
   7:       138.23 cm**-1
   8:       157.11 cm**-1
   9:       183.41 cm**-1
  10:       205.76 cm**-1
  11:       258.73 cm**-1
  12:       299.75 cm**-1
  13:       372.59 cm**-1
  14:       450.87 cm**-1
  15:       472.58 cm**-1
  16:       515.14 cm**-1
  17:       697.63 cm**-1
  18:       810.45 cm**-1
  19:       846.08 cm**-1
  20:       894.40 cm**-1
  21:       940.52 cm**-1
  22:       963.60 cm**-1
  23:      1003.50 cm**-1
  24:      1027.90 cm**-1
  25:      1046.45 cm**-1
  26:      1101.20 cm**-1
  27:      1152.32 cm**-1
  28:      1167.60 cm**-1
  29:      1179.31 cm**-1
  30:      1273.78 cm**-1
  31:      1316.46 cm**-1
  32:      1371.54 cm**-1
  33:      1400.45 cm**-1
  34:      1416.32 cm**-1
  35:      1422.56 cm**-1
  36:      1455.94 cm**-1
  37:      1464.46 cm**-1
  38:      1472.69 cm**-1
  39:      1485.38 cm**-1
  40:      1494.70 cm**-1
  41:      1501.86 cm**-1
  42:      1526.69 cm**-1
  43:      1654.88 cm**-1
  44:      1663.83 cm**-1
  45:      3039.70 cm**-1
  46:      3067.71 cm**-1
  47:      3085.93 cm**-1
  48:      3098.08 cm**-1
  49:      3108.31 cm**-1
  50:      3137.74 cm**-1
  51:      3166.75 cm**-1
  52:      3167.76 cm**-1
  53:      3179.62 cm**-1
  54:      3420.78 cm**-1
  55:      3500.90 cm**-1
  56:      3508.27 cm**-1

IR SPECTRUM
-----------

 Mode    freq (cm**-1)   T**2         TX         TY         TZ
-------------------------------------------------------------------
   6:        60.73    6.369849  (  0.781954  -2.387086  -0.245395)
   7:       138.23    2.217195  (  1.475869   0.011732   0.197148)
   8:       157.11    0.070778  (  0.206805  -0.057319   0.157241)
   9:       183.41    3.518509  (  1.871809  -0.073352   0.097267)
  10:       205.76    2.360701  (  1.470900   0.348282  -0.275418)
  11:       258.73    0.309854  ( -0.183643  -0.360595  -0.382230)
  12:       299.75   10.284434  ( -1.782692  -1.574349   2.151248)
  13:       372.59    4.365921  ( -1.763404  -0.375538   1.056076)
  14:       450.87    6.312080  (  1.716485   1.044022   1.508567)
  15:       472.58    6.406505  (  0.583889   0.102687  -2.460698)
  16:       515.14   21.087673  ( -3.676003   0.670008   2.669412)
  17:       697.63    6.431064  ( -0.489265  -1.383995   2.067908)
  18:       810.45    6.377928  ( -0.631353   2.355355   0.656983)
  19:       846.08    7.380711  ( -1.235282  -2.176899  -1.056361)
  20:       894.40   13.259858  (  3.441830  -1.017274   0.615483)
  21:       940.52   19.823681  ( -1.327804  -1.532039   3.964022)
  22:       963.60    4.523121  ( -1.161264   0.371144   1.742653)
  23:      1003.50   17.112892  ( -0.977719  -1.464368  -3.743339)
  24:      1027.90   10.914227  ( -0.430070   3.270792  -0.176601)
  25:      1046.45   12.197205  ( -3.438348  -0.374151   0.484745)
  26:      1101.20   24.875103  ( -4.723281   1.599737  -0.081007)
  27:      1152.32    6.009722  ( -1.336798  -1.264062   1.620136)
  28:      1167.60    8.719007  ( -0.412783   1.587924  -2.455018)
  29:      1179.31   13.359284  ( -2.171831   1.293180   2.640098)
  30:      1273.78    3.396684  (  1.029172   1.269908  -0.851365)
  31:      1316.46    7.480454  (  0.298570  -2.653404   0.592249)
  32:      1371.54    4.847929  (  1.341161  -1.347905  -1.110120)
  33:      1400.45    5.229321  (  0.931477  -1.051619  -1.804375)
  34:      1416.32   10.599039  (  2.917192  -1.380821  -0.427036)
  35:      1422.56   18.228826  (  2.599451   3.322370   0.658437)
  36:      1455.94    5.979170  (  0.022159   1.802310  -1.652380)
  37:      1464.46   16.270606  ( -1.733321   1.905216   3.104248)
  38:      1472.69    0.951032  (  0.964660  -0.072325  -0.123419)
  39:      1485.38   10.159416  ( -2.961279  -1.148976   0.264754)
  40:      1494.70   14.563070  ( -3.197905   2.033400  -0.449171)
  41:      1501.86  157.221988  ( -2.402410  -2.298415  12.089984)
  42:      1526.69   30.679020  (  4.000012   0.259680   3.822498)
  43:      1654.88   46.786802  ( -0.802500   6.732512   0.903370)
  44:      1663.83   36.458261  (  5.905718   1.000427  -0.761509)
  45:      3039.70   16.860927  ( -1.011200   1.289266   3.765129)
  46:      3067.71    3.560793  ( -1.786688   0.063924  -0.603698)
  47:      3085.93   20.239825  ( -2.399074  -3.499064   1.496938)
  48:      3098.08    1.987161  ( -1.175661   0.184481   0.755612)
  49:      3108.31    7.306488  ( -1.035248   1.406727  -2.062976)
  50:      3137.74    2.820349  ( -0.239526   0.362637  -1.622181)
  51:      3166.75    4.624446  (  0.655196   2.041248  -0.168733)
  52:      3167.76    2.226761  ( -0.019642   1.486746  -0.126345)
  53:      3179.62    0.960396  ( -0.614901  -0.578526   0.497594)
  54:      3420.78   35.371637  (  1.065739   0.407885  -5.836906)
  55:      3500.90   89.660767  ( -0.577476  -9.433256  -0.583927)
  56:      3508.27  111.217552  ( 10.528493   0.047311  -0.605103)

--------------------------
THERMOCHEMISTRY AT 298.15K
--------------------------

Temperature         ... 298.15 K
Pressure            ... 1.00 atm
Total Mass          ... 102.16 AMU

Throughout the following assumptions are being made:
  (1) The electronic state is orbitally nondegenerate
  (2) There are no thermally accessible electronically excited states
  (3) Hindered rotations indicated by low frequency modes) are not
      treated as such but are treated as vibrations and this may
      case some error
  (4) All equations used are the standard statistical mechanics
      equations for an ideal gas
  (5) All vibrations are strinctly harmonic

------------
INNER ENERGY
------------

The inner energy is: U= E(el) + E(ZPE) + E(vib) + E(rot) + E(trans)
    E(el)   - is the total energy from the electronic structure calculation
              = E(kin-el) + E(nuc-el) + E(el-el) + E(nuc-nuc)
    E(ZPE)  - the the zero temperature vibrational energy from the frequency calculation
    E(vib)  - the the finite temperature correction to E(ZPE) due to population
              of excietd vibrational states
    E(rot)  - is the rotational thermal energy
    E(trans)- is the translational thermal energy

Summary of contributions to the inner energy U:
Electronic energy                ...   -327.19510827 Eh
Zero point energy                ...      0.17393574 Eh     109.15 kcal/mol
Thermal vibrational correction   ...      0.00587575 Eh       3.69 kcal/mol
Thermal rotational correction    ...      0.00141627 Eh       0.89 kcal/mol
Thermal translational correction ...      0.00141627 Eh       0.89 kcal/mol
-----------------------------------------------------------------------
Total thermal energy                   -327.01246424 Eh

Summary of corrections to the electronic energy:
(perhaps to be used in another calculation)
Total thermal correction                  0.00870830 Eh       5.46 kcal/mol
Non-thermal (ZPE) correction              0.17393574 Eh     109.15 kcal/mol
-----------------------------------------------------------------------
Total correction                          0.18264403 Eh     114.61 kcal/mol

--------
ENTHALPY
--------

The enthalpy is H = U + kB*T
                kB is Boltzmann's constant
Total free energy                 ...   -327.01246424 Eh
Thermal Enthalpy correction       ...      0.00094421 Eh       0.59 kcal/mol
-----------------------------------------------------------------------
Total Enthalpy                    ...   -327.01152003 Eh

-------
ENTROPY
-------

The entropy contributions are T*S = T*(S(el)+S(vib)+S(rot)+S(trans)
     S(el)   - electronic entropy
     S(vib)  - vibrational entropy
     S(rot)  - rotational entropy
     S(trans)- translational entropy
The entropies will be listed as mutliplied by the temperature to get
units of energy

Electronic entropy                ...      0.00000000 Eh      0.00 kcal/mol
Vibrational entropy               ...      0.01057592 Eh      6.64 kcal/mol
Rotational entropy                ...      0.01211270 Eh      7.60 kcal/mol
Translational entropy             ...      0.01890147 Eh     11.86 kcal/mol
-----------------------------------------------------------------------
Final entropy term                ...      0.04159008 Eh     26.10 kcal/mol

CAUTION: The rotational entropy is not quite correctly treated here
         because it includes a symmetry number that is not yet correctly
         implemented in ORCA!
For a nonlinear molecule the correct rotational entropy is:
    S(rot) = R*(ln(qrot/sn)+1.5)
    R    = 8.31441 J/mol/K = 1.987191683e-3 kcal/mol/K
    qrot = 249546.9697255
    sn is the rotational symmetry number. We have assumed 3 here
       if it is different for your molecule then you should correct
       the printed rotational entropy by manually evaluating the equation
       as given above

For convenience we print out the resulting values for sn=1 - 12:
 sn= 1  qrot/sn=  249546.9697 T*S(rot)=     8.25 kcal/mol T*S(tot)=    26.75 kcal/mol
 sn= 2  qrot/sn=  124773.4849 T*S(rot)=     7.84 kcal/mol T*S(tot)=    26.34 kcal/mol
 sn= 3  qrot/sn=   83182.3232 T*S(rot)=     7.60 kcal/mol T*S(tot)=    26.10 kcal/mol
 sn= 4  qrot/sn=   62386.7424 T*S(rot)=     7.43 kcal/mol T*S(tot)=    25.93 kcal/mol
 sn= 5  qrot/sn=   49909.3939 T*S(rot)=     7.30 kcal/mol T*S(tot)=    25.80 kcal/mol
 sn= 6  qrot/sn=   41591.1616 T*S(rot)=     7.19 kcal/mol T*S(tot)=    25.69 kcal/mol
 sn= 7  qrot/sn=   35649.5671 T*S(rot)=     7.10 kcal/mol T*S(tot)=    25.60 kcal/mol
 sn= 8  qrot/sn=   31193.3712 T*S(rot)=     7.02 kcal/mol T*S(tot)=    25.52 kcal/mol
 sn= 9  qrot/sn=   27727.4411 T*S(rot)=     6.95 kcal/mol T*S(tot)=    25.45 kcal/mol
 sn=10  qrot/sn=   24954.6970 T*S(rot)=     6.89 kcal/mol T*S(tot)=    25.38 kcal/mol
 sn=11  qrot/sn=   22686.0882 T*S(rot)=     6.83 kcal/mol T*S(tot)=    25.33 kcal/mol
 sn=12  qrot/sn=   20795.5808 T*S(rot)=     6.78 kcal/mol T*S(tot)=    25.28 kcal/mol

-------------------
GIBBS FREE ENTHALPY
-------------------

The Gibbs free enthalpy is G = H - T*S

Total enthalpy                    ...   -327.01152003 Eh
Total entropy correction          ...     -0.04159008 Eh    -26.10 kcal/mol
-----------------------------------------------------------------------
Final Gibbs free enthalpy         ...   -327.05311011 Eh

For completeness - the Gibbs free enthalpy minus the electronic energy
G-E(el)                           ...      0.14199816 Eh     89.10 kcal/mol

                             ****ORCA TERMINATED NORMALLY****
TOTAL RUN TIME: 0 days 0 hours 35 minutes 43 seconds 187 msec
