                         Program Version 3.0.3 - RELEASE   -
|  1> ! NORI PBE0 def2-TZVP UseSym TightOPT Freq TightSCF Grid3 FinalGrid5 XYZFile
|  2> % pal
|  3>     nprocs 8
|  4> end
|  5> %method
|  6>     SymThresh 5.0e-2
|  7> end
|  8> % geom
|  9>     MaxIter 10
| 10> end
| 11> % maxcore 2000
| 12> % output
| 13>     printlevel mini
| 14>     print[ P_Basis ] 0
| 15>     print[ P_SCFInfo ] 1
| 16>     print[ P_SCFIterInfo ] 1
| 17>     print[ P_OrbEn ] 0
| 18>     print[ P_Cartesian ] 0
| 19> end
| 20> % elprop
| 21>     Dipole false
| 22> end
| 23> *xyz 1 1
| 24>  C        0.9508656650     0.1417956997     0.2626944721
| 25>  C        2.3338757427    -0.3156402156    -0.1143164894
| 26>  O        3.3327466116     0.6897805443     0.0908431825
| 27>  C        3.9346684901    -0.0433710621     1.1588243171
| 28>  C        3.0533090100    -1.2680893178     0.8694525689
| 29>  C        3.8187107203    -2.3948096132     0.2307927199
| 30>  N        2.8700488008    -3.4143173632    -0.3515854142
| 31>  H        0.6600626667     0.9875660298    -0.3622002828
| 32>  H        0.9136625545     0.4604112599     1.3062099320
| 33>  H        0.2166648578    -0.6563429109     0.1144079265
| 34>  H        2.3477721740    -0.6484938851    -1.1660290705
| 35>  H        3.7556727963     0.4181122025     2.1334469699
| 36>  H        5.0118618910    -0.1755480999     1.0173484231
| 37>  H        2.4497558754    -1.6218023206     1.7096534239
| 38>  H        4.4336705039    -2.0408559643    -0.5988879115
| 39>  H        4.4538130857    -2.9290996600     0.9394745183
| 40>  H        2.2445089580    -2.9674220593    -1.0269586078
| 41>  H        2.2885788795    -3.8339255977     0.3772042435
| 42>  H        3.3642907168    -4.1688876665    -0.8320849216
| 43> *
| 44>
| 45>                          ****END OF INPUT****
 Total Charge           Charge          ....    1
 Multiplicity           Mult            ....    1
 Number of Electrons    NEL             ....   56
FINAL SINGLE POINT ENERGY      -327.189993141196
FINAL SINGLE POINT ENERGY      -327.189994110148

CARTESIAN COORDINATES (ANGSTROEM)
---------------------------------
  C     -1.246750    1.767428    0.593998
  C     -0.113614    0.778370    0.546703
  O      0.002123    0.000511    1.743349
  C     -0.398799   -1.195975    1.073998
  C     -0.331835   -0.500753   -0.294947
  C      0.851528   -0.944486   -1.111534
  N      1.079667   -0.000217   -2.268258
  H     -1.078312    2.481483    1.401745
  H     -2.199147    1.265360    0.776132
  H     -1.321028    2.328004   -0.342865
  H      0.837071    1.301219    0.346291
  H     -1.401585   -1.519540    1.364056
  H      0.303904   -2.018929    1.236435
  H     -1.254341   -0.526779   -0.881419
  H      1.770393   -0.932726   -0.522200
  H      0.719097   -1.938235   -1.542245
  H      1.213803    0.953694   -1.923200
  H      0.274919    0.009761   -2.898657
  H      1.904462   -0.255708   -2.814938

FINAL SINGLE POINT ENERGY      -327.189994618970
                    ***********************HURRAY********************
 Multiplicity           Mult            ....    1
 Number of Electrons    NEL             ....   56
 Basis Dimension        Dim             ....  289
FINAL SINGLE POINT ENERGY      -327.189994777110

VIBRATIONAL FREQUENCIES
-----------------------

   0:         0.00 cm**-1
   1:         0.00 cm**-1
   2:         0.00 cm**-1
   3:         0.00 cm**-1
   4:         0.00 cm**-1
   5:         0.00 cm**-1
   6:        50.74 cm**-1
   7:       108.57 cm**-1
   8:       185.24 cm**-1
   9:       223.74 cm**-1
  10:       242.30 cm**-1
  11:       272.91 cm**-1
  12:       355.91 cm**-1
  13:       415.99 cm**-1
  14:       493.91 cm**-1
  15:       758.73 cm**-1
  16:       797.26 cm**-1
  17:       851.97 cm**-1
  18:       899.83 cm**-1
  19:       913.38 cm**-1
  20:       933.87 cm**-1
  21:      1002.69 cm**-1
  22:      1015.64 cm**-1
  23:      1040.29 cm**-1
  24:      1076.89 cm**-1
  25:      1117.33 cm**-1
  26:      1125.34 cm**-1
  27:      1157.48 cm**-1
  28:      1168.31 cm**-1
  29:      1223.63 cm**-1
  30:      1243.81 cm**-1
  31:      1293.67 cm**-1
  32:      1327.55 cm**-1
  33:      1352.64 cm**-1
  34:      1362.61 cm**-1
  35:      1394.40 cm**-1
  36:      1409.10 cm**-1
  37:      1422.73 cm**-1
  38:      1471.59 cm**-1
  39:      1484.63 cm**-1
  40:      1492.45 cm**-1
  41:      1499.61 cm**-1
  42:      1523.45 cm**-1
  43:      1656.78 cm**-1
  44:      1662.32 cm**-1
  45:      2956.63 cm**-1
  46:      3050.32 cm**-1
  47:      3056.17 cm**-1
  48:      3081.85 cm**-1
  49:      3093.11 cm**-1
  50:      3109.25 cm**-1
  51:      3127.52 cm**-1
  52:      3148.78 cm**-1
  53:      3154.05 cm**-1
  54:      3416.88 cm**-1
  55:      3495.36 cm**-1
  56:      3508.88 cm**-1

IR SPECTRUM
-----------

 Mode    freq (cm**-1)   T**2         TX         TY         TZ
-------------------------------------------------------------------
   6:        50.74    1.825730  ( -0.478244  -0.416694   1.193054)
   7:       108.57   13.324983  ( -0.832003   1.430414   3.253716)
   8:       185.24    9.159165  ( -2.450189   0.827999   1.571674)
   9:       223.74    4.076431  ( -1.803170   0.907568   0.036437)
  10:       242.30    1.385531  ( -0.709799  -0.082841   0.935336)
  11:       272.91    2.432313  (  0.443535   0.209591  -1.480426)
  12:       355.91    1.465693  (  0.872679  -0.776466   0.318158)
  13:       415.99    7.834492  ( -1.364289  -0.092978   2.442245)
  14:       493.91    3.060902  ( -1.406806   1.003671  -0.272846)
  15:       758.73    2.719082  ( -0.703506   1.206380   0.876817)
  16:       797.26    8.117995  ( -0.476951  -1.577342  -2.324329)
  17:       851.97    5.961004  (  1.893637   1.163241  -1.010946)
  18:       899.83   17.612704  (  1.155245   0.191980   4.030044)
  19:       913.38    9.229110  ( -1.531709   1.614985  -2.067559)
  20:       933.87   15.483349  (  1.626912   0.453889  -3.553940)
  21:      1002.69   15.520878  (  2.518244  -1.537039  -2.610907)
  22:      1015.64    5.293447  ( -1.634642  -1.449408  -0.721531)
  23:      1040.29   18.408897  ( -1.198188  -3.114810  -2.696517)
  24:      1076.89   62.648157  (  0.407556   7.859996  -0.838161)
  25:      1117.33   35.481743  (  0.762425   4.736132  -3.531218)
  26:      1125.34    4.986690  ( -0.541819   1.805855  -1.196667)
  27:      1157.48    5.054391  (  1.866566  -0.331234  -1.208555)
  28:      1168.31    2.089263  (  1.235031   0.018027   0.750757)
  29:      1223.63    5.599884  (  2.352802   0.206015  -0.147530)
  30:      1243.81   19.583548  (  0.094920   4.409957  -0.356117)
  31:      1293.67    4.171510  ( -0.888661   0.868276   1.621076)
  32:      1327.55    3.167374  (  0.799347  -1.442878   0.668222)
  33:      1352.64   15.094223  (  0.303535  -1.778973  -3.440544)
  34:      1362.61    8.005359  (  0.366611   2.213957  -1.723180)
  35:      1394.40    1.856897  ( -0.072219  -1.311903   0.361373)
  36:      1409.10   17.162905  ( -1.925336   3.159914  -1.863042)
  37:      1422.73   14.646355  (  2.254895  -1.634762  -2.624758)
  38:      1471.59    5.715852  (  1.919129   1.089690   0.919441)
  39:      1484.63    4.742997  ( -1.238795  -0.454102   1.732678)
  40:      1492.45   17.958401  ( -3.567741   2.096411   0.913611)
  41:      1499.61  160.245911  (  3.037015   7.106694 -10.025834)
  42:      1523.45    4.183361  (  0.321101   1.431528  -1.425126)
  43:      1656.78   48.597148  ( -2.998475  -4.560731  -4.336592)
  44:      1662.32   33.599312  (  5.460969  -1.531055  -1.197080)
  45:      2956.63   73.789293  (  6.662385   3.715399  -3.949395)
  46:      3050.32    9.855227  (  0.900013  -2.227889   2.020326)
  47:      3056.17   28.211540  ( -0.114180  -5.281819   0.548535)
  48:      3081.85    7.808350  ( -0.842502  -0.645738  -2.584872)
  49:      3093.11    0.986392  (  0.631301  -0.764153  -0.062609)
  50:      3109.25   13.606724  (  3.638966  -0.603581  -0.018372)
  51:      3127.52   12.453671  (  1.414357   1.736018  -2.727546)
  52:      3148.78    3.671193  ( -1.445680  -1.187841  -0.412597)
  53:      3154.05    0.594950  ( -0.120814  -0.466087  -0.602592)
  54:      3416.88   33.036241  ( -1.265886  -3.584361   4.311164)
  55:      3495.36  102.128835  ( -1.154776  -6.200986  -7.895765)
  56:      3508.88  104.184443  (  9.807362  -2.586551  -1.144484)

--------------------------
THERMOCHEMISTRY AT 298.15K
--------------------------

Temperature         ... 298.15 K
Pressure            ... 1.00 atm
Total Mass          ... 102.16 AMU

Throughout the following assumptions are being made:
  (1) The electronic state is orbitally nondegenerate
  (2) There are no thermally accessible electronically excited states
  (3) Hindered rotations indicated by low frequency modes) are not
      treated as such but are treated as vibrations and this may
      case some error
  (4) All equations used are the standard statistical mechanics
      equations for an ideal gas
  (5) All vibrations are strinctly harmonic

------------
INNER ENERGY
------------

The inner energy is: U= E(el) + E(ZPE) + E(vib) + E(rot) + E(trans)
    E(el)   - is the total energy from the electronic structure calculation
              = E(kin-el) + E(nuc-el) + E(el-el) + E(nuc-nuc)
    E(ZPE)  - the the zero temperature vibrational energy from the frequency calculation
    E(vib)  - the the finite temperature correction to E(ZPE) due to population
              of excietd vibrational states
    E(rot)  - is the rotational thermal energy
    E(trans)- is the translational thermal energy

Summary of contributions to the inner energy U:
Electronic energy                ...   -327.18999478 Eh
Zero point energy                ...      0.17593851 Eh     110.40 kcal/mol
Thermal vibrational correction   ...      0.00521356 Eh       3.27 kcal/mol
Thermal rotational correction    ...      0.00141627 Eh       0.89 kcal/mol
Thermal translational correction ...      0.00141627 Eh       0.89 kcal/mol
-----------------------------------------------------------------------
Total thermal energy                   -327.00601016 Eh

Summary of corrections to the electronic energy:
(perhaps to be used in another calculation)
Total thermal correction                  0.00804610 Eh       5.05 kcal/mol
Non-thermal (ZPE) correction              0.17593851 Eh     110.40 kcal/mol
-----------------------------------------------------------------------
Total correction                          0.18398462 Eh     115.45 kcal/mol

--------
ENTHALPY
--------

The enthalpy is H = U + kB*T
                kB is Boltzmann's constant
Total free energy                 ...   -327.00601016 Eh
Thermal Enthalpy correction       ...      0.00094421 Eh       0.59 kcal/mol
-----------------------------------------------------------------------
Total Enthalpy                    ...   -327.00506595 Eh

-------
ENTROPY
-------

The entropy contributions are T*S = T*(S(el)+S(vib)+S(rot)+S(trans)
     S(el)   - electronic entropy
     S(vib)  - vibrational entropy
     S(rot)  - rotational entropy
     S(trans)- translational entropy
The entropies will be listed as mutliplied by the temperature to get
units of energy

Electronic entropy                ...      0.00000000 Eh      0.00 kcal/mol
Vibrational entropy               ...      0.00960547 Eh      6.03 kcal/mol
Rotational entropy                ...      0.01212598 Eh      7.61 kcal/mol
Translational entropy             ...      0.01890147 Eh     11.86 kcal/mol
-----------------------------------------------------------------------
Final entropy term                ...      0.04063291 Eh     25.50 kcal/mol

CAUTION: The rotational entropy is not quite correctly treated here
         because it includes a symmetry number that is not yet correctly
         implemented in ORCA!
For a nonlinear molecule the correct rotational entropy is:
    S(rot) = R*(ln(qrot/sn)+1.5)
    R    = 8.31441 J/mol/K = 1.987191683e-3 kcal/mol/K
    qrot = 253080.5919727
    sn is the rotational symmetry number. We have assumed 3 here
       if it is different for your molecule then you should correct
       the printed rotational entropy by manually evaluating the equation
       as given above

For convenience we print out the resulting values for sn=1 - 12:
 sn= 1  qrot/sn=  253080.5920 T*S(rot)=     8.26 kcal/mol T*S(tot)=    26.15 kcal/mol
 sn= 2  qrot/sn=  126540.2960 T*S(rot)=     7.85 kcal/mol T*S(tot)=    25.74 kcal/mol
 sn= 3  qrot/sn=   84360.1973 T*S(rot)=     7.61 kcal/mol T*S(tot)=    25.50 kcal/mol
 sn= 4  qrot/sn=   63270.1480 T*S(rot)=     7.44 kcal/mol T*S(tot)=    25.33 kcal/mol
 sn= 5  qrot/sn=   50616.1184 T*S(rot)=     7.31 kcal/mol T*S(tot)=    25.19 kcal/mol
 sn= 6  qrot/sn=   42180.0987 T*S(rot)=     7.20 kcal/mol T*S(tot)=    25.09 kcal/mol
 sn= 7  qrot/sn=   36154.3703 T*S(rot)=     7.11 kcal/mol T*S(tot)=    25.00 kcal/mol
 sn= 8  qrot/sn=   31635.0740 T*S(rot)=     7.03 kcal/mol T*S(tot)=    24.92 kcal/mol
 sn= 9  qrot/sn=   28120.0658 T*S(rot)=     6.96 kcal/mol T*S(tot)=    24.85 kcal/mol
 sn=10  qrot/sn=   25308.0592 T*S(rot)=     6.90 kcal/mol T*S(tot)=    24.78 kcal/mol
 sn=11  qrot/sn=   23007.3265 T*S(rot)=     6.84 kcal/mol T*S(tot)=    24.73 kcal/mol
 sn=12  qrot/sn=   21090.0493 T*S(rot)=     6.79 kcal/mol T*S(tot)=    24.68 kcal/mol

-------------------
GIBBS FREE ENTHALPY
-------------------

The Gibbs free enthalpy is G = H - T*S

Total enthalpy                    ...   -327.00506595 Eh
Total entropy correction          ...     -0.04063291 Eh    -25.50 kcal/mol
-----------------------------------------------------------------------
Final Gibbs free enthalpy         ...   -327.04569886 Eh

For completeness - the Gibbs free enthalpy minus the electronic energy
G-E(el)                           ...      0.14429591 Eh     90.55 kcal/mol

                             ****ORCA TERMINATED NORMALLY****
TOTAL RUN TIME: 0 days 0 hours 36 minutes 9 seconds 314 msec
