                         Program Version 3.0.3 - RELEASE   -
|  1> ! NORI PBE0 def2-TZVP UseSym TightOPT Freq TightSCF Grid3 FinalGrid5 XYZFile
|  2> % pal
|  3>     nprocs 8
|  4> end
|  5> %method
|  6>     SymThresh 5.0e-2
|  7> end
|  8> % geom
|  9>     MaxIter 10
| 10> end
| 11> % maxcore 2000
| 12> % output
| 13>     printlevel mini
| 14>     print[ P_Basis ] 0
| 15>     print[ P_SCFInfo ] 1
| 16>     print[ P_SCFIterInfo ] 1
| 17>     print[ P_OrbEn ] 0
| 18>     print[ P_Cartesian ] 0
| 19> end
| 20> % elprop
| 21>     Dipole false
| 22> end
| 23> *xyz 1 1
| 24>  C        1.1129409914     0.2407794846    -0.1787916129
| 25>  C        2.6075873545     0.2402245041    -0.0898311763
| 26>  O        3.1250539248     0.8002053978     1.1000427070
| 27>  C        3.4224505255    -0.8155801136    -0.7478638601
| 28>  C        3.4561373086     0.6002745270    -1.2815958767
| 29>  C        4.6865257720     1.4238216763    -1.0528157104
| 30>  N        4.3153491310     2.6890491011    -0.3174118225
| 31>  H        0.7801625714    -0.1350273993    -1.1470713174
| 32>  H        0.7098531577     1.2465083364    -0.0392454375
| 33>  H        0.6838966759    -0.4087557269     0.5893436286
| 34>  H        2.8355644357     0.2911487575     1.8643531335
| 35>  H        4.3099159337    -1.1634321677    -0.2331320683
| 36>  H        2.9127208509    -1.5642438904    -1.3399497083
| 37>  H        2.9314253339     0.7911146313    -2.2113423897
| 38>  H        5.1820245236     1.7065376367    -1.9812497194
| 39>  H        5.4061369473     0.9179514520    -0.4104245771
| 40>  H        3.6740332792     3.2657337737    -0.8620661088
| 41>  H        5.1293119351     3.2545523559    -0.0759928584
| 42>  H        3.8322593478     2.3738176635     0.5450647744
| 43> *
| 44>
| 45>                          ****END OF INPUT****
 Total Charge           Charge          ....    1
 Multiplicity           Mult            ....    1
 Number of Electrons    NEL             ....   56
FINAL SINGLE POINT ENERGY      -327.218526800497
FINAL SINGLE POINT ENERGY      -327.218527381744
FINAL SINGLE POINT ENERGY      -327.218527638679

CARTESIAN COORDINATES (ANGSTROEM)
---------------------------------
  C     -1.519364    1.583461    0.335116
  C     -0.791753    0.275571    0.286495
  O     -0.000111   -0.000263    1.424263
  C     -1.347490   -0.892988   -0.446324
  C     -0.117408   -0.189053   -0.977931
  C      1.208269   -0.877792   -0.863210
  N      2.166697   -0.000151   -0.094105
  H     -2.048302    1.768700   -0.600743
  H     -0.830317    2.411709    0.514577
  H     -2.263522    1.577907    1.136331
  H     -0.552403   -0.061943    2.210561
  H     -1.198980   -1.876258   -0.016325
  H     -2.274149   -0.765822   -0.990351
  H     -0.245330    0.437062   -1.854112
  H      1.654987   -1.094493   -1.833385
  H      1.142928   -1.802500   -0.292209
  H      2.335844    0.883018   -0.575348
  H      3.065748   -0.452968    0.071181
  H      1.695735    0.195700    0.809445

FINAL SINGLE POINT ENERGY      -327.218527770972
                    ***********************HURRAY********************
 Multiplicity           Mult            ....    1
 Number of Electrons    NEL             ....   56
 Basis Dimension        Dim             ....  289
FINAL SINGLE POINT ENERGY      -327.218527796125

VIBRATIONAL FREQUENCIES
-----------------------

   0:         0.00 cm**-1
   1:         0.00 cm**-1
   2:         0.00 cm**-1
   3:         0.00 cm**-1
   4:         0.00 cm**-1
   5:         0.00 cm**-1
   6:       135.64 cm**-1
   7:       179.88 cm**-1
   8:       227.89 cm**-1
   9:       256.20 cm**-1
  10:       291.28 cm**-1
  11:       337.60 cm**-1
  12:       356.26 cm**-1
  13:       392.38 cm**-1
  14:       421.74 cm**-1
  15:       465.63 cm**-1
  16:       576.21 cm**-1
  17:       735.93 cm**-1
  18:       788.56 cm**-1
  19:       857.30 cm**-1
  20:       879.86 cm**-1
  21:       928.43 cm**-1
  22:       934.24 cm**-1
  23:       980.41 cm**-1
  24:      1003.45 cm**-1
  25:      1052.72 cm**-1
  26:      1073.14 cm**-1
  27:      1091.25 cm**-1
  28:      1121.36 cm**-1
  29:      1144.30 cm**-1
  30:      1208.39 cm**-1
  31:      1260.04 cm**-1
  32:      1285.02 cm**-1
  33:      1328.43 cm**-1
  34:      1350.53 cm**-1
  35:      1397.89 cm**-1
  36:      1418.12 cm**-1
  37:      1443.75 cm**-1
  38:      1474.78 cm**-1
  39:      1481.51 cm**-1
  40:      1484.78 cm**-1
  41:      1490.37 cm**-1
  42:      1512.96 cm**-1
  43:      1647.40 cm**-1
  44:      1678.66 cm**-1
  45:      3054.61 cm**-1
  46:      3111.38 cm**-1
  47:      3126.40 cm**-1
  48:      3148.35 cm**-1
  49:      3161.11 cm**-1
  50:      3166.36 cm**-1
  51:      3184.56 cm**-1
  52:      3205.40 cm**-1
  53:      3254.92 cm**-1
  54:      3476.13 cm**-1
  55:      3534.58 cm**-1
  56:      3837.24 cm**-1

IR SPECTRUM
-----------

 Mode    freq (cm**-1)   T**2         TX         TY         TZ
-------------------------------------------------------------------
   6:       135.64   11.538286  (  0.035859  -3.194197   1.155034)
   7:       179.88   11.398958  (  2.862737  -0.773120  -1.614305)
   8:       227.89    2.930680  (  0.356219  -1.327369  -1.020726)
   9:       256.20   51.600005  (  3.390115  -5.304965  -3.458970)
  10:       291.28   79.707358  (  2.633237   8.517863  -0.468439)
  11:       337.60   14.849198  ( -1.545840   3.523629  -0.208842)
  12:       356.26    7.677703  (  2.506347   0.422919  -1.103208)
  13:       392.38   17.080711  (  1.740398   3.000522   2.246908)
  14:       421.74    1.561067  ( -1.019674   0.710991  -0.125793)
  15:       465.63   10.351870  (  2.141723  -2.375193   0.351216)
  16:       576.21    3.359093  ( -1.174620   0.155320   1.398298)
  17:       735.93    4.913453  ( -0.656494   0.024641  -2.117041)
  18:       788.56   25.265573  ( -3.180507  -0.329202   3.878347)
  19:       857.30   17.823704  ( -1.937511  -1.373766   3.490347)
  20:       879.86    2.580429  (  0.980967  -0.005197  -1.272048)
  21:       928.43   11.524305  ( -2.956603  -1.190019  -1.169041)
  22:       934.24    2.998431  (  1.224261  -1.224498  -0.014920)
  23:       980.41   31.083709  ( -4.560982   0.688114  -3.131717)
  24:      1003.45    8.709597  ( -0.453080  -0.969490   2.750346)
  25:      1052.72   14.248196  ( -2.697259  -0.207715  -2.632460)
  26:      1073.14    2.390716  ( -0.744742   1.262530   0.492030)
  27:      1091.25   22.045759  ( -0.078174  -1.579824  -4.420837)
  28:      1121.36   14.408779  (  2.866733   2.227726  -1.108089)
  29:      1144.30   31.448986  ( -4.638824   2.194616   2.261407)
  30:      1208.39    2.709091  ( -1.498991   0.675929  -0.072364)
  31:      1260.04   55.258514  (  5.229683  -0.375047   5.269561)
  32:      1285.02   66.682979  (  3.894761  -1.992282   6.895261)
  33:      1328.43    5.526754  ( -0.440550   1.884604   1.334518)
  34:      1350.53   12.359395  ( -2.343845   1.030477   2.409129)
  35:      1397.89    2.044175  ( -1.216580   0.744370  -0.100109)
  36:      1418.12    8.281282  (  0.061725   2.009727  -2.058755)
  37:      1443.75   23.749771  (  4.672309  -1.314566  -0.437279)
  38:      1474.78   25.280859  ( -4.530434  -2.021994   0.817049)
  39:      1481.51    1.895539  (  0.045908  -1.145987  -0.761672)
  40:      1484.78  154.950392  ( -9.295811  -6.511732  -5.112302)
  41:      1490.37   23.889112  ( -4.638371   0.856372  -1.281113)
  42:      1512.96   24.054514  (  3.935638  -2.924583   0.109915)
  43:      1647.40   24.511275  (  2.740492   2.171880  -3.504842)
  44:      1678.66   37.660628  ( -4.476937   3.707563  -1.967648)
  45:      3054.61    6.257583  (  0.547010  -2.141959  -1.170630)
  46:      3111.38    7.552760  (  2.045503  -1.261179  -1.333457)
  47:      3126.40    7.067743  (  1.836078   1.559300  -1.124787)
  48:      3148.35    5.184267  (  1.168812   1.161052   1.571657)
  49:      3161.11    0.347595  (  0.229987  -0.534639   0.094135)
  50:      3166.36    2.944448  (  1.074057  -0.566898  -1.212219)
  51:      3184.56    3.702987  (  1.289511   0.308056  -1.394722)
  52:      3205.40  248.738441  ( 10.873588  -2.426641 -11.163106)
  53:      3254.92    0.017482  (  0.017907  -0.056044  -0.118409)
  54:      3476.13   95.606496  ( -9.073982  -1.668712   3.238016)
  55:      3534.58   80.159400  (  3.667513  -7.341300   3.579674)
  56:      3837.24   92.691792  ( -3.553974  -0.967068   8.895271)

--------------------------
THERMOCHEMISTRY AT 298.15K
--------------------------

Temperature         ... 298.15 K
Pressure            ... 1.00 atm
Total Mass          ... 102.16 AMU

Throughout the following assumptions are being made:
  (1) The electronic state is orbitally nondegenerate
  (2) There are no thermally accessible electronically excited states
  (3) Hindered rotations indicated by low frequency modes) are not
      treated as such but are treated as vibrations and this may
      case some error
  (4) All equations used are the standard statistical mechanics
      equations for an ideal gas
  (5) All vibrations are strinctly harmonic

------------
INNER ENERGY
------------

The inner energy is: U= E(el) + E(ZPE) + E(vib) + E(rot) + E(trans)
    E(el)   - is the total energy from the electronic structure calculation
              = E(kin-el) + E(nuc-el) + E(el-el) + E(nuc-nuc)
    E(ZPE)  - the the zero temperature vibrational energy from the frequency calculation
    E(vib)  - the the finite temperature correction to E(ZPE) due to population
              of excietd vibrational states
    E(rot)  - is the rotational thermal energy
    E(trans)- is the translational thermal energy

Summary of contributions to the inner energy U:
Electronic energy                ...   -327.21852780 Eh
Zero point energy                ...      0.17531722 Eh     110.01 kcal/mol
Thermal vibrational correction   ...      0.00516231 Eh       3.24 kcal/mol
Thermal rotational correction    ...      0.00141627 Eh       0.89 kcal/mol
Thermal translational correction ...      0.00141627 Eh       0.89 kcal/mol
-----------------------------------------------------------------------
Total thermal energy                   -327.03521572 Eh

Summary of corrections to the electronic energy:
(perhaps to be used in another calculation)
Total thermal correction                  0.00799486 Eh       5.02 kcal/mol
Non-thermal (ZPE) correction              0.17531722 Eh     110.01 kcal/mol
-----------------------------------------------------------------------
Total correction                          0.18331208 Eh     115.03 kcal/mol

--------
ENTHALPY
--------

The enthalpy is H = U + kB*T
                kB is Boltzmann's constant
Total free energy                 ...   -327.03521572 Eh
Thermal Enthalpy correction       ...      0.00094421 Eh       0.59 kcal/mol
-----------------------------------------------------------------------
Total Enthalpy                    ...   -327.03427151 Eh

-------
ENTROPY
-------

The entropy contributions are T*S = T*(S(el)+S(vib)+S(rot)+S(trans)
     S(el)   - electronic entropy
     S(vib)  - vibrational entropy
     S(rot)  - rotational entropy
     S(trans)- translational entropy
The entropies will be listed as mutliplied by the temperature to get
units of energy

Electronic entropy                ...      0.00000000 Eh      0.00 kcal/mol
Vibrational entropy               ...      0.00834098 Eh      5.23 kcal/mol
Rotational entropy                ...      0.01201280 Eh      7.54 kcal/mol
Translational entropy             ...      0.01890147 Eh     11.86 kcal/mol
-----------------------------------------------------------------------
Final entropy term                ...      0.03925524 Eh     24.63 kcal/mol

CAUTION: The rotational entropy is not quite correctly treated here
         because it includes a symmetry number that is not yet correctly
         implemented in ORCA!
For a nonlinear molecule the correct rotational entropy is:
    S(rot) = R*(ln(qrot/sn)+1.5)
    R    = 8.31441 J/mol/K = 1.987191683e-3 kcal/mol/K
    qrot = 224492.9581857
    sn is the rotational symmetry number. We have assumed 3 here
       if it is different for your molecule then you should correct
       the printed rotational entropy by manually evaluating the equation
       as given above

For convenience we print out the resulting values for sn=1 - 12:
 sn= 1  qrot/sn=  224492.9582 T*S(rot)=     8.19 kcal/mol T*S(tot)=    25.28 kcal/mol
 sn= 2  qrot/sn=  112246.4791 T*S(rot)=     7.78 kcal/mol T*S(tot)=    24.87 kcal/mol
 sn= 3  qrot/sn=   74830.9861 T*S(rot)=     7.54 kcal/mol T*S(tot)=    24.63 kcal/mol
 sn= 4  qrot/sn=   56123.2395 T*S(rot)=     7.37 kcal/mol T*S(tot)=    24.46 kcal/mol
 sn= 5  qrot/sn=   44898.5916 T*S(rot)=     7.24 kcal/mol T*S(tot)=    24.33 kcal/mol
 sn= 6  qrot/sn=   37415.4930 T*S(rot)=     7.13 kcal/mol T*S(tot)=    24.22 kcal/mol
 sn= 7  qrot/sn=   32070.4226 T*S(rot)=     7.04 kcal/mol T*S(tot)=    24.13 kcal/mol
 sn= 8  qrot/sn=   28061.6198 T*S(rot)=     6.96 kcal/mol T*S(tot)=    24.05 kcal/mol
 sn= 9  qrot/sn=   24943.6620 T*S(rot)=     6.89 kcal/mol T*S(tot)=    23.98 kcal/mol
 sn=10  qrot/sn=   22449.2958 T*S(rot)=     6.82 kcal/mol T*S(tot)=    23.92 kcal/mol
 sn=11  qrot/sn=   20408.4507 T*S(rot)=     6.77 kcal/mol T*S(tot)=    23.86 kcal/mol
 sn=12  qrot/sn=   18707.7465 T*S(rot)=     6.72 kcal/mol T*S(tot)=    23.81 kcal/mol

-------------------
GIBBS FREE ENTHALPY
-------------------

The Gibbs free enthalpy is G = H - T*S

Total enthalpy                    ...   -327.03427151 Eh
Total entropy correction          ...     -0.03925524 Eh    -24.63 kcal/mol
-----------------------------------------------------------------------
Final Gibbs free enthalpy         ...   -327.07352675 Eh

For completeness - the Gibbs free enthalpy minus the electronic energy
G-E(el)                           ...      0.14500104 Eh     90.99 kcal/mol

                             ****ORCA TERMINATED NORMALLY****
TOTAL RUN TIME: 0 days 0 hours 39 minutes 41 seconds 469 msec
