                         Program Version 3.0.3 - RELEASE   -
|  1> ! NORI PBE0 def2-TZVP UseSym TightOPT Freq TightSCF Grid3 FinalGrid5 XYZFile
|  2> % pal
|  3>     nprocs 8
|  4> end
|  5> %method
|  6>     SymThresh 5.0e-2
|  7> end
|  8> % geom
|  9>     MaxIter 10
| 10> end
| 11> % maxcore 2000
| 12> % output
| 13>     printlevel mini
| 14>     print[ P_Basis ] 0
| 15>     print[ P_SCFInfo ] 1
| 16>     print[ P_SCFIterInfo ] 1
| 17>     print[ P_OrbEn ] 0
| 18>     print[ P_Cartesian ] 0
| 19> end
| 20> % elprop
| 21>     Dipole false
| 22> end
| 23> *xyz 1 1
| 24>  C        0.9948254678     0.1184785804    -0.0097027755
| 25>  C        2.4840235111    -0.0407157683    -0.0288112015
| 26>  O        3.1890061325     1.0055053269     0.6508377612
| 27>  C        4.1155037883     0.0905222822     1.2261047913
| 28>  C        3.1985712450    -1.0829749343     0.8655845045
| 29>  C        2.4266222013    -1.7155004271     1.9909128200
| 30>  N        3.8825468778    -2.1726953166     0.0724254294
| 31>  H        0.7305823549     1.0342633264    -0.5417627520
| 32>  H        0.6082482742     0.1962626221     1.0064459467
| 33>  H        0.5031392753    -0.7131162458    -0.5211308710
| 34>  H        2.8405232617    -0.1159755631    -1.0712614034
| 35>  H        4.2814657031     0.2697961345     2.2900227307
| 36>  H        5.0823556100     0.0915667303     0.7023815380
| 37>  H        1.6358107035    -2.3782731686     1.6288870371
| 38>  H        1.9552688365    -0.9330340749     2.5852870850
| 39>  H        3.0848649887    -2.2782598315     2.6596095249
| 40>  H        4.4164070512    -1.7813590421    -0.7072460098
| 41>  H        3.1982083598    -2.8293566056    -0.3116994263
| 42>  H        4.5259963573    -2.7097840249     0.6594152706
| 43> *
| 44>
| 45>                          ****END OF INPUT****
 Total Charge           Charge          ....    1
 Multiplicity           Mult            ....    1
 Number of Electrons    NEL             ....   56
FINAL SINGLE POINT ENERGY      -327.195240604622

CARTESIAN COORDINATES (ANGSTROEM)
---------------------------------
  C     -1.496208    1.496978    0.351519
  C     -0.149589    0.849020    0.454723
  O      0.000680    0.000278    1.599522
  C      0.707798   -0.984074    0.852918
  C      0.249953   -0.336072   -0.457783
  C     -0.829486   -1.046190   -1.227967
  N      1.381398   -0.000021   -1.401978
  H     -1.640566    2.150706    1.213692
  H     -2.300718    0.761519    0.347985
  H     -1.567797    2.115427   -0.546887
  H      0.640047    1.620890    0.455115
  H      0.351360   -1.997735    1.045402
  H      1.792685   -0.940733    1.028859
  H     -1.258054   -0.418215   -2.013678
  H     -1.634931   -1.317985   -0.546105
  H     -0.457273   -1.972395   -1.675531
  H      2.135602    0.488945   -0.914026
  H      1.056000    0.601439   -2.163091
  H      1.773351   -0.844797   -1.825715

FINAL SINGLE POINT ENERGY      -327.195241594349
                    ***********************HURRAY********************
 Multiplicity           Mult            ....    1
 Number of Electrons    NEL             ....   56
 Basis Dimension        Dim             ....  289
FINAL SINGLE POINT ENERGY      -327.195241914914

VIBRATIONAL FREQUENCIES
-----------------------

   0:         0.00 cm**-1
   1:         0.00 cm**-1
   2:         0.00 cm**-1
   3:         0.00 cm**-1
   4:         0.00 cm**-1
   5:         0.00 cm**-1
   6:        81.07 cm**-1
   7:       192.42 cm**-1
   8:       209.30 cm**-1
   9:       226.91 cm**-1
  10:       260.22 cm**-1
  11:       285.93 cm**-1
  12:       347.68 cm**-1
  13:       364.14 cm**-1
  14:       422.27 cm**-1
  15:       515.65 cm**-1
  16:       615.86 cm**-1
  17:       764.79 cm**-1
  18:       872.46 cm**-1
  19:       890.18 cm**-1
  20:       917.66 cm**-1
  21:       949.67 cm**-1
  22:       973.63 cm**-1
  23:      1002.13 cm**-1
  24:      1064.19 cm**-1
  25:      1075.71 cm**-1
  26:      1118.86 cm**-1
  27:      1135.54 cm**-1
  28:      1178.78 cm**-1
  29:      1207.61 cm**-1
  30:      1258.96 cm**-1
  31:      1287.51 cm**-1
  32:      1337.51 cm**-1
  33:      1370.74 cm**-1
  34:      1388.94 cm**-1
  35:      1417.60 cm**-1
  36:      1425.00 cm**-1
  37:      1464.55 cm**-1
  38:      1479.00 cm**-1
  39:      1483.36 cm**-1
  40:      1492.58 cm**-1
  41:      1496.30 cm**-1
  42:      1519.06 cm**-1
  43:      1647.72 cm**-1
  44:      1655.24 cm**-1
  45:      2957.19 cm**-1
  46:      3005.90 cm**-1
  47:      3052.62 cm**-1
  48:      3063.83 cm**-1
  49:      3118.77 cm**-1
  50:      3125.54 cm**-1
  51:      3140.28 cm**-1
  52:      3157.18 cm**-1
  53:      3162.16 cm**-1
  54:      3406.98 cm**-1
  55:      3492.98 cm**-1
  56:      3496.00 cm**-1

IR SPECTRUM
-----------

 Mode    freq (cm**-1)   T**2         TX         TY         TZ
-------------------------------------------------------------------
   6:        81.07    4.429868  ( -1.039121  -1.783709   0.410460)
   7:       192.42    1.209383  ( -0.478641   0.971939  -0.188730)
   8:       209.30    0.398454  ( -0.153126  -0.546381   0.276541)
   9:       226.91    1.395063  (  0.826293  -0.775831  -0.332247)
  10:       260.22    4.857525  (  2.002081  -0.921168  -0.025407)
  11:       285.93    1.628311  ( -0.536127   0.921354  -0.701417)
  12:       347.68    6.435179  ( -1.827747  -0.918675  -1.500185)
  13:       364.14    5.617526  ( -0.973517   0.523412   2.096624)
  14:       422.27    2.156615  (  0.882095   0.274106   1.141661)
  15:       515.65    1.679152  (  0.364591  -0.679764   1.041223)
  16:       615.86    3.495071  ( -1.208527  -0.280184   1.398582)
  17:       764.79    3.228763  (  0.928437  -0.793688  -1.317887)
  18:       872.46    6.212849  (  0.646131  -2.087802   1.198519)
  19:       890.18   12.099351  ( -1.809241   1.802388  -2.361651)
  20:       917.66   11.348166  ( -0.969171  -0.994564   3.069156)
  21:       949.67    3.931807  ( -1.644320  -0.608247   0.926313)
  22:       973.63    6.284536  (  1.235239   0.505685   2.122028)
  23:      1002.13   17.528276  ( -1.260109  -3.933164  -0.686017)
  24:      1064.19   28.447772  ( -2.213598   4.635353   1.435706)
  25:      1075.71   33.722353  (  3.740838  -4.264582   1.241701)
  26:      1118.86   30.109403  (  0.562488  -3.998034   3.716011)
  27:      1135.54   33.987019  ( -3.636663   4.197100   1.773710)
  28:      1178.78    3.134466  (  1.455950  -0.929151  -0.389044)
  29:      1207.61   23.855270  ( -2.245466  -0.218000   4.331931)
  30:      1258.96    3.543835  ( -0.210818  -1.219876   1.418201)
  31:      1287.51    0.383281  ( -0.614196   0.076673   0.012840)
  32:      1337.51    6.892494  (  0.583684  -0.099548   2.557713)
  33:      1370.74    3.348674  ( -0.099256  -0.405590   1.781662)
  34:      1388.94    0.938565  ( -0.367727   0.626635  -0.640835)
  35:      1417.60   26.591687  (  4.170183  -2.967963   0.626460)
  36:      1425.00   25.506812  ( -3.610260  -3.495325  -0.505505)
  37:      1464.55   10.554706  (  0.708470  -1.527131  -2.778605)
  38:      1479.00    5.273720  (  1.533689  -1.289026  -1.122467)
  39:      1483.36    2.071747  (  0.970026   1.020511   0.298921)
  40:      1492.58  113.413280  (  6.785859   4.275064  -7.006370)
  41:      1496.30   38.889733  ( -5.325161   0.548668   3.198649)
  42:      1519.06   27.616096  ( -4.860656   0.008669   1.997509)
  43:      1647.72   48.391179  (  3.389734  -5.857944   1.607910)
  44:      1655.24   39.075694  ( -3.367515  -2.875104  -4.412404)
  45:      2957.19   44.244656  (  4.313964   4.761448  -1.721330)
  46:      3005.90   43.203964  ( -6.299398   1.816449   0.471234)
  47:      3052.62    4.247444  ( -0.871548   0.222266   1.854305)
  48:      3063.83    2.672078  (  0.344449  -0.153229   1.590583)
  49:      3118.77    6.079809  (  0.808069   2.327267   0.103244)
  50:      3125.54    5.243822  ( -0.880668   2.100110  -0.240384)
  51:      3140.28    2.802946  (  0.252827   1.062348  -1.269032)
  52:      3157.18    4.125763  ( -1.459666  -1.390702  -0.247159)
  53:      3162.16    1.261376  (  0.514721   0.805081  -0.590156)
  54:      3406.98   34.391082  ( -4.416297  -1.038051   3.716161)
  55:      3492.98   78.635075  (  3.933293  -7.750386   1.759488)
  56:      3496.00   73.701040  ( -3.958826  -3.713223  -6.651369)

--------------------------
THERMOCHEMISTRY AT 298.15K
--------------------------

Temperature         ... 298.15 K
Pressure            ... 1.00 atm
Total Mass          ... 102.16 AMU

Throughout the following assumptions are being made:
  (1) The electronic state is orbitally nondegenerate
  (2) There are no thermally accessible electronically excited states
  (3) Hindered rotations indicated by low frequency modes) are not
      treated as such but are treated as vibrations and this may
      case some error
  (4) All equations used are the standard statistical mechanics
      equations for an ideal gas
  (5) All vibrations are strinctly harmonic

------------
INNER ENERGY
------------

The inner energy is: U= E(el) + E(ZPE) + E(vib) + E(rot) + E(trans)
    E(el)   - is the total energy from the electronic structure calculation
              = E(kin-el) + E(nuc-el) + E(el-el) + E(nuc-nuc)
    E(ZPE)  - the the zero temperature vibrational energy from the frequency calculation
    E(vib)  - the the finite temperature correction to E(ZPE) due to population
              of excietd vibrational states
    E(rot)  - is the rotational thermal energy
    E(trans)- is the translational thermal energy

Summary of contributions to the inner energy U:
Electronic energy                ...   -327.19524191 Eh
Zero point energy                ...      0.17445324 Eh     109.47 kcal/mol
Thermal vibrational correction   ...      0.00529684 Eh       3.32 kcal/mol
Thermal rotational correction    ...      0.00141627 Eh       0.89 kcal/mol
Thermal translational correction ...      0.00141627 Eh       0.89 kcal/mol
-----------------------------------------------------------------------
Total thermal energy                   -327.01265929 Eh

Summary of corrections to the electronic energy:
(perhaps to be used in another calculation)
Total thermal correction                  0.00812939 Eh       5.10 kcal/mol
Non-thermal (ZPE) correction              0.17445324 Eh     109.47 kcal/mol
-----------------------------------------------------------------------
Total correction                          0.18258263 Eh     114.57 kcal/mol

--------
ENTHALPY
--------

The enthalpy is H = U + kB*T
                kB is Boltzmann's constant
Total free energy                 ...   -327.01265929 Eh
Thermal Enthalpy correction       ...      0.00094421 Eh       0.59 kcal/mol
-----------------------------------------------------------------------
Total Enthalpy                    ...   -327.01171508 Eh

-------
ENTROPY
-------

The entropy contributions are T*S = T*(S(el)+S(vib)+S(rot)+S(trans)
     S(el)   - electronic entropy
     S(vib)  - vibrational entropy
     S(rot)  - rotational entropy
     S(trans)- translational entropy
The entropies will be listed as mutliplied by the temperature to get
units of energy

Electronic entropy                ...      0.00000000 Eh      0.00 kcal/mol
Vibrational entropy               ...      0.00900414 Eh      5.65 kcal/mol
Rotational entropy                ...      0.01197199 Eh      7.51 kcal/mol
Translational entropy             ...      0.01890147 Eh     11.86 kcal/mol
-----------------------------------------------------------------------
Final entropy term                ...      0.03987759 Eh     25.02 kcal/mol

CAUTION: The rotational entropy is not quite correctly treated here
         because it includes a symmetry number that is not yet correctly
         implemented in ORCA!
For a nonlinear molecule the correct rotational entropy is:
    S(rot) = R*(ln(qrot/sn)+1.5)
    R    = 8.31441 J/mol/K = 1.987191683e-3 kcal/mol/K
    qrot = 214995.4529601
    sn is the rotational symmetry number. We have assumed 3 here
       if it is different for your molecule then you should correct
       the printed rotational entropy by manually evaluating the equation
       as given above

For convenience we print out the resulting values for sn=1 - 12:
 sn= 1  qrot/sn=  214995.4530 T*S(rot)=     8.16 kcal/mol T*S(tot)=    25.67 kcal/mol
 sn= 2  qrot/sn=  107497.7265 T*S(rot)=     7.75 kcal/mol T*S(tot)=    25.26 kcal/mol
 sn= 3  qrot/sn=   71665.1510 T*S(rot)=     7.51 kcal/mol T*S(tot)=    25.02 kcal/mol
 sn= 4  qrot/sn=   53748.8632 T*S(rot)=     7.34 kcal/mol T*S(tot)=    24.85 kcal/mol
 sn= 5  qrot/sn=   42999.0906 T*S(rot)=     7.21 kcal/mol T*S(tot)=    24.72 kcal/mol
 sn= 6  qrot/sn=   35832.5755 T*S(rot)=     7.10 kcal/mol T*S(tot)=    24.61 kcal/mol
 sn= 7  qrot/sn=   30713.6361 T*S(rot)=     7.01 kcal/mol T*S(tot)=    24.52 kcal/mol
 sn= 8  qrot/sn=   26874.4316 T*S(rot)=     6.93 kcal/mol T*S(tot)=    24.44 kcal/mol
 sn= 9  qrot/sn=   23888.3837 T*S(rot)=     6.86 kcal/mol T*S(tot)=    24.37 kcal/mol
 sn=10  qrot/sn=   21499.5453 T*S(rot)=     6.80 kcal/mol T*S(tot)=    24.31 kcal/mol
 sn=11  qrot/sn=   19545.0412 T*S(rot)=     6.74 kcal/mol T*S(tot)=    24.25 kcal/mol
 sn=12  qrot/sn=   17916.2877 T*S(rot)=     6.69 kcal/mol T*S(tot)=    24.20 kcal/mol

-------------------
GIBBS FREE ENTHALPY
-------------------

The Gibbs free enthalpy is G = H - T*S

Total enthalpy                    ...   -327.01171508 Eh
Total entropy correction          ...     -0.03987759 Eh    -25.02 kcal/mol
-----------------------------------------------------------------------
Final Gibbs free enthalpy         ...   -327.05159267 Eh

For completeness - the Gibbs free enthalpy minus the electronic energy
G-E(el)                           ...      0.14364924 Eh     90.14 kcal/mol

                             ****ORCA TERMINATED NORMALLY****
TOTAL RUN TIME: 0 days 0 hours 37 minutes 4 seconds 826 msec
