                         Program Version 3.0.3 - RELEASE   -
|  1> ! NORI PBE0 def2-TZVP UseSym TightOPT Freq TightSCF Grid3 FinalGrid5 XYZFile
|  2> % pal
|  3>     nprocs 8
|  4> end
|  5> %method
|  6>     SymThresh 5.0e-2
|  7> end
|  8> % geom
|  9>     MaxIter 10
| 10> end
| 11> % maxcore 2000
| 12> % output
| 13>     printlevel mini
| 14>     print[ P_Basis ] 0
| 15>     print[ P_SCFInfo ] 1
| 16>     print[ P_SCFIterInfo ] 1
| 17>     print[ P_OrbEn ] 0
| 18>     print[ P_Cartesian ] 0
| 19> end
| 20> % elprop
| 21>     Dipole false
| 22> end
| 23> *xyz 1 1
| 24>  C        0.9025573430    -0.0712842184    -0.0636569848
| 25>  C        2.3978382270    -0.0502331290     0.0421514769
| 26>  O        3.0241792205    -0.0956933946    -1.2490140836
| 27>  C        3.1070926352     1.0244889958     0.9096918267
| 28>  C        4.1642770583    -0.0342799452     1.2558213247
| 29>  N        5.2508996076    -0.0118673440     0.2171445097
| 30>  C        3.1367068053    -1.1119651746     0.8840194138
| 31>  H        0.5374308340     0.8093218125    -0.6012147710
| 32>  H        0.4417975132    -0.0677174393     0.9252545342
| 33>  H        0.5703370497    -0.9641313750    -0.5974840588
| 34>  H        2.5593121041     0.4920283339    -1.8547339640
| 35>  H        2.5297644029     1.2756274314     1.7995191486
| 36>  H        3.4283785947     1.9472888061     0.4217552923
| 37>  H        4.6328998889    -0.0394448137     2.2385739840
| 38>  H        4.7584451094    -0.0065802066    -0.7011819358
| 39>  H        5.8502431880    -0.8360430398     0.2755033627
| 40>  H        5.8370879448     0.8198328371     0.2958586925
| 41>  H        3.4783928598    -2.0110632133     0.3678762437
| 42>  H        2.5612396134    -1.3980449233     1.7636659882
| 43> *
| 44>
| 45>                          ****END OF INPUT****
 Total Charge           Charge          ....    1
 Multiplicity           Mult            ....    1
 Number of Electrons    NEL             ....   56
FINAL SINGLE POINT ENERGY      -327.222864554062
FINAL SINGLE POINT ENERGY      -327.222865173927

CARTESIAN COORDINATES (ANGSTROEM)
---------------------------------
  C     -2.229163   -0.020312    0.520800
  C     -0.751504   -0.013783    0.267126
  O     -0.001195   -0.000237    1.491165
  C     -0.118299   -1.048108   -0.702288
  C      0.884798    0.038654   -1.116561
  N      2.071058   -0.000016   -0.193169
  C     -0.113764    1.086846   -0.606748
  H     -2.527720   -0.923995    1.060746
  H     -2.785499    0.001561   -0.417584
  H     -2.517696    0.848646    1.115396
  H     -0.397977   -0.612441    2.120702
  H     -0.778785   -1.279401   -1.537978
  H      0.261912   -1.980953   -0.279790
  H      1.251744    0.083539   -2.140323
  H      1.674216   -0.043655    0.769029
  H      2.650906    0.835246   -0.282845
  H      2.657439   -0.818691   -0.358702
  H      0.266055    1.973939   -0.096209
  H     -0.778297    1.392231   -1.414125

FINAL SINGLE POINT ENERGY      -327.222866048462
                    ***********************HURRAY********************
 Multiplicity           Mult            ....    1
 Number of Electrons    NEL             ....   56
 Basis Dimension        Dim             ....  289
FINAL SINGLE POINT ENERGY      -327.222866240037

VIBRATIONAL FREQUENCIES
-----------------------

   0:         0.00 cm**-1
   1:         0.00 cm**-1
   2:         0.00 cm**-1
   3:         0.00 cm**-1
   4:         0.00 cm**-1
   5:         0.00 cm**-1
   6:       202.45 cm**-1
   7:       223.27 cm**-1
   8:       241.74 cm**-1
   9:       340.02 cm**-1
  10:       348.66 cm**-1
  11:       380.50 cm**-1
  12:       401.03 cm**-1
  13:       414.47 cm**-1
  14:       450.00 cm**-1
  15:       453.68 cm**-1
  16:       661.35 cm**-1
  17:       807.75 cm**-1
  18:       820.39 cm**-1
  19:       841.31 cm**-1
  20:       905.13 cm**-1
  21:       916.93 cm**-1
  22:       928.72 cm**-1
  23:       979.03 cm**-1
  24:       997.00 cm**-1
  25:      1039.06 cm**-1
  26:      1057.25 cm**-1
  27:      1121.47 cm**-1
  28:      1143.74 cm**-1
  29:      1188.03 cm**-1
  30:      1237.84 cm**-1
  31:      1241.03 cm**-1
  32:      1264.35 cm**-1
  33:      1279.25 cm**-1
  34:      1303.40 cm**-1
  35:      1390.06 cm**-1
  36:      1397.24 cm**-1
  37:      1423.88 cm**-1
  38:      1448.54 cm**-1
  39:      1476.24 cm**-1
  40:      1482.21 cm**-1
  41:      1483.82 cm**-1
  42:      1490.54 cm**-1
  43:      1646.15 cm**-1
  44:      1676.70 cm**-1
  45:      3053.01 cm**-1
  46:      3086.12 cm**-1
  47:      3095.06 cm**-1
  48:      3128.73 cm**-1
  49:      3134.88 cm**-1
  50:      3148.98 cm**-1
  51:      3152.30 cm**-1
  52:      3156.58 cm**-1
  53:      3165.47 cm**-1
  54:      3465.89 cm**-1
  55:      3525.25 cm**-1
  56:      3830.37 cm**-1

IR SPECTRUM
-----------

 Mode    freq (cm**-1)   T**2         TX         TY         TZ
-------------------------------------------------------------------
   6:       202.45   30.828350  (  4.148432  -0.140933  -3.687682)
   7:       223.27    4.949172  (  0.214651   2.190405  -0.324385)
   8:       241.74    0.719221  (  0.224489   0.811783  -0.099165)
   9:       340.02   26.584301  (  4.936799  -0.260747  -1.464352)
  10:       348.66   29.615029  ( -2.137411   4.634945   1.887800)
  11:       380.50    9.777826  (  1.954666  -1.817320  -1.629250)
  12:       401.03   24.785153  (  2.199241  -4.348684  -1.018547)
  13:       414.47   31.696733  (  2.944729  -2.972914  -3.766575)
  14:       450.00    3.445202  (  1.337464  -0.562295   1.157677)
  15:       453.68   20.728572  (  3.425615  -1.270394  -2.716585)
  16:       661.35    9.894994  ( -3.026966   0.238221   0.822021)
  17:       807.75    1.033493  ( -0.771968  -0.652503  -0.108622)
  18:       820.39    6.321070  ( -2.048480   0.035622   1.457234)
  19:       841.31   10.660954  ( -1.019255   0.220688   3.094086)
  20:       905.13    1.195163  ( -0.453372   0.646097   0.756423)
  21:       916.93   29.149712  (  2.345817   0.053548   4.862508)
  22:       928.72    1.896125  ( -0.826697  -0.673951  -0.870912)
  23:       979.03   13.793336  (  2.587963  -0.218583  -2.654808)
  24:       997.00    3.538299  (  0.771888   0.120131  -1.711156)
  25:      1039.06   10.460306  ( -0.009060   2.833988  -1.558441)
  26:      1057.25   18.662330  ( -4.200364   0.672379   0.753115)
  27:      1121.47   44.451936  (  3.638276  -1.692961   5.324356)
  28:      1143.74   26.472278  ( -1.760775  -2.977118  -3.809031)
  29:      1188.03   37.576905  ( -0.924726  -0.942483  -5.986110)
  30:      1237.84   11.996069  (  0.059812   0.828656  -3.362413)
  31:      1241.03    0.380234  (  0.096794   0.302425  -0.528586)
  32:      1264.35   50.420450  (  2.748125   0.319615   6.539580)
  33:      1279.25   10.471747  (  2.462867  -0.180778  -2.091256)
  34:      1303.40    6.520826  (  1.172968  -1.638828  -1.568188)
  35:      1390.06   30.505847  (  5.388833   0.967582  -0.728085)
  36:      1397.24   14.752451  ( -1.125330  -0.009310   3.672329)
  37:      1423.88   49.103356  (  6.939473   0.326444   0.916793)
  38:      1448.54   21.111092  ( -0.170288   4.590619   0.091153)
  39:      1476.24    6.388021  ( -1.953642   1.315698  -0.916649)
  40:      1482.21   15.244101  (  2.737263   1.859110   2.072487)
  41:      1483.82    8.231717  ( -2.084820  -1.697087   1.002566)
  42:      1490.54  180.395455  ( 12.532641  -0.678034   4.782117)
  43:      1646.15   15.224966  ( -3.030787   0.211662   2.448366)
  44:      1676.70   24.484145  (  0.484653  -4.923371   0.098381)
  45:      3053.01    2.583767  (  1.086871   0.827225  -0.847454)
  46:      3086.12    7.199128  ( -0.399815   2.569945  -0.659286)
  47:      3095.06    2.324264  ( -0.448264  -1.167223  -0.872304)
  48:      3128.73    6.566761  ( -1.746313   1.760410   0.646612)
  49:      3134.88  233.003050  (  9.744971   0.889067 -11.715295)
  50:      3148.98    2.343836  ( -1.102436  -0.948294   0.478758)
  51:      3152.30   58.077063  (  4.130627   0.186897  -6.401567)
  52:      3156.58    2.427043  ( -0.674233   1.360985  -0.346660)
  53:      3165.47    1.329550  ( -0.612559  -0.974805  -0.063858)
  54:      3465.89   91.561261  ( -9.036880  -0.467893   3.110810)
  55:      3525.25   77.530160  ( -0.153569   8.790621   0.481205)
  56:      3830.37   73.913687  ( -2.341152  -4.033912   7.222205)

--------------------------
THERMOCHEMISTRY AT 298.15K
--------------------------

Temperature         ... 298.15 K
Pressure            ... 1.00 atm
Total Mass          ... 102.16 AMU

Throughout the following assumptions are being made:
  (1) The electronic state is orbitally nondegenerate
  (2) There are no thermally accessible electronically excited states
  (3) Hindered rotations indicated by low frequency modes) are not
      treated as such but are treated as vibrations and this may
      case some error
  (4) All equations used are the standard statistical mechanics
      equations for an ideal gas
  (5) All vibrations are strinctly harmonic

------------
INNER ENERGY
------------

The inner energy is: U= E(el) + E(ZPE) + E(vib) + E(rot) + E(trans)
    E(el)   - is the total energy from the electronic structure calculation
              = E(kin-el) + E(nuc-el) + E(el-el) + E(nuc-nuc)
    E(ZPE)  - the the zero temperature vibrational energy from the frequency calculation
    E(vib)  - the the finite temperature correction to E(ZPE) due to population
              of excietd vibrational states
    E(rot)  - is the rotational thermal energy
    E(trans)- is the translational thermal energy

Summary of contributions to the inner energy U:
Electronic energy                ...   -327.22286624 Eh
Zero point energy                ...      0.17552565 Eh     110.14 kcal/mol
Thermal vibrational correction   ...      0.00458921 Eh       2.88 kcal/mol
Thermal rotational correction    ...      0.00141627 Eh       0.89 kcal/mol
Thermal translational correction ...      0.00141627 Eh       0.89 kcal/mol
-----------------------------------------------------------------------
Total thermal energy                   -327.03991883 Eh

Summary of corrections to the electronic energy:
(perhaps to be used in another calculation)
Total thermal correction                  0.00742176 Eh       4.66 kcal/mol
Non-thermal (ZPE) correction              0.17552565 Eh     110.14 kcal/mol
-----------------------------------------------------------------------
Total correction                          0.18294741 Eh     114.80 kcal/mol

--------
ENTHALPY
--------

The enthalpy is H = U + kB*T
                kB is Boltzmann's constant
Total free energy                 ...   -327.03991883 Eh
Thermal Enthalpy correction       ...      0.00094421 Eh       0.59 kcal/mol
-----------------------------------------------------------------------
Total Enthalpy                    ...   -327.03897462 Eh

-------
ENTROPY
-------

The entropy contributions are T*S = T*(S(el)+S(vib)+S(rot)+S(trans)
     S(el)   - electronic entropy
     S(vib)  - vibrational entropy
     S(rot)  - rotational entropy
     S(trans)- translational entropy
The entropies will be listed as mutliplied by the temperature to get
units of energy

Electronic entropy                ...      0.00000000 Eh      0.00 kcal/mol
Vibrational entropy               ...      0.00703838 Eh      4.42 kcal/mol
Rotational entropy                ...      0.01189472 Eh      7.46 kcal/mol
Translational entropy             ...      0.01890147 Eh     11.86 kcal/mol
-----------------------------------------------------------------------
Final entropy term                ...      0.03783457 Eh     23.74 kcal/mol

CAUTION: The rotational entropy is not quite correctly treated here
         because it includes a symmetry number that is not yet correctly
         implemented in ORCA!
For a nonlinear molecule the correct rotational entropy is:
    S(rot) = R*(ln(qrot/sn)+1.5)
    R    = 8.31441 J/mol/K = 1.987191683e-3 kcal/mol/K
    qrot = 198102.4977358
    sn is the rotational symmetry number. We have assumed 3 here
       if it is different for your molecule then you should correct
       the printed rotational entropy by manually evaluating the equation
       as given above

For convenience we print out the resulting values for sn=1 - 12:
 sn= 1  qrot/sn=  198102.4977 T*S(rot)=     8.11 kcal/mol T*S(tot)=    24.39 kcal/mol
 sn= 2  qrot/sn=   99051.2489 T*S(rot)=     7.70 kcal/mol T*S(tot)=    23.98 kcal/mol
 sn= 3  qrot/sn=   66034.1659 T*S(rot)=     7.46 kcal/mol T*S(tot)=    23.74 kcal/mol
 sn= 4  qrot/sn=   49525.6244 T*S(rot)=     7.29 kcal/mol T*S(tot)=    23.57 kcal/mol
 sn= 5  qrot/sn=   39620.4995 T*S(rot)=     7.16 kcal/mol T*S(tot)=    23.44 kcal/mol
 sn= 6  qrot/sn=   33017.0830 T*S(rot)=     7.05 kcal/mol T*S(tot)=    23.33 kcal/mol
 sn= 7  qrot/sn=   28300.3568 T*S(rot)=     6.96 kcal/mol T*S(tot)=    23.24 kcal/mol
 sn= 8  qrot/sn=   24762.8122 T*S(rot)=     6.88 kcal/mol T*S(tot)=    23.16 kcal/mol
 sn= 9  qrot/sn=   22011.3886 T*S(rot)=     6.81 kcal/mol T*S(tot)=    23.09 kcal/mol
 sn=10  qrot/sn=   19810.2498 T*S(rot)=     6.75 kcal/mol T*S(tot)=    23.03 kcal/mol
 sn=11  qrot/sn=   18009.3180 T*S(rot)=     6.69 kcal/mol T*S(tot)=    22.97 kcal/mol
 sn=12  qrot/sn=   16508.5415 T*S(rot)=     6.64 kcal/mol T*S(tot)=    22.92 kcal/mol

-------------------
GIBBS FREE ENTHALPY
-------------------

The Gibbs free enthalpy is G = H - T*S

Total enthalpy                    ...   -327.03897462 Eh
Total entropy correction          ...     -0.03783457 Eh    -23.74 kcal/mol
-----------------------------------------------------------------------
Final Gibbs free enthalpy         ...   -327.07680919 Eh

For completeness - the Gibbs free enthalpy minus the electronic energy
G-E(el)                           ...      0.14605705 Eh     91.65 kcal/mol

                             ****ORCA TERMINATED NORMALLY****
TOTAL RUN TIME: 0 days 0 hours 40 minutes 34 seconds 15 msec
