                         Program Version 3.0.3 - RELEASE   -
|  1> ! NORI PBE0 def2-TZVP UseSym TightOPT Freq TightSCF Grid3 FinalGrid5 XYZFile
|  2> % pal
|  3>     nprocs 8
|  4> end
|  5> %method
|  6>     SymThresh 5.0e-2
|  7> end
|  8> % geom
|  9>     MaxIter 10
| 10> end
| 11> % maxcore 2000
| 12> % output
| 13>     printlevel mini
| 14>     print[ P_Basis ] 0
| 15>     print[ P_SCFInfo ] 1
| 16>     print[ P_SCFIterInfo ] 1
| 17>     print[ P_OrbEn ] 0
| 18>     print[ P_Cartesian ] 0
| 19> end
| 20> % elprop
| 21>     Dipole false
| 22> end
| 23> *xyz 1 1
| 24>  C        0.9707915142     0.0297963505    -0.0308703370
| 25>  C        2.4454119933    -0.2141829213     0.0723429144
| 26>  O        2.8694017473    -0.3349011181     1.3704026568
| 27>  C        3.1668089015    -1.0892407933    -0.9386977284
| 28>  N        2.4663800977    -1.7418108309    -2.0679976991
| 29>  C        3.3893491281     0.3900189220    -0.9379874152
| 30>  O        4.6574755576     0.7515736548    -0.5352029781
| 31>  H        0.6354220498     0.1923855932    -1.0602484466
| 32>  H        0.7199310790     0.9323107480     0.5282358240
| 33>  H        0.4082181672    -0.7999210266     0.4028564456
| 34>  H        3.7792820573    -0.0163168463     1.4409620970
| 35>  H        3.9790288033    -1.7012028730    -0.5650205134
| 36>  H        1.6136606275    -1.2340215800    -2.3143403581
| 37>  H        2.1855436931    -2.6942318810    -1.8201409682
| 38>  H        3.0547169429    -1.7934879562    -2.9050371738
| 39>  H        2.9414935653     0.9770189333    -1.7403818628
| 40>  H        4.6905040748     1.7010036249    -0.3733344571
| 41> *
| 42>
| 43>                          ****END OF INPUT****
 Total Charge           Charge          ....    1
 Multiplicity           Mult            ....    1
 Number of Electrons    NEL             ....   56
FINAL SINGLE POINT ENERGY      -363.087161921110
FINAL SINGLE POINT ENERGY      -363.087162613313

CARTESIAN COORDINATES (ANGSTROEM)
---------------------------------
  C     -1.452314    1.273875    0.409198
  C     -0.310572    0.309189    0.514280
  O     -0.000147   -0.000411    1.813331
  C     -0.145388   -0.821051   -0.487412
  N     -1.088484   -1.032754   -1.608377
  C      0.803260    0.335635   -0.503173
  O      2.080061    0.001184   -0.104549
  H     -1.661991    1.577052   -0.621672
  H     -1.201936    2.181316    0.960205
  H     -2.358493    0.853186    0.850589
  H      0.944569   -0.194641    1.878882
  H      0.240937   -1.759011   -0.107263
  H     -1.562609   -0.161722   -1.857482
  H     -1.815719   -1.705329   -1.350370
  H     -0.615419   -1.384921   -2.446046
  H      0.713878    1.061526   -1.311611
  H      2.595794    0.801474    0.044934

FINAL SINGLE POINT ENERGY      -363.087162904793
                    ***********************HURRAY********************
 Multiplicity           Mult            ....    1
 Number of Electrons    NEL             ....   56
 Basis Dimension        Dim             ....  277
FINAL SINGLE POINT ENERGY      -363.087162981160

VIBRATIONAL FREQUENCIES
-----------------------

   0:         0.00 cm**-1
   1:         0.00 cm**-1
   2:         0.00 cm**-1
   3:         0.00 cm**-1
   4:         0.00 cm**-1
   5:         0.00 cm**-1
   6:       144.39 cm**-1
   7:       175.97 cm**-1
   8:       186.92 cm**-1
   9:       232.22 cm**-1
  10:       235.52 cm**-1
  11:       267.34 cm**-1
  12:       293.79 cm**-1
  13:       374.51 cm**-1
  14:       407.68 cm**-1
  15:       461.44 cm**-1
  16:       490.40 cm**-1
  17:       631.19 cm**-1
  18:       738.70 cm**-1
  19:       800.07 cm**-1
  20:       896.24 cm**-1
  21:       954.82 cm**-1
  22:       983.01 cm**-1
  23:      1016.13 cm**-1
  24:      1071.07 cm**-1
  25:      1092.42 cm**-1
  26:      1113.31 cm**-1
  27:      1163.25 cm**-1
  28:      1199.07 cm**-1
  29:      1220.72 cm**-1
  30:      1260.22 cm**-1
  31:      1319.47 cm**-1
  32:      1375.43 cm**-1
  33:      1388.56 cm**-1
  34:      1434.01 cm**-1
  35:      1463.16 cm**-1
  36:      1482.06 cm**-1
  37:      1510.72 cm**-1
  38:      1525.47 cm**-1
  39:      1649.25 cm**-1
  40:      1659.65 cm**-1
  41:      3046.77 cm**-1
  42:      3116.68 cm**-1
  43:      3123.34 cm**-1
  44:      3149.21 cm**-1
  45:      3208.37 cm**-1
  46:      3401.78 cm**-1
  47:      3475.54 cm**-1
  48:      3489.17 cm**-1
  49:      3778.10 cm**-1
  50:      3833.29 cm**-1

IR SPECTRUM
-----------

 Mode    freq (cm**-1)   T**2         TX         TY         TZ
-------------------------------------------------------------------
   6:       144.39    4.737072  (  0.740572  -0.392582  -2.008608)
   7:       175.97    4.338098  ( -1.371621   0.637542   1.431885)
   8:       186.92   12.849515  (  0.180751   1.256947  -3.352153)
   9:       232.22   15.973985  (  0.659858  -2.933825   2.632726)
  10:       235.52   15.374748  ( -1.248539   0.758475   3.638765)
  11:       267.34   78.073234  (  3.943615   6.484675  -4.524393)
  12:       293.79   28.649456  (  3.750476   1.255092  -3.606679)
  13:       374.51    8.636896  (  1.590899   0.665859  -2.379615)
  14:       407.68   38.273900  (  1.630292  -3.081573  -5.110768)
  15:       461.44   63.171827  (  0.336884   5.520797   5.707814)
  16:       490.40   13.917837  (  3.628997   0.529729  -0.683814)
  17:       631.19    9.590936  (  3.026663  -0.268830   0.598311)
  18:       738.70    2.364473  ( -0.552262   1.310190  -0.585561)
  19:       800.07   52.245830  (  0.628191   4.018489   5.975195)
  20:       896.24   20.968169  ( -3.329658  -2.863662   1.296527)
  21:       954.82    5.708190  (  1.418362   0.040072   1.922195)
  22:       983.01    5.499038  (  0.194820   0.731043   2.219608)
  23:      1016.13   14.408358  ( -2.471704   2.875932  -0.167488)
  24:      1071.07   23.533240  (  3.286322  -2.158026   2.841874)
  25:      1092.42   26.046334  (  0.908049  -3.522124  -3.580003)
  26:      1113.31   24.801043  ( -3.452198   2.106806  -2.905983)
  27:      1163.25    6.804300  (  0.878402   0.750333  -2.338741)
  28:      1199.07   56.783044  ( -4.749255   2.221228  -5.412372)
  29:      1220.72   56.667195  (  3.909908   1.820581  -6.169708)
  30:      1260.22   99.463009  ( -9.823902   1.688681  -0.319882)
  31:      1319.47   77.022138  ( -0.889117  -1.080261  -8.663985)
  32:      1375.43   42.885458  (  1.062771  -3.186554   5.621552)
  33:      1388.56   10.748438  (  0.445613  -0.041986   3.247785)
  34:      1434.01    8.298066  (  1.868679  -2.140851  -0.472082)
  35:      1463.16   11.499102  ( -1.516418  -2.559981  -1.626677)
  36:      1482.06    4.470399  (  2.058849   0.450383   0.169393)
  37:      1510.72  108.935055  ( -5.557864  -0.788169  -8.799091)
  38:      1525.47   30.888500  ( -3.744753  -0.530736  -4.072302)
  39:      1649.25   36.509439  ( -3.194013  -3.826252   3.415775)
  40:      1659.65   42.394924  ( -3.505255   5.325651   1.321194)
  41:      3046.77   12.886416  (  1.664136   0.041935   3.180457)
  42:      3116.68    7.641723  ( -2.322434   1.172783  -0.934133)
  43:      3123.34   12.880056  (  0.067208  -0.430436   3.562340)
  44:      3149.21    0.613339  (  0.771369   0.135133  -0.008201)
  45:      3208.37    4.534153  (  0.464233  -2.058136   0.287609)
  46:      3401.78   30.952481  (  2.549748   2.592178   4.210924)
  47:      3475.54   97.960938  (  8.252184   0.207646  -5.460704)
  48:      3489.17   98.827553  (  0.848994  -9.870388   0.825950)
  49:      3778.10   91.935411  ( -9.014100   0.937595  -3.130866)
  50:      3833.29  111.977821  (  8.264417   6.474404   1.326396)

--------------------------
THERMOCHEMISTRY AT 298.15K
--------------------------

Temperature         ... 298.15 K
Pressure            ... 1.00 atm
Total Mass          ... 104.13 AMU

Throughout the following assumptions are being made:
  (1) The electronic state is orbitally nondegenerate
  (2) There are no thermally accessible electronically excited states
  (3) Hindered rotations indicated by low frequency modes) are not
      treated as such but are treated as vibrations and this may
      case some error
  (4) All equations used are the standard statistical mechanics
      equations for an ideal gas
  (5) All vibrations are strinctly harmonic

------------
INNER ENERGY
------------

The inner energy is: U= E(el) + E(ZPE) + E(vib) + E(rot) + E(trans)
    E(el)   - is the total energy from the electronic structure calculation
              = E(kin-el) + E(nuc-el) + E(el-el) + E(nuc-nuc)
    E(ZPE)  - the the zero temperature vibrational energy from the frequency calculation
    E(vib)  - the the finite temperature correction to E(ZPE) due to population
              of excietd vibrational states
    E(rot)  - is the rotational thermal energy
    E(trans)- is the translational thermal energy

Summary of contributions to the inner energy U:
Electronic energy                ...   -363.08716298 Eh
Zero point energy                ...      0.14999558 Eh      94.12 kcal/mol
Thermal vibrational correction   ...      0.00555923 Eh       3.49 kcal/mol
Thermal rotational correction    ...      0.00141627 Eh       0.89 kcal/mol
Thermal translational correction ...      0.00141627 Eh       0.89 kcal/mol
-----------------------------------------------------------------------
Total thermal energy                   -362.92877563 Eh

Summary of corrections to the electronic energy:
(perhaps to be used in another calculation)
Total thermal correction                  0.00839177 Eh       5.27 kcal/mol
Non-thermal (ZPE) correction              0.14999558 Eh      94.12 kcal/mol
-----------------------------------------------------------------------
Total correction                          0.15838735 Eh      99.39 kcal/mol

--------
ENTHALPY
--------

The enthalpy is H = U + kB*T
                kB is Boltzmann's constant
Total free energy                 ...   -362.92877563 Eh
Thermal Enthalpy correction       ...      0.00094421 Eh       0.59 kcal/mol
-----------------------------------------------------------------------
Total Enthalpy                    ...   -362.92783142 Eh

-------
ENTROPY
-------

The entropy contributions are T*S = T*(S(el)+S(vib)+S(rot)+S(trans)
     S(el)   - electronic entropy
     S(vib)  - vibrational entropy
     S(rot)  - rotational entropy
     S(trans)- translational entropy
The entropies will be listed as mutliplied by the temperature to get
units of energy

Electronic entropy                ...      0.00000000 Eh      0.00 kcal/mol
Vibrational entropy               ...      0.00920953 Eh      5.78 kcal/mol
Rotational entropy                ...      0.01206188 Eh      7.57 kcal/mol
Translational entropy             ...      0.01892854 Eh     11.88 kcal/mol
-----------------------------------------------------------------------
Final entropy term                ...      0.04019995 Eh     25.23 kcal/mol

CAUTION: The rotational entropy is not quite correctly treated here
         because it includes a symmetry number that is not yet correctly
         implemented in ORCA!
For a nonlinear molecule the correct rotational entropy is:
    S(rot) = R*(ln(qrot/sn)+1.5)
    R    = 8.31441 J/mol/K = 1.987191683e-3 kcal/mol/K
    qrot = 236469.3479465
    sn is the rotational symmetry number. We have assumed 3 here
       if it is different for your molecule then you should correct
       the printed rotational entropy by manually evaluating the equation
       as given above

For convenience we print out the resulting values for sn=1 - 12:
 sn= 1  qrot/sn=  236469.3479 T*S(rot)=     8.22 kcal/mol T*S(tot)=    25.88 kcal/mol
 sn= 2  qrot/sn=  118234.6740 T*S(rot)=     7.81 kcal/mol T*S(tot)=    25.47 kcal/mol
 sn= 3  qrot/sn=   78823.1160 T*S(rot)=     7.57 kcal/mol T*S(tot)=    25.23 kcal/mol
 sn= 4  qrot/sn=   59117.3370 T*S(rot)=     7.40 kcal/mol T*S(tot)=    25.06 kcal/mol
 sn= 5  qrot/sn=   47293.8696 T*S(rot)=     7.27 kcal/mol T*S(tot)=    24.92 kcal/mol
 sn= 6  qrot/sn=   39411.5580 T*S(rot)=     7.16 kcal/mol T*S(tot)=    24.82 kcal/mol
 sn= 7  qrot/sn=   33781.3354 T*S(rot)=     7.07 kcal/mol T*S(tot)=    24.72 kcal/mol
 sn= 8  qrot/sn=   29558.6685 T*S(rot)=     6.99 kcal/mol T*S(tot)=    24.64 kcal/mol
 sn= 9  qrot/sn=   26274.3720 T*S(rot)=     6.92 kcal/mol T*S(tot)=    24.57 kcal/mol
 sn=10  qrot/sn=   23646.9348 T*S(rot)=     6.86 kcal/mol T*S(tot)=    24.51 kcal/mol
 sn=11  qrot/sn=   21497.2134 T*S(rot)=     6.80 kcal/mol T*S(tot)=    24.46 kcal/mol
 sn=12  qrot/sn=   19705.7790 T*S(rot)=     6.75 kcal/mol T*S(tot)=    24.40 kcal/mol

-------------------
GIBBS FREE ENTHALPY
-------------------

The Gibbs free enthalpy is G = H - T*S

Total enthalpy                    ...   -362.92783142 Eh
Total entropy correction          ...     -0.04019995 Eh    -25.23 kcal/mol
-----------------------------------------------------------------------
Final Gibbs free enthalpy         ...   -362.96803137 Eh

For completeness - the Gibbs free enthalpy minus the electronic energy
G-E(el)                           ...      0.11913161 Eh     74.76 kcal/mol

                             ****ORCA TERMINATED NORMALLY****
TOTAL RUN TIME: 0 days 0 hours 27 minutes 48 seconds 971 msec
