                         Program Version 3.0.3 - RELEASE   -
|  1> ! NORI PBE0 def2-TZVP UseSym TightOPT Freq TightSCF Grid3 FinalGrid5 XYZFile
|  2> % pal
|  3>     nprocs 8
|  4> end
|  5> %method
|  6>     SymThresh 5.0e-2
|  7> end
|  8> % geom
|  9>     MaxIter 10
| 10> end
| 11> % maxcore 2000
| 12> % output
| 13>     printlevel mini
| 14>     print[ P_Basis ] 0
| 15>     print[ P_SCFInfo ] 1
| 16>     print[ P_SCFIterInfo ] 1
| 17>     print[ P_OrbEn ] 0
| 18>     print[ P_Cartesian ] 0
| 19> end
| 20> % elprop
| 21>     Dipole false
| 22> end
| 23> *xyz 1 1
| 24>  C        0.9420922251     0.0621143140     0.0338738868
| 25>  C        2.3963379694    -0.2119277930    -0.1891147596
| 26>  O        3.2663942379     0.8220103969     0.3930056824
| 27>  C        3.9772536019    -0.0667164184     1.1063951902
| 28>  O        4.9652929377     0.0448965297     1.7397768997
| 29>  C        3.0879006172    -1.2479112302     0.7080128851
| 30>  N        3.8686127565    -2.3567496297     0.0896978496
| 31>  H        0.6615652636     0.9892252604    -0.4672854374
| 32>  H        0.7160133400     0.1632392565     1.0969327254
| 33>  H        0.3358093019    -0.7445005111    -0.3852669252
| 34>  H        2.6432163955    -0.3127025411    -1.2510115564
| 35>  H        2.4793540110    -1.6592052548     1.5127865056
| 36>  H        4.3757839427    -2.0427622328    -0.7428692856
| 37>  H        3.2813150370    -3.1503811165    -0.1790728771
| 38>  H        4.5711683628    -2.6930690300     0.7589892167
| 39> *
| 40>
| 41>                          ****END OF INPUT****
 Total Charge           Charge          ....    1
 Multiplicity           Mult            ....    1
 Number of Electrons    NEL             ....   54
FINAL SINGLE POINT ENERGY      -361.901093756177

CARTESIAN COORDINATES (ANGSTROEM)
---------------------------------
  C     -2.129376   -0.988129    0.511156
  C     -1.094779    0.073229    0.303871
  O     -0.000139    0.000050    1.284406
  C      0.949860   -0.057764    0.336679
  O      2.125677    0.000015    0.398588
  C     -0.060148   -0.126890   -0.812286
  N      0.158376    0.950323   -1.819041
  H     -2.604761   -0.853005    1.483368
  H     -1.686475   -1.985407    0.479890
  H     -2.904055   -0.917125   -0.256026
  H     -1.519836    1.081569    0.336170
  H     -0.103129   -1.083522   -1.331894
  H      0.097805    1.880717   -1.395143
  H     -0.512216    0.910863   -2.590921
  H      1.102520    0.861704   -2.213001

FINAL SINGLE POINT ENERGY      -361.901094022023
                    ***********************HURRAY********************
 Multiplicity           Mult            ....    1
 Number of Electrons    NEL             ....   54
 Basis Dimension        Dim             ....  265
FINAL SINGLE POINT ENERGY      -361.901094174310

VIBRATIONAL FREQUENCIES
-----------------------

   0:         0.00 cm**-1
   1:         0.00 cm**-1
   2:         0.00 cm**-1
   3:         0.00 cm**-1
   4:         0.00 cm**-1
   5:         0.00 cm**-1
   6:       102.09 cm**-1
   7:       165.34 cm**-1
   8:       199.97 cm**-1
   9:       228.43 cm**-1
  10:       258.59 cm**-1
  11:       309.18 cm**-1
  12:       460.60 cm**-1
  13:       542.98 cm**-1
  14:       671.55 cm**-1
  15:       730.26 cm**-1
  16:       838.96 cm**-1
  17:       853.38 cm**-1
  18:       891.66 cm**-1
  19:      1005.84 cm**-1
  20:      1065.42 cm**-1
  21:      1078.23 cm**-1
  22:      1084.42 cm**-1
  23:      1131.89 cm**-1
  24:      1175.95 cm**-1
  25:      1187.10 cm**-1
  26:      1247.89 cm**-1
  27:      1321.81 cm**-1
  28:      1363.85 cm**-1
  29:      1414.81 cm**-1
  30:      1422.16 cm**-1
  31:      1473.75 cm**-1
  32:      1485.64 cm**-1
  33:      1521.59 cm**-1
  34:      1651.47 cm**-1
  35:      1655.05 cm**-1
  36:      1973.58 cm**-1
  37:      3063.74 cm**-1
  38:      3075.79 cm**-1
  39:      3145.33 cm**-1
  40:      3147.53 cm**-1
  41:      3157.73 cm**-1
  42:      3392.74 cm**-1
  43:      3462.98 cm**-1
  44:      3488.63 cm**-1

IR SPECTRUM
-----------

 Mode    freq (cm**-1)   T**2         TX         TY         TZ
-------------------------------------------------------------------
   6:       102.09    1.647328  (  0.324624   1.169225   0.418164)
   7:       165.34    8.705595  ( -1.623899   0.473647  -2.417479)
   8:       199.97   11.557567  (  2.307481  -1.348518   2.101094)
   9:       228.43    1.750373  ( -0.365644  -0.394672   1.208682)
  10:       258.59    0.607618  ( -0.333987   0.070660   0.700770)
  11:       309.18   14.156284  (  1.641750   2.209901  -2.564621)
  12:       460.60    0.593670  ( -0.369864   0.503985  -0.450410)
  13:       542.98    4.159680  ( -1.171949  -0.950174  -1.372365)
  14:       671.55    2.642139  ( -0.439201   0.416705   1.508508)
  15:       730.26    2.021203  (  0.592694   1.286419  -0.122656)
  16:       838.96    0.686571  (  0.739880  -0.070321   0.366339)
  17:       853.38    8.340278  (  0.847661   1.071154   2.544480)
  18:       891.66   60.140579  (  7.378401   0.660533   2.294227)
  19:      1005.84   19.063916  (  3.042374  -2.392182  -2.021224)
  20:      1065.42   47.069303  ( -6.713515   0.557937   1.298739)
  21:      1078.23    6.553113  ( -1.883335   1.729643  -0.120405)
  22:      1084.42   42.065395  ( -6.066448  -1.127575  -1.998045)
  23:      1131.89    2.796132  (  0.897531   0.637641   1.258564)
  24:      1175.95   95.136842  (  5.267262   0.627367  -8.185304)
  25:      1187.10    4.333418  ( -2.028870  -0.036833  -0.464487)
  26:      1247.89    4.054777  (  0.704038  -0.220956   1.873576)
  27:      1321.81   57.384927  ( -2.731884   0.772808   7.023141)
  28:      1363.85    8.888601  (  2.898516  -0.111228  -0.689082)
  29:      1414.81    1.788241  ( -0.571192   1.108546  -0.482812)
  30:      1422.16   29.440916  (  5.065353   1.927538   0.260220)
  31:      1473.75    8.149008  (  0.154284   1.475748   2.438723)
  32:      1485.64   10.194546  ( -1.479016   2.330414  -1.605063)
  33:      1521.59  150.591656  (  3.222219   8.524072  -8.218829)
  34:      1651.47   44.658603  (  2.148586   4.302599   4.640024)
  35:      1655.05   43.887947  (  5.527198  -3.348012  -1.459055)
  36:      1973.58  463.149473  ( 21.516053   0.311592   0.334415)
  37:      3063.74    1.409840  (  0.247712  -0.025389  -1.160962)
  38:      3075.79    9.269448  ( -0.715282   2.701039  -1.209219)
  39:      3145.33    2.660370  (  0.981491  -1.255104   0.348941)
  40:      3147.53    3.422344  (  0.674259   1.134863   1.296073)
  41:      3157.73    0.534154  ( -0.181751   0.671572  -0.223855)
  42:      3392.74   64.990176  ( -4.216486  -3.839623   5.698133)
  43:      3462.98  108.602246  (  8.449905  -5.846827  -1.736657)
  44:      3488.63  111.353659  (  5.550247   4.821489   7.569785)

--------------------------
THERMOCHEMISTRY AT 298.15K
--------------------------

Temperature         ... 298.15 K
Pressure            ... 1.00 atm
Total Mass          ... 102.11 AMU

Throughout the following assumptions are being made:
  (1) The electronic state is orbitally nondegenerate
  (2) There are no thermally accessible electronically excited states
  (3) Hindered rotations indicated by low frequency modes) are not
      treated as such but are treated as vibrations and this may
      case some error
  (4) All equations used are the standard statistical mechanics
      equations for an ideal gas
  (5) All vibrations are strinctly harmonic

------------
INNER ENERGY
------------

The inner energy is: U= E(el) + E(ZPE) + E(vib) + E(rot) + E(trans)
    E(el)   - is the total energy from the electronic structure calculation
              = E(kin-el) + E(nuc-el) + E(el-el) + E(nuc-nuc)
    E(ZPE)  - the the zero temperature vibrational energy from the frequency calculation
    E(vib)  - the the finite temperature correction to E(ZPE) due to population
              of excietd vibrational states
    E(rot)  - is the rotational thermal energy
    E(trans)- is the translational thermal energy

Summary of contributions to the inner energy U:
Electronic energy                ...   -361.90109417 Eh
Zero point energy                ...      0.12859773 Eh      80.70 kcal/mol
Thermal vibrational correction   ...      0.00441617 Eh       2.77 kcal/mol
Thermal rotational correction    ...      0.00141627 Eh       0.89 kcal/mol
Thermal translational correction ...      0.00141627 Eh       0.89 kcal/mol
-----------------------------------------------------------------------
Total thermal energy                   -361.76524773 Eh

Summary of corrections to the electronic energy:
(perhaps to be used in another calculation)
Total thermal correction                  0.00724871 Eh       4.55 kcal/mol
Non-thermal (ZPE) correction              0.12859773 Eh      80.70 kcal/mol
-----------------------------------------------------------------------
Total correction                          0.13584644 Eh      85.24 kcal/mol

--------
ENTHALPY
--------

The enthalpy is H = U + kB*T
                kB is Boltzmann's constant
Total free energy                 ...   -361.76524773 Eh
Thermal Enthalpy correction       ...      0.00094421 Eh       0.59 kcal/mol
-----------------------------------------------------------------------
Total Enthalpy                    ...   -361.76430352 Eh

-------
ENTROPY
-------

The entropy contributions are T*S = T*(S(el)+S(vib)+S(rot)+S(trans)
     S(el)   - electronic entropy
     S(vib)  - vibrational entropy
     S(rot)  - rotational entropy
     S(trans)- translational entropy
The entropies will be listed as mutliplied by the temperature to get
units of energy

Electronic entropy                ...      0.00000000 Eh      0.00 kcal/mol
Vibrational entropy               ...      0.00760074 Eh      4.77 kcal/mol
Rotational entropy                ...      0.01198640 Eh      7.52 kcal/mol
Translational entropy             ...      0.01890086 Eh     11.86 kcal/mol
-----------------------------------------------------------------------
Final entropy term                ...      0.03848800 Eh     24.15 kcal/mol

CAUTION: The rotational entropy is not quite correctly treated here
         because it includes a symmetry number that is not yet correctly
         implemented in ORCA!
For a nonlinear molecule the correct rotational entropy is:
    S(rot) = R*(ln(qrot/sn)+1.5)
    R    = 8.31441 J/mol/K = 1.987191683e-3 kcal/mol/K
    qrot = 218303.0025041
    sn is the rotational symmetry number. We have assumed 3 here
       if it is different for your molecule then you should correct
       the printed rotational entropy by manually evaluating the equation
       as given above

For convenience we print out the resulting values for sn=1 - 12:
 sn= 1  qrot/sn=  218303.0025 T*S(rot)=     8.17 kcal/mol T*S(tot)=    24.80 kcal/mol
 sn= 2  qrot/sn=  109151.5013 T*S(rot)=     7.76 kcal/mol T*S(tot)=    24.39 kcal/mol
 sn= 3  qrot/sn=   72767.6675 T*S(rot)=     7.52 kcal/mol T*S(tot)=    24.15 kcal/mol
 sn= 4  qrot/sn=   54575.7506 T*S(rot)=     7.35 kcal/mol T*S(tot)=    23.98 kcal/mol
 sn= 5  qrot/sn=   43660.6005 T*S(rot)=     7.22 kcal/mol T*S(tot)=    23.85 kcal/mol
 sn= 6  qrot/sn=   36383.8338 T*S(rot)=     7.11 kcal/mol T*S(tot)=    23.74 kcal/mol
 sn= 7  qrot/sn=   31186.1432 T*S(rot)=     7.02 kcal/mol T*S(tot)=    23.65 kcal/mol
 sn= 8  qrot/sn=   27287.8753 T*S(rot)=     6.94 kcal/mol T*S(tot)=    23.57 kcal/mol
 sn= 9  qrot/sn=   24255.8892 T*S(rot)=     6.87 kcal/mol T*S(tot)=    23.50 kcal/mol
 sn=10  qrot/sn=   21830.3003 T*S(rot)=     6.81 kcal/mol T*S(tot)=    23.44 kcal/mol
 sn=11  qrot/sn=   19845.7275 T*S(rot)=     6.75 kcal/mol T*S(tot)=    23.38 kcal/mol
 sn=12  qrot/sn=   18191.9169 T*S(rot)=     6.70 kcal/mol T*S(tot)=    23.33 kcal/mol

-------------------
GIBBS FREE ENTHALPY
-------------------

The Gibbs free enthalpy is G = H - T*S

Total enthalpy                    ...   -361.76430352 Eh
Total entropy correction          ...     -0.03848800 Eh    -24.15 kcal/mol
-----------------------------------------------------------------------
Final Gibbs free enthalpy         ...   -361.80279152 Eh

For completeness - the Gibbs free enthalpy minus the electronic energy
G-E(el)                           ...      0.09830265 Eh     61.69 kcal/mol

                             ****ORCA TERMINATED NORMALLY****
TOTAL RUN TIME: 0 days 0 hours 22 minutes 13 seconds 740 msec
