                         Program Version 3.0.3 - RELEASE   -
|  1> ! NORI PBE0 def2-TZVP UseSym TightOPT Freq TightSCF Grid3 FinalGrid5 XYZFile
|  2> % pal
|  3>     nprocs 8
|  4> end
|  5> %method
|  6>     SymThresh 5.0e-2
|  7> end
|  8> % geom
|  9>     MaxIter 10
| 10> end
| 11> % maxcore 2000
| 12> % output
| 13>     printlevel mini
| 14>     print[ P_Basis ] 0
| 15>     print[ P_SCFInfo ] 1
| 16>     print[ P_SCFIterInfo ] 1
| 17>     print[ P_OrbEn ] 0
| 18>     print[ P_Cartesian ] 0
| 19> end
| 20> % elprop
| 21>     Dipole false
| 22> end
| 23> *xyz 1 1
| 24>  C        1.0810298632    -0.0336148951    -0.0139106802
| 25>  C        2.5903721322     0.0180318530    -0.0568411228
| 26>  O        3.0962269944    -1.0945217874    -0.8316011598
| 27>  N        3.4080845680    -0.6719087044    -2.0765213817
| 28>  C        3.3942879244     0.6012014006    -2.1423071494
| 29>  C        3.1224465752     1.2261615466    -0.8111188915
| 30>  N        4.4489617979     1.7124849539    -0.2239345982
| 31>  H        0.7648477883    -0.9867945607     0.4086489997
| 32>  H        0.6550954894     0.0556275770    -1.0152379246
| 33>  H        0.6872409224     0.7694001040     0.6130752749
| 34>  H        3.0135625109    -0.0832057908     0.9475351725
| 35>  H        3.5993391351     1.1063326855    -3.0768448292
| 36>  H        2.4549402542     2.0873019557    -0.8076801455
| 37>  H        5.1137559890     0.9351888547    -0.1733380139
| 38>  H        4.3286383725     2.0925385095     0.7182446902
| 39>  H        4.8694196828     2.4400562978    -0.8073982405
| 40> *
| 41>
| 42>                          ****END OF INPUT****
 Total Charge           Charge          ....    1
 Multiplicity           Mult            ....    1
 Number of Electrons    NEL             ....   54
FINAL SINGLE POINT ENERGY      -341.989003624593

CARTESIAN COORDINATES (ANGSTROEM)
---------------------------------
  C     -1.302706   -1.695363    0.231643
  C     -0.874362   -0.246384    0.239537
  O      0.000492   -0.000722    1.365828
  N      1.285090    0.000595    0.946799
  C      1.349093    0.021396   -0.326300
  C     -0.005349    0.123435   -0.951839
  N     -0.232252    1.574215   -1.381180
  H     -1.795514   -1.930538    1.174445
  H     -0.443392   -2.359229    0.118541
  H     -2.006778   -1.883092   -0.581984
  H     -1.737242    0.415244    0.364664
  H      2.306690    0.001709   -0.829711
  H     -0.176276   -0.485816   -1.838502
  H     -0.114209    2.198351   -0.578084
  H     -1.172335    1.714119   -1.759720
  H      0.442119    1.860382   -2.095139

FINAL SINGLE POINT ENERGY      -341.989004239639
                    ***********************HURRAY********************
 Multiplicity           Mult            ....    1
 Number of Electrons    NEL             ....   54
 Basis Dimension        Dim             ....  271
FINAL SINGLE POINT ENERGY      -341.989004493683

VIBRATIONAL FREQUENCIES
-----------------------

   0:         0.00 cm**-1
   1:         0.00 cm**-1
   2:         0.00 cm**-1
   3:         0.00 cm**-1
   4:         0.00 cm**-1
   5:         0.00 cm**-1
   6:        97.92 cm**-1
   7:       211.98 cm**-1
   8:       229.56 cm**-1
   9:       243.20 cm**-1
  10:       315.59 cm**-1
  11:       328.87 cm**-1
  12:       509.97 cm**-1
  13:       583.77 cm**-1
  14:       751.26 cm**-1
  15:       812.61 cm**-1
  16:       819.32 cm**-1
  17:       855.18 cm**-1
  18:       884.06 cm**-1
  19:       953.02 cm**-1
  20:       972.92 cm**-1
  21:       992.12 cm**-1
  22:      1033.85 cm**-1
  23:      1047.79 cm**-1
  24:      1087.78 cm**-1
  25:      1121.54 cm**-1
  26:      1169.31 cm**-1
  27:      1253.85 cm**-1
  28:      1300.53 cm**-1
  29:      1332.92 cm**-1
  30:      1342.66 cm**-1
  31:      1394.52 cm**-1
  32:      1413.30 cm**-1
  33:      1477.17 cm**-1
  34:      1485.91 cm**-1
  35:      1496.00 cm**-1
  36:      1647.30 cm**-1
  37:      1651.47 cm**-1
  38:      1655.81 cm**-1
  39:      3065.93 cm**-1
  40:      3078.48 cm**-1
  41:      3145.30 cm**-1
  42:      3147.19 cm**-1
  43:      3166.38 cm**-1
  44:      3243.43 cm**-1
  45:      3405.12 cm**-1
  46:      3492.44 cm**-1
  47:      3499.40 cm**-1

IR SPECTRUM
-----------

 Mode    freq (cm**-1)   T**2         TX         TY         TZ
-------------------------------------------------------------------
   6:        97.92    6.222999  ( -1.586307   0.606225  -1.827326)
   7:       211.98    1.687799  (  0.336413   0.548143  -1.128789)
   8:       229.56    4.565604  ( -0.088229   1.216187  -1.754625)
   9:       243.20    3.563432  ( -0.661964   1.357749  -1.132146)
  10:       315.59    5.415878  (  2.039833   1.108024   0.165053)
  11:       328.87    7.135375  (  0.193786   2.662511  -0.094107)
  12:       509.97    4.248808  ( -0.537698  -0.443605  -1.939820)
  13:       583.77    3.547235  (  1.612032   0.445296  -0.866198)
  14:       751.26    4.450412  ( -0.314673   0.151898   2.080461)
  15:       812.61    2.738447  ( -0.164651  -0.246556   1.628050)
  16:       819.32   18.698724  ( -1.031444  -4.153335  -0.620204)
  17:       855.18   13.648420  (  1.209597  -3.013475   1.761892)
  18:       884.06   21.934431  (  3.112595  -2.022189   2.856035)
  19:       953.02   20.563567  ( -1.134064   4.108521   1.548392)
  20:       972.92    5.279338  ( -0.468977  -1.044176   1.992259)
  21:       992.12   27.096389  (  3.808057   1.478537  -3.226301)
  22:      1033.85   82.467395  ( -4.461630  -2.618938   7.463405)
  23:      1047.79   11.935020  (  3.418017   0.370941  -0.338498)
  24:      1087.78   24.033653  ( -3.732174  -2.805259  -1.495011)
  25:      1121.54    4.823798  ( -2.192645   0.115712  -0.052109)
  26:      1169.31    7.597756  ( -2.540581  -0.580205   0.898090)
  27:      1253.85    1.113802  (  0.695895   0.792465  -0.039136)
  28:      1300.53   17.599809  ( -2.851225  -0.770110   2.979472)
  29:      1332.92    1.303630  ( -0.739048  -0.863766  -0.106516)
  30:      1342.66    4.283850  ( -0.756317  -0.694376   1.797130)
  31:      1394.52   14.787494  (  1.913726  -1.216559   3.105661)
  32:      1413.30    9.935387  (  0.293638   3.122224   0.317614)
  33:      1477.17   14.084643  ( -1.442403  -1.193932   3.252483)
  34:      1485.91   10.355787  (  2.574190  -1.025689   1.636244)
  35:      1496.00  152.121266  ( -1.842345  11.772415  -3.183907)
  36:      1647.30    8.047801  (  1.465104  -0.641928   2.342904)
  37:      1651.47   63.144183  ( -3.137418   0.518948   7.282272)
  38:      1655.81   41.541426  ( -5.764960  -2.470968  -1.483570)
  39:      3065.93    1.292228  ( -0.322035  -0.139751  -1.081199)
  40:      3078.48    8.345805  (  1.416963  -2.405021   0.744241)
  41:      3145.30    0.566094  ( -0.622160  -0.173659  -0.385816)
  42:      3147.19    3.003102  ( -1.495496   0.617993  -0.620224)
  43:      3166.38    0.207739  (  0.244517  -0.368175  -0.111346)
  44:      3243.43    8.314172  (  2.580188  -0.290546  -1.253948)
  45:      3405.12   51.466728  (  0.778938  -6.752723   2.293626)
  46:      3492.44   95.089148  ( -1.901052  -2.943524  -9.100045)
  47:      3499.40   94.821655  (  9.291798   1.232659  -2.639070)

--------------------------
THERMOCHEMISTRY AT 298.15K
--------------------------

Temperature         ... 298.15 K
Pressure            ... 1.00 atm
Total Mass          ... 101.13 AMU

Throughout the following assumptions are being made:
  (1) The electronic state is orbitally nondegenerate
  (2) There are no thermally accessible electronically excited states
  (3) Hindered rotations indicated by low frequency modes) are not
      treated as such but are treated as vibrations and this may
      case some error
  (4) All equations used are the standard statistical mechanics
      equations for an ideal gas
  (5) All vibrations are strinctly harmonic

------------
INNER ENERGY
------------

The inner energy is: U= E(el) + E(ZPE) + E(vib) + E(rot) + E(trans)
    E(el)   - is the total energy from the electronic structure calculation
              = E(kin-el) + E(nuc-el) + E(el-el) + E(nuc-nuc)
    E(ZPE)  - the the zero temperature vibrational energy from the frequency calculation
    E(vib)  - the the finite temperature correction to E(ZPE) due to population
              of excietd vibrational states
    E(rot)  - is the rotational thermal energy
    E(trans)- is the translational thermal energy

Summary of contributions to the inner energy U:
Electronic energy                ...   -341.98900449 Eh
Zero point energy                ...      0.14060107 Eh      88.23 kcal/mol
Thermal vibrational correction   ...      0.00416389 Eh       2.61 kcal/mol
Thermal rotational correction    ...      0.00141627 Eh       0.89 kcal/mol
Thermal translational correction ...      0.00141627 Eh       0.89 kcal/mol
-----------------------------------------------------------------------
Total thermal energy                   -341.84140700 Eh

Summary of corrections to the electronic energy:
(perhaps to be used in another calculation)
Total thermal correction                  0.00699643 Eh       4.39 kcal/mol
Non-thermal (ZPE) correction              0.14060107 Eh      88.23 kcal/mol
-----------------------------------------------------------------------
Total correction                          0.14759750 Eh      92.62 kcal/mol

--------
ENTHALPY
--------

The enthalpy is H = U + kB*T
                kB is Boltzmann's constant
Total free energy                 ...   -341.84140700 Eh
Thermal Enthalpy correction       ...      0.00094421 Eh       0.59 kcal/mol
-----------------------------------------------------------------------
Total Enthalpy                    ...   -341.84046279 Eh

-------
ENTROPY
-------

The entropy contributions are T*S = T*(S(el)+S(vib)+S(rot)+S(trans)
     S(el)   - electronic entropy
     S(vib)  - vibrational entropy
     S(rot)  - rotational entropy
     S(trans)- translational entropy
The entropies will be listed as mutliplied by the temperature to get
units of energy

Electronic entropy                ...      0.00000000 Eh      0.00 kcal/mol
Vibrational entropy               ...      0.00698010 Eh      4.38 kcal/mol
Rotational entropy                ...      0.01185859 Eh      7.44 kcal/mol
Translational entropy             ...      0.01888714 Eh     11.85 kcal/mol
-----------------------------------------------------------------------
Final entropy term                ...      0.03772584 Eh     23.67 kcal/mol

CAUTION: The rotational entropy is not quite correctly treated here
         because it includes a symmetry number that is not yet correctly
         implemented in ORCA!
For a nonlinear molecule the correct rotational entropy is:
    S(rot) = R*(ln(qrot/sn)+1.5)
    R    = 8.31441 J/mol/K = 1.987191683e-3 kcal/mol/K
    qrot = 190665.2285201
    sn is the rotational symmetry number. We have assumed 3 here
       if it is different for your molecule then you should correct
       the printed rotational entropy by manually evaluating the equation
       as given above

For convenience we print out the resulting values for sn=1 - 12:
 sn= 1  qrot/sn=  190665.2285 T*S(rot)=     8.09 kcal/mol T*S(tot)=    24.32 kcal/mol
 sn= 2  qrot/sn=   95332.6143 T*S(rot)=     7.68 kcal/mol T*S(tot)=    23.91 kcal/mol
 sn= 3  qrot/sn=   63555.0762 T*S(rot)=     7.44 kcal/mol T*S(tot)=    23.67 kcal/mol
 sn= 4  qrot/sn=   47666.3071 T*S(rot)=     7.27 kcal/mol T*S(tot)=    23.50 kcal/mol
 sn= 5  qrot/sn=   38133.0457 T*S(rot)=     7.14 kcal/mol T*S(tot)=    23.37 kcal/mol
 sn= 6  qrot/sn=   31777.5381 T*S(rot)=     7.03 kcal/mol T*S(tot)=    23.26 kcal/mol
 sn= 7  qrot/sn=   27237.8898 T*S(rot)=     6.94 kcal/mol T*S(tot)=    23.17 kcal/mol
 sn= 8  qrot/sn=   23833.1536 T*S(rot)=     6.86 kcal/mol T*S(tot)=    23.09 kcal/mol
 sn= 9  qrot/sn=   21185.0254 T*S(rot)=     6.79 kcal/mol T*S(tot)=    23.02 kcal/mol
 sn=10  qrot/sn=   19066.5229 T*S(rot)=     6.73 kcal/mol T*S(tot)=    22.96 kcal/mol
 sn=11  qrot/sn=   17333.2026 T*S(rot)=     6.67 kcal/mol T*S(tot)=    22.90 kcal/mol
 sn=12  qrot/sn=   15888.7690 T*S(rot)=     6.62 kcal/mol T*S(tot)=    22.85 kcal/mol

-------------------
GIBBS FREE ENTHALPY
-------------------

The Gibbs free enthalpy is G = H - T*S

Total enthalpy                    ...   -341.84046279 Eh
Total entropy correction          ...     -0.03772584 Eh    -23.67 kcal/mol
-----------------------------------------------------------------------
Final Gibbs free enthalpy         ...   -341.87818863 Eh

For completeness - the Gibbs free enthalpy minus the electronic energy
G-E(el)                           ...      0.11081587 Eh     69.54 kcal/mol

                             ****ORCA TERMINATED NORMALLY****
TOTAL RUN TIME: 0 days 0 hours 27 minutes 23 seconds 893 msec
