                         Program Version 3.0.3 - RELEASE   -
|  1> ! NORI PBE0 def2-TZVP UseSym TightOPT Freq TightSCF Grid3 FinalGrid5 XYZFile
|  2> % pal
|  3>     nprocs 8
|  4> end
|  5> %method
|  6>     SymThresh 5.0e-2
|  7> end
|  8> % geom
|  9>     MaxIter 10
| 10> end
| 11> % maxcore 2000
| 12> % output
| 13>     printlevel mini
| 14>     print[ P_Basis ] 0
| 15>     print[ P_SCFInfo ] 1
| 16>     print[ P_SCFIterInfo ] 1
| 17>     print[ P_OrbEn ] 0
| 18>     print[ P_Cartesian ] 0
| 19> end
| 20> % elprop
| 21>     Dipole false
| 22> end
| 23> *xyz 1 1
| 24>  C        3.4867584092    -0.5584247440     0.9126966584
| 25>  C        2.3717493632    -0.0445660804     0.0140916263
| 26>  C        2.9084455940     0.5381282174    -1.2700198963
| 27>  C        2.1074170484     1.4716550065    -2.1310827551
| 28>  N        0.7283978148     1.8417378959    -1.7350843844
| 29>  C        3.2572962522     2.0002896954    -1.3499627648
| 30>  O        4.2909645754     2.4682391998    -2.1235404696
| 31>  H        3.0796626110    -0.9834493346     1.8303835193
| 32>  H        4.1742425498     0.2435094700     1.1893168049
| 33>  H        4.0613869855    -1.3386427209     0.4092844050
| 34>  H        1.6774022219    -0.8601764041    -0.2148794370
| 35>  H        1.7987745154     0.7092147567     0.5750729402
| 36>  H        3.5372124937    -0.1281562243    -1.8530371098
| 37>  H        2.2114516017     1.4254371024    -3.2075916541
| 38>  H        0.6088200911     1.7500605922    -0.7232291357
| 39>  H        0.0388161656     1.2294834034    -2.1777957103
| 40>  H        0.5099506420     2.8068097061    -1.9956611072
| 41>  H        3.0199186702     2.5820765794    -0.4558923679
| 42>  H        5.1273323949     2.3510438832    -1.6607891620
| 43> *
| 44>
| 45>                          ****END OF INPUT****
 Total Charge           Charge          ....    1
 Multiplicity           Mult            ....    1
 Number of Electrons    NEL             ....   56
FINAL SINGLE POINT ENERGY      -327.194188470985
FINAL SINGLE POINT ENERGY      -327.194191452078
FINAL SINGLE POINT ENERGY      -327.194193047461

CARTESIAN COORDINATES (ANGSTROEM)
---------------------------------
  C     -2.329336    0.481955   -1.363465
  C     -0.847334    0.142412   -1.424801
  C     -0.367673   -0.507805   -0.151274
  C      1.082560   -0.575006    0.229342
  N      2.112690   -0.004165   -0.669924
  C      0.172105    0.337435    0.971427
  O      0.000222    0.004234    2.292351
  H     -2.658476    0.946048   -2.293648
  H     -2.544048    1.175346   -0.547553
  H     -2.927736   -0.418050   -1.208958
  H     -0.657396   -0.524274   -2.273049
  H     -0.290530    1.070724   -1.620574
  H     -0.916815   -1.394722    0.150498
  H      1.455059   -1.444949    0.754344
  H      1.713071    0.732668   -1.255949
  H      2.491888   -0.717101   -1.298314
  H      2.890719    0.397939   -0.140497
  H      0.253842    1.404112    0.747479
  H     -0.876534    0.272156    2.586994

FINAL SINGLE POINT ENERGY      -327.194193335283
                    ***********************HURRAY********************
 Multiplicity           Mult            ....    1
 Number of Electrons    NEL             ....   56
 Basis Dimension        Dim             ....  289
FINAL SINGLE POINT ENERGY      -327.194193487700

VIBRATIONAL FREQUENCIES
-----------------------

   0:         0.00 cm**-1
   1:         0.00 cm**-1
   2:         0.00 cm**-1
   3:         0.00 cm**-1
   4:         0.00 cm**-1
   5:         0.00 cm**-1
   6:        81.78 cm**-1
   7:       142.47 cm**-1
   8:       162.55 cm**-1
   9:       206.12 cm**-1
  10:       230.07 cm**-1
  11:       291.87 cm**-1
  12:       305.14 cm**-1
  13:       316.66 cm**-1
  14:       376.83 cm**-1
  15:       483.72 cm**-1
  16:       547.68 cm**-1
  17:       775.89 cm**-1
  18:       803.18 cm**-1
  19:       873.92 cm**-1
  20:       901.79 cm**-1
  21:       970.01 cm**-1
  22:       996.12 cm**-1
  23:      1012.70 cm**-1
  24:      1054.05 cm**-1
  25:      1093.25 cm**-1
  26:      1105.44 cm**-1
  27:      1132.64 cm**-1
  28:      1183.23 cm**-1
  29:      1191.34 cm**-1
  30:      1222.85 cm**-1
  31:      1230.64 cm**-1
  32:      1284.02 cm**-1
  33:      1298.82 cm**-1
  34:      1336.50 cm**-1
  35:      1376.79 cm**-1
  36:      1388.42 cm**-1
  37:      1415.53 cm**-1
  38:      1474.22 cm**-1
  39:      1491.14 cm**-1
  40:      1494.64 cm**-1
  41:      1503.20 cm**-1
  42:      1516.73 cm**-1
  43:      1649.57 cm**-1
  44:      1659.42 cm**-1
  45:      2995.91 cm**-1
  46:      3061.83 cm**-1
  47:      3066.71 cm**-1
  48:      3084.49 cm**-1
  49:      3137.85 cm**-1
  50:      3150.36 cm**-1
  51:      3175.03 cm**-1
  52:      3217.88 cm**-1
  53:      3408.75 cm**-1
  54:      3487.21 cm**-1
  55:      3487.65 cm**-1
  56:      3839.67 cm**-1

IR SPECTRUM
-----------

 Mode    freq (cm**-1)   T**2         TX         TY         TZ
-------------------------------------------------------------------
   6:        81.78    0.213816  (  0.388268   0.250926   0.010036)
   7:       142.47   10.676716  (  3.123414  -0.512919   0.811119)
   8:       162.55    0.991234  (  0.629900  -0.769319   0.051072)
   9:       206.12   11.300738  (  2.210980   1.384184   2.120458)
  10:       230.07   16.367969  ( -1.311152  -1.985849  -3.271888)
  11:       291.87   12.981546  (  1.067753  -3.298118  -0.981766)
  12:       305.14   27.527884  ( -1.024730  -5.120730  -0.505904)
  13:       316.66   83.186400  ( -3.241183  -7.542217  -3.974430)
  14:       376.83   17.769951  ( -2.922981  -2.477139   1.757816)
  15:       483.72   14.659569  ( -0.067936   2.386493   2.993260)
  16:       547.68    7.692390  ( -2.726429   0.157164   0.484019)
  17:       775.89    9.265968  ( -2.530705  -1.581255  -0.600944)
  18:       803.18   12.667971  ( -2.891250   1.952475   0.704618)
  19:       873.92   12.219651  ( -3.387274  -0.075559   0.860417)
  20:       901.79   10.578079  ( -0.405921   2.881683   1.452313)
  21:       970.01    2.384944  ( -0.940941   0.209540   1.206510)
  22:       996.12   16.427521  ( -0.519511  -3.150600   2.496267)
  23:      1012.70   10.377913  (  2.569699  -0.798693   1.771059)
  24:      1054.05    4.311596  ( -0.005297  -0.995290   1.822351)
  25:      1093.25    2.616552  ( -1.430109  -0.405289  -0.638030)
  26:      1105.44   36.272258  (  2.323042  -1.247877   5.414659)
  27:      1132.64    3.622155  ( -0.655753  -0.280191  -1.764550)
  28:      1183.23    5.201943  ( -1.387494  -1.808006   0.088968)
  29:      1191.34    2.818961  ( -0.093898   1.177970  -1.192699)
  30:      1222.85   19.168218  (  1.331130  -0.303072  -4.159863)
  31:      1230.64   60.422439  ( -0.913094   0.194815   7.716913)
  32:      1284.02   82.628716  (  0.084168  -1.513898   8.962686)
  33:      1298.82    8.573056  (  0.219895   0.686888  -2.837761)
  34:      1336.50    1.286950  ( -0.844892   0.314812   0.688476)
  35:      1376.79   13.921045  ( -3.390460   0.999132  -1.194805)
  36:      1388.42    4.038807  ( -0.941763   1.101875   1.392035)
  37:      1415.53    3.141736  ( -1.482872   0.747806   0.619364)
  38:      1474.22    3.871079  ( -1.762952   0.059472  -0.871517)
  39:      1491.14   10.915759  ( -0.044871   2.709927   1.889455)
  40:      1494.64    3.292918  ( -1.278146  -0.130290  -1.281516)
  41:      1503.20  110.647641  ( -8.574711  -4.978410   3.512465)
  42:      1516.73   63.813602  (  3.338550   2.507240  -6.810391)
  43:      1649.57   33.480799  ( -0.193188   5.191536   2.547829)
  44:      1659.42   38.154077  (  4.202796  -2.205149   3.953213)
  45:      2995.91   42.314369  (  5.571241   2.868795  -1.745182)
  46:      3061.83    7.398589  (  2.718051   0.094044   0.044080)
  47:      3066.71   11.936546  (  0.747580  -2.066497  -2.665944)
  48:      3084.49   20.721458  (  1.382526   3.025522  -3.107458)
  49:      3137.85   14.189688  (  0.779634   3.175695   1.869979)
  50:      3150.36    7.501744  (  0.026734  -1.116608   2.500843)
  51:      3175.03    0.207035  ( -0.312199  -0.071565  -0.323180)
  52:      3217.88    3.065530  ( -0.470844   1.572028  -0.610381)
  53:      3408.75   27.981678  (  4.301307   1.197655  -2.836557)
  54:      3487.21   95.378727  (  0.473988   7.745310   5.929944)
  55:      3487.65  121.920931  (  8.813159  -3.980149   5.329875)
  56:      3839.67   92.512433  (  7.062503  -1.811137  -6.273219)

--------------------------
THERMOCHEMISTRY AT 298.15K
--------------------------

Temperature         ... 298.15 K
Pressure            ... 1.00 atm
Total Mass          ... 102.16 AMU

Throughout the following assumptions are being made:
  (1) The electronic state is orbitally nondegenerate
  (2) There are no thermally accessible electronically excited states
  (3) Hindered rotations indicated by low frequency modes) are not
      treated as such but are treated as vibrations and this may
      case some error
  (4) All equations used are the standard statistical mechanics
      equations for an ideal gas
  (5) All vibrations are strinctly harmonic

------------
INNER ENERGY
------------

The inner energy is: U= E(el) + E(ZPE) + E(vib) + E(rot) + E(trans)
    E(el)   - is the total energy from the electronic structure calculation
              = E(kin-el) + E(nuc-el) + E(el-el) + E(nuc-nuc)
    E(ZPE)  - the the zero temperature vibrational energy from the frequency calculation
    E(vib)  - the the finite temperature correction to E(ZPE) due to population
              of excietd vibrational states
    E(rot)  - is the rotational thermal energy
    E(trans)- is the translational thermal energy

Summary of contributions to the inner energy U:
Electronic energy                ...   -327.19419349 Eh
Zero point energy                ...      0.17472235 Eh     109.64 kcal/mol
Thermal vibrational correction   ...      0.00576242 Eh       3.62 kcal/mol
Thermal rotational correction    ...      0.00141627 Eh       0.89 kcal/mol
Thermal translational correction ...      0.00141627 Eh       0.89 kcal/mol
-----------------------------------------------------------------------
Total thermal energy                   -327.01087617 Eh

Summary of corrections to the electronic energy:
(perhaps to be used in another calculation)
Total thermal correction                  0.00859497 Eh       5.39 kcal/mol
Non-thermal (ZPE) correction              0.17472235 Eh     109.64 kcal/mol
-----------------------------------------------------------------------
Total correction                          0.18331732 Eh     115.03 kcal/mol

--------
ENTHALPY
--------

The enthalpy is H = U + kB*T
                kB is Boltzmann's constant
Total free energy                 ...   -327.01087617 Eh
Thermal Enthalpy correction       ...      0.00094421 Eh       0.59 kcal/mol
-----------------------------------------------------------------------
Total Enthalpy                    ...   -327.00993196 Eh

-------
ENTROPY
-------

The entropy contributions are T*S = T*(S(el)+S(vib)+S(rot)+S(trans)
     S(el)   - electronic entropy
     S(vib)  - vibrational entropy
     S(rot)  - rotational entropy
     S(trans)- translational entropy
The entropies will be listed as mutliplied by the temperature to get
units of energy

Electronic entropy                ...      0.00000000 Eh      0.00 kcal/mol
Vibrational entropy               ...      0.01007945 Eh      6.32 kcal/mol
Rotational entropy                ...      0.01228214 Eh      7.71 kcal/mol
Translational entropy             ...      0.01890147 Eh     11.86 kcal/mol
-----------------------------------------------------------------------
Final entropy term                ...      0.04126306 Eh     25.89 kcal/mol

CAUTION: The rotational entropy is not quite correctly treated here
         because it includes a symmetry number that is not yet correctly
         implemented in ORCA!
For a nonlinear molecule the correct rotational entropy is:
    S(rot) = R*(ln(qrot/sn)+1.5)
    R    = 8.31441 J/mol/K = 1.987191683e-3 kcal/mol/K
    qrot = 298601.3400140
    sn is the rotational symmetry number. We have assumed 3 here
       if it is different for your molecule then you should correct
       the printed rotational entropy by manually evaluating the equation
       as given above

For convenience we print out the resulting values for sn=1 - 12:
 sn= 1  qrot/sn=  298601.3400 T*S(rot)=     8.36 kcal/mol T*S(tot)=    26.54 kcal/mol
 sn= 2  qrot/sn=  149300.6700 T*S(rot)=     7.95 kcal/mol T*S(tot)=    26.13 kcal/mol
 sn= 3  qrot/sn=   99533.7800 T*S(rot)=     7.71 kcal/mol T*S(tot)=    25.89 kcal/mol
 sn= 4  qrot/sn=   74650.3350 T*S(rot)=     7.54 kcal/mol T*S(tot)=    25.72 kcal/mol
 sn= 5  qrot/sn=   59720.2680 T*S(rot)=     7.40 kcal/mol T*S(tot)=    25.59 kcal/mol
 sn= 6  qrot/sn=   49766.8900 T*S(rot)=     7.30 kcal/mol T*S(tot)=    25.48 kcal/mol
 sn= 7  qrot/sn=   42657.3343 T*S(rot)=     7.21 kcal/mol T*S(tot)=    25.39 kcal/mol
 sn= 8  qrot/sn=   37325.1675 T*S(rot)=     7.13 kcal/mol T*S(tot)=    25.31 kcal/mol
 sn= 9  qrot/sn=   33177.9267 T*S(rot)=     7.06 kcal/mol T*S(tot)=    25.24 kcal/mol
 sn=10  qrot/sn=   29860.1340 T*S(rot)=     6.99 kcal/mol T*S(tot)=    25.18 kcal/mol
 sn=11  qrot/sn=   27145.5764 T*S(rot)=     6.94 kcal/mol T*S(tot)=    25.12 kcal/mol
 sn=12  qrot/sn=   24883.4450 T*S(rot)=     6.89 kcal/mol T*S(tot)=    25.07 kcal/mol

-------------------
GIBBS FREE ENTHALPY
-------------------

The Gibbs free enthalpy is G = H - T*S

Total enthalpy                    ...   -327.00993196 Eh
Total entropy correction          ...     -0.04126306 Eh    -25.89 kcal/mol
-----------------------------------------------------------------------
Final Gibbs free enthalpy         ...   -327.05119503 Eh

For completeness - the Gibbs free enthalpy minus the electronic energy
G-E(el)                           ...      0.14299846 Eh     89.73 kcal/mol

                             ****ORCA TERMINATED NORMALLY****
TOTAL RUN TIME: 0 days 0 hours 35 minutes 43 seconds 143 msec
