                         Program Version 3.0.3 - RELEASE   -
|  1> ! NORI PBE0 def2-TZVP UseSym TightOPT Freq TightSCF Grid3 FinalGrid5 XYZFile
|  2> % pal
|  3>     nprocs 8
|  4> end
|  5> %method
|  6>     SymThresh 5.0e-2
|  7> end
|  8> % geom
|  9>     MaxIter 10
| 10> end
| 11> % maxcore 2000
| 12> % output
| 13>     printlevel mini
| 14>     print[ P_Basis ] 0
| 15>     print[ P_SCFInfo ] 1
| 16>     print[ P_SCFIterInfo ] 1
| 17>     print[ P_OrbEn ] 0
| 18>     print[ P_Cartesian ] 0
| 19> end
| 20> % elprop
| 21>     Dipole false
| 22> end
| 23> *xyz 1 1
| 24>  C        1.8073600010    -1.3265152865     0.5159054832
| 25>  C        2.3982461745     0.0664008450     0.3507002485
| 26>  C        3.1211867154     0.2463690702    -0.9567364429
| 27>  C        4.4565989580    -0.4518325412    -1.1170784506
| 28>  N        5.5036844100     0.5206519575    -0.6509413239
| 29>  C        2.4162455657     0.6597735273    -2.1696006469
| 30>  O        3.2368182353     1.5827204331    -1.4550375077
| 31>  H        1.2816890430    -1.4025438706     1.4681424805
| 32>  H        2.5698871617    -2.1102549580     0.5080977191
| 33>  H        1.0914423788    -1.5478848286    -0.2782275616
| 34>  H        1.6116634399     0.8229711377     0.3963168218
| 35>  H        3.0769232682     0.2881902839     1.1849405814
| 36>  H        4.6854494222    -0.6719203197    -2.1587109478
| 37>  H        4.5412032498    -1.3626531773    -0.5267909288
| 38>  H        5.2635495069     1.4254587816    -1.0831315940
| 39>  H        6.4485744634     0.2465423712    -0.9211049705
| 40>  H        5.4838688164     0.6456951695     0.3626269102
| 41>  H        2.7861228383     0.3680917727    -3.1480629323
| 42>  H        1.3516063515     0.8637596322    -2.1075669377
| 43> *
| 44>
| 45>                          ****END OF INPUT****
 Total Charge           Charge          ....    1
 Multiplicity           Mult            ....    1
 Number of Electrons    NEL             ....   56
FINAL SINGLE POINT ENERGY      -327.196299691187
FINAL SINGLE POINT ENERGY      -327.196301606822
FINAL SINGLE POINT ENERGY      -327.196303384851

CARTESIAN COORDINATES (ANGSTROEM)
---------------------------------
  C     -1.557407   -0.674012   -1.850319
  C     -0.851500   -1.056842   -0.557501
  C     -0.215284    0.118129    0.134625
  C      1.022146    0.718764   -0.501070
  N      2.198947    0.000178    0.097486
  C     -0.964342    0.942071    1.083139
  O      0.002970   -0.000699    1.543368
  H     -2.017593   -1.552434   -2.303115
  H     -0.874191   -0.251879   -2.591952
  H     -2.346319    0.058150   -1.667077
  H     -1.556943   -1.505893    0.145204
  H     -0.094575   -1.827500   -0.756285
  H      1.145136    1.771025   -0.247780
  H      1.055510    0.599918   -1.583018
  H      2.022135   -0.035677    1.112637
  H      3.085962    0.470073   -0.084543
  H      2.270537   -0.961220   -0.240033
  H     -0.704919    1.986288    1.231658
  H     -1.993112    0.674249    1.303405

FINAL SINGLE POINT ENERGY      -327.196303730847
                    ***********************HURRAY********************
 Multiplicity           Mult            ....    1
 Number of Electrons    NEL             ....   56
 Basis Dimension        Dim             ....  289
FINAL SINGLE POINT ENERGY      -327.196303933544

VIBRATIONAL FREQUENCIES
-----------------------

   0:         0.00 cm**-1
   1:         0.00 cm**-1
   2:         0.00 cm**-1
   3:         0.00 cm**-1
   4:         0.00 cm**-1
   5:         0.00 cm**-1
   6:        72.36 cm**-1
   7:       100.75 cm**-1
   8:       204.38 cm**-1
   9:       211.58 cm**-1
  10:       254.36 cm**-1
  11:       280.74 cm**-1
  12:       359.71 cm**-1
  13:       390.78 cm**-1
  14:       421.45 cm**-1
  15:       583.17 cm**-1
  16:       709.80 cm**-1
  17:       784.95 cm**-1
  18:       847.62 cm**-1
  19:       887.41 cm**-1
  20:       911.74 cm**-1
  21:       947.04 cm**-1
  22:       967.00 cm**-1
  23:      1008.76 cm**-1
  24:      1052.33 cm**-1
  25:      1080.39 cm**-1
  26:      1104.81 cm**-1
  27:      1129.81 cm**-1
  28:      1136.85 cm**-1
  29:      1190.21 cm**-1
  30:      1251.30 cm**-1
  31:      1293.24 cm**-1
  32:      1337.91 cm**-1
  33:      1358.41 cm**-1
  34:      1399.45 cm**-1
  35:      1416.96 cm**-1
  36:      1442.62 cm**-1
  37:      1471.53 cm**-1
  38:      1480.46 cm**-1
  39:      1490.46 cm**-1
  40:      1495.42 cm**-1
  41:      1499.64 cm**-1
  42:      1533.58 cm**-1
  43:      1642.44 cm**-1
  44:      1670.37 cm**-1
  45:      3024.68 cm**-1
  46:      3057.67 cm**-1
  47:      3106.71 cm**-1
  48:      3116.34 cm**-1
  49:      3126.79 cm**-1
  50:      3131.30 cm**-1
  51:      3150.77 cm**-1
  52:      3179.67 cm**-1
  53:      3224.39 cm**-1
  54:      3336.09 cm**-1
  55:      3475.32 cm**-1
  56:      3527.44 cm**-1

IR SPECTRUM
-----------

 Mode    freq (cm**-1)   T**2         TX         TY         TZ
-------------------------------------------------------------------
   6:        72.36    8.644943  (  0.606497   1.680229   2.335366)
   7:       100.75    4.017789  ( -0.934326   1.654812   0.637510)
   8:       204.38    5.712322  (  1.973187  -0.148624  -1.340435)
   9:       211.58    3.376505  (  0.205459   0.838691   1.622002)
  10:       254.36    8.526068  ( -2.507862  -0.594679   1.372243)
  11:       280.74   36.937582  (  5.840700   1.312332  -1.049564)
  12:       359.71    2.632145  ( -0.988224  -0.928931   0.890307)
  13:       390.78    5.118655  ( -2.254080  -0.150414  -0.123106)
  14:       421.45    3.891945  (  0.087134  -1.784968  -0.835609)
  15:       583.17   23.024640  (  2.595732   0.024119   4.035620)
  16:       709.80    1.310881  (  0.597438  -0.877047   0.429810)
  17:       784.95    2.388216  (  0.414162   0.197268  -1.475727)
  18:       847.62    2.212021  (  0.081204  -1.100868  -0.996753)
  19:       887.41   25.590210  (  4.100462  -0.644644  -2.891515)
  20:       911.74   19.307998  ( -1.562811   2.763343   3.038018)
  21:       947.04   34.190864  (  4.064453  -2.685943   3.233697)
  22:       967.00   10.154670  (  0.383483   1.914507  -2.518388)
  23:      1008.76    9.501078  ( -1.590433  -1.340268  -2.274925)
  24:      1052.33    2.527465  ( -0.419750   1.529503  -0.109071)
  25:      1080.39   21.313541  (  2.951105   1.558577  -3.189884)
  26:      1104.81    5.727090  ( -1.353288  -1.942415   0.350321)
  27:      1129.81   20.722126  ( -4.447510  -0.522318  -0.817904)
  28:      1136.85    6.451458  (  1.485359   1.719154  -1.135639)
  29:      1190.21    1.647623  (  0.591715  -0.518683   1.014133)
  30:      1251.30    2.129459  (  0.095118  -1.115284   0.936244)
  31:      1293.24    2.841829  ( -1.526476   0.592310   0.401084)
  32:      1337.91    9.157158  (  0.175316   2.247035   2.019221)
  33:      1358.41    0.693871  ( -0.333550   0.527861  -0.551341)
  34:      1399.45    7.236266  ( -0.875662  -0.577739  -2.477034)
  35:      1416.96    1.046580  ( -0.341259   0.126102  -0.956149)
  36:      1442.62   27.035776  ( -3.716085   2.000923  -3.036905)
  37:      1471.53   52.984426  ( -6.859525   1.532673  -1.892684)
  38:      1480.46  125.709152  ( -8.686759   4.430088  -5.533867)
  39:      1490.46   13.537898  (  3.343350   1.377313   0.680379)
  40:      1495.42   22.392225  ( -4.107930  -0.464756   2.302419)
  41:      1499.64   16.818408  (  0.043838  -3.999450   0.906026)
  42:      1533.58    7.106393  ( -0.669178   2.001899   1.628188)
  43:      1642.44   39.352782  ( -1.492410   4.253878   4.362340)
  44:      1670.37   37.657516  ( -4.635131  -3.586185   1.819986)
  45:      3024.68   25.835734  ( -3.776606   3.359922  -0.532829)
  46:      3057.67   11.673203  ( -0.174667  -1.924070   2.817915)
  47:      3106.71    0.450735  (  0.366786   0.271575   0.492392)
  48:      3116.34    0.881337  (  0.670659   0.434627  -0.492597)
  49:      3126.79    4.830109  (  0.854265  -2.012638   0.222777)
  50:      3131.30   19.134025  ( -3.902263   0.021921   1.976332)
  51:      3150.77    5.355253  (  0.028646  -2.230843  -0.614633)
  52:      3179.67    0.190116  (  0.212983  -0.050689  -0.377074)
  53:      3224.39    1.912214  (  0.667562   1.164083   0.333895)
  54:      3336.09   75.809412  ( -2.516097  -0.699087   8.306019)
  55:      3475.32  100.168882  ( -7.384844   3.853300   5.548427)
  56:      3527.44  109.416515  (  6.997233   7.775297  -0.000289)

--------------------------
THERMOCHEMISTRY AT 298.15K
--------------------------

Temperature         ... 298.15 K
Pressure            ... 1.00 atm
Total Mass          ... 102.16 AMU

Throughout the following assumptions are being made:
  (1) The electronic state is orbitally nondegenerate
  (2) There are no thermally accessible electronically excited states
  (3) Hindered rotations indicated by low frequency modes) are not
      treated as such but are treated as vibrations and this may
      case some error
  (4) All equations used are the standard statistical mechanics
      equations for an ideal gas
  (5) All vibrations are strinctly harmonic

------------
INNER ENERGY
------------

The inner energy is: U= E(el) + E(ZPE) + E(vib) + E(rot) + E(trans)
    E(el)   - is the total energy from the electronic structure calculation
              = E(kin-el) + E(nuc-el) + E(el-el) + E(nuc-nuc)
    E(ZPE)  - the the zero temperature vibrational energy from the frequency calculation
    E(vib)  - the the finite temperature correction to E(ZPE) due to population
              of excietd vibrational states
    E(rot)  - is the rotational thermal energy
    E(trans)- is the translational thermal energy

Summary of contributions to the inner energy U:
Electronic energy                ...   -327.19630393 Eh
Zero point energy                ...      0.17514321 Eh     109.90 kcal/mol
Thermal vibrational correction   ...      0.00540223 Eh       3.39 kcal/mol
Thermal rotational correction    ...      0.00141627 Eh       0.89 kcal/mol
Thermal translational correction ...      0.00141627 Eh       0.89 kcal/mol
-----------------------------------------------------------------------
Total thermal energy                   -327.01292594 Eh

Summary of corrections to the electronic energy:
(perhaps to be used in another calculation)
Total thermal correction                  0.00823478 Eh       5.17 kcal/mol
Non-thermal (ZPE) correction              0.17514321 Eh     109.90 kcal/mol
-----------------------------------------------------------------------
Total correction                          0.18337799 Eh     115.07 kcal/mol

--------
ENTHALPY
--------

The enthalpy is H = U + kB*T
                kB is Boltzmann's constant
Total free energy                 ...   -327.01292594 Eh
Thermal Enthalpy correction       ...      0.00094421 Eh       0.59 kcal/mol
-----------------------------------------------------------------------
Total Enthalpy                    ...   -327.01198174 Eh

-------
ENTROPY
-------

The entropy contributions are T*S = T*(S(el)+S(vib)+S(rot)+S(trans)
     S(el)   - electronic entropy
     S(vib)  - vibrational entropy
     S(rot)  - rotational entropy
     S(trans)- translational entropy
The entropies will be listed as mutliplied by the temperature to get
units of energy

Electronic entropy                ...      0.00000000 Eh      0.00 kcal/mol
Vibrational entropy               ...      0.00961868 Eh      6.04 kcal/mol
Rotational entropy                ...      0.01211231 Eh      7.60 kcal/mol
Translational entropy             ...      0.01890147 Eh     11.86 kcal/mol
-----------------------------------------------------------------------
Final entropy term                ...      0.04063245 Eh     25.50 kcal/mol

CAUTION: The rotational entropy is not quite correctly treated here
         because it includes a symmetry number that is not yet correctly
         implemented in ORCA!
For a nonlinear molecule the correct rotational entropy is:
    S(rot) = R*(ln(qrot/sn)+1.5)
    R    = 8.31441 J/mol/K = 1.987191683e-3 kcal/mol/K
    qrot = 249443.3740473
    sn is the rotational symmetry number. We have assumed 3 here
       if it is different for your molecule then you should correct
       the printed rotational entropy by manually evaluating the equation
       as given above

For convenience we print out the resulting values for sn=1 - 12:
 sn= 1  qrot/sn=  249443.3740 T*S(rot)=     8.25 kcal/mol T*S(tot)=    26.15 kcal/mol
 sn= 2  qrot/sn=  124721.6870 T*S(rot)=     7.84 kcal/mol T*S(tot)=    25.74 kcal/mol
 sn= 3  qrot/sn=   83147.7913 T*S(rot)=     7.60 kcal/mol T*S(tot)=    25.50 kcal/mol
 sn= 4  qrot/sn=   62360.8435 T*S(rot)=     7.43 kcal/mol T*S(tot)=    25.33 kcal/mol
 sn= 5  qrot/sn=   49888.6748 T*S(rot)=     7.30 kcal/mol T*S(tot)=    25.19 kcal/mol
 sn= 6  qrot/sn=   41573.8957 T*S(rot)=     7.19 kcal/mol T*S(tot)=    25.09 kcal/mol
 sn= 7  qrot/sn=   35634.7677 T*S(rot)=     7.10 kcal/mol T*S(tot)=    25.00 kcal/mol
 sn= 8  qrot/sn=   31180.4218 T*S(rot)=     7.02 kcal/mol T*S(tot)=    24.92 kcal/mol
 sn= 9  qrot/sn=   27715.9304 T*S(rot)=     6.95 kcal/mol T*S(tot)=    24.85 kcal/mol
 sn=10  qrot/sn=   24944.3374 T*S(rot)=     6.89 kcal/mol T*S(tot)=    24.78 kcal/mol
 sn=11  qrot/sn=   22676.6704 T*S(rot)=     6.83 kcal/mol T*S(tot)=    24.73 kcal/mol
 sn=12  qrot/sn=   20786.9478 T*S(rot)=     6.78 kcal/mol T*S(tot)=    24.68 kcal/mol

-------------------
GIBBS FREE ENTHALPY
-------------------

The Gibbs free enthalpy is G = H - T*S

Total enthalpy                    ...   -327.01198174 Eh
Total entropy correction          ...     -0.04063245 Eh    -25.50 kcal/mol
-----------------------------------------------------------------------
Final Gibbs free enthalpy         ...   -327.05261419 Eh

For completeness - the Gibbs free enthalpy minus the electronic energy
G-E(el)                           ...      0.14368974 Eh     90.17 kcal/mol

                             ****ORCA TERMINATED NORMALLY****
TOTAL RUN TIME: 0 days 0 hours 37 minutes 38 seconds 43 msec
