                         Program Version 3.0.3 - RELEASE   -
|  1> ! NORI PBE0 def2-TZVP UseSym TightOPT Freq TightSCF Grid3 FinalGrid5 XYZFile
|  2> % pal
|  3>     nprocs 8
|  4> end
|  5> %method
|  6>     SymThresh 5.0e-2
|  7> end
|  8> % geom
|  9>     MaxIter 10
| 10> end
| 11> % maxcore 2000
| 12> % output
| 13>     printlevel mini
| 14>     print[ P_Basis ] 0
| 15>     print[ P_SCFInfo ] 1
| 16>     print[ P_SCFIterInfo ] 1
| 17>     print[ P_OrbEn ] 0
| 18>     print[ P_Cartesian ] 0
| 19> end
| 20> % elprop
| 21>     Dipole false
| 22> end
| 23> *xyz 1 1
| 24>  C        2.7472870059     1.0782508434     0.5949919284
| 25>  C        2.3104452681    -0.1185563508    -0.2398505888
| 26>  C        3.4637570894    -1.0195569982    -0.5898007972
| 27>  C        4.5322630825    -0.4681917533    -1.5053392111
| 28>  O        5.3011346208    -1.5597161567    -1.9480011291
| 29>  C        3.8234245017    -2.1333856139     0.3052261730
| 30>  N        3.1045332846    -2.4275305468    -0.9566182131
| 31>  H        1.8747499634     1.6684171061     0.8746097280
| 32>  H        3.4216455724     1.7358482602     0.0441748953
| 33>  H        3.2467054551     0.7659554063     1.5143897106
| 34>  H        1.5635708044    -0.6974337242     0.3139636083
| 35>  H        1.8324126877     0.2190192132    -1.1643626216
| 36>  H        4.0533756301     0.0572297524    -2.3401690867
| 37>  H        5.1288886241     0.2529509842    -0.9369500098
| 38>  H        6.0226886293    -1.2632729177    -2.5094097179
| 39>  H        4.8369764955    -2.5117225010     0.3121009499
| 40>  H        3.2324953884    -2.2972608556     1.1970597934
| 41>  H        3.6742120916    -2.8284095706    -1.7004878349
| 42>  H        2.1346538050    -2.7176845773    -0.9178575766
| 43> *
| 44>
| 45>                          ****END OF INPUT****
 Total Charge           Charge          ....    1
 Multiplicity           Mult            ....    1
 Number of Electrons    NEL             ....   56
FINAL SINGLE POINT ENERGY      -327.208771966899
FINAL SINGLE POINT ENERGY      -327.208773000642

CARTESIAN COORDINATES (ANGSTROEM)
---------------------------------
  C     -1.617046    0.157590   -1.976154
  C     -0.249662    0.621933   -1.490956
  C      0.117759    0.016150   -0.163651
  C     -0.712506    0.405821    1.037711
  O     -0.002332   -0.001718    2.181129
  C      0.853264   -1.259549   -0.115519
  N      1.579922    0.000777    0.165794
  H     -1.815441    0.570828   -2.965099
  H     -2.419409    0.492680   -1.317168
  H     -1.667846   -0.930699   -2.053666
  H      0.511838    0.348992   -2.229458
  H     -0.230903    1.712322   -1.399794
  H     -0.874911    1.490435    1.023766
  H     -1.684217   -0.092582    0.956148
  H     -0.502260    0.189973    2.979187
  H      0.763236   -1.898455    0.753310
  H      1.138514   -1.734057   -1.045953
  H      1.792400    0.172809    1.147590
  H      2.244596    0.351555   -0.513618

FINAL SINGLE POINT ENERGY      -327.208773680273
                    ***********************HURRAY********************
 Multiplicity           Mult            ....    1
 Number of Electrons    NEL             ....   56
 Basis Dimension        Dim             ....  289
FINAL SINGLE POINT ENERGY      -327.208773841886

VIBRATIONAL FREQUENCIES
-----------------------

   0:         0.00 cm**-1
   1:         0.00 cm**-1
   2:         0.00 cm**-1
   3:         0.00 cm**-1
   4:         0.00 cm**-1
   5:         0.00 cm**-1
   6:        81.31 cm**-1
   7:       128.37 cm**-1
   8:       206.56 cm**-1
   9:       222.92 cm**-1
  10:       259.84 cm**-1
  11:       297.85 cm**-1
  12:       346.03 cm**-1
  13:       363.36 cm**-1
  14:       442.89 cm**-1
  15:       555.23 cm**-1
  16:       700.39 cm**-1
  17:       795.19 cm**-1
  18:       829.28 cm**-1
  19:       891.40 cm**-1
  20:       906.71 cm**-1
  21:       923.60 cm**-1
  22:       964.75 cm**-1
  23:      1022.59 cm**-1
  24:      1037.21 cm**-1
  25:      1072.11 cm**-1
  26:      1076.07 cm**-1
  27:      1118.92 cm**-1
  28:      1129.49 cm**-1
  29:      1182.57 cm**-1
  30:      1211.04 cm**-1
  31:      1254.70 cm**-1
  32:      1264.59 cm**-1
  33:      1272.39 cm**-1
  34:      1339.90 cm**-1
  35:      1365.00 cm**-1
  36:      1405.81 cm**-1
  37:      1421.29 cm**-1
  38:      1462.60 cm**-1
  39:      1477.45 cm**-1
  40:      1485.44 cm**-1
  41:      1494.24 cm**-1
  42:      1501.51 cm**-1
  43:      1513.16 cm**-1
  44:      1588.46 cm**-1
  45:      3036.65 cm**-1
  46:      3049.60 cm**-1
  47:      3066.37 cm**-1
  48:      3088.01 cm**-1
  49:      3095.79 cm**-1
  50:      3143.33 cm**-1
  51:      3155.08 cm**-1
  52:      3172.33 cm**-1
  53:      3276.39 cm**-1
  54:      3465.06 cm**-1
  55:      3606.42 cm**-1
  56:      3873.20 cm**-1

IR SPECTRUM
-----------

 Mode    freq (cm**-1)   T**2         TX         TY         TZ
-------------------------------------------------------------------
   6:        81.31    0.388196  (  0.085025   0.609846   0.095157)
   7:       128.37   12.559954  ( -1.794312  -3.002750   0.569113)
   8:       206.56    8.013210  (  0.438300   2.741666   0.551697)
   9:       222.92    4.372451  (  1.357861   1.491992  -0.550111)
  10:       259.84  115.067668  ( -4.194674  -9.861272  -0.477167)
  11:       297.85   17.216319  ( -1.429155   0.753368   3.821815)
  12:       346.03    2.881335  ( -1.234145  -0.885726   0.757436)
  13:       363.36    1.181545  ( -0.254585   0.726507  -0.767411)
  14:       442.89    3.505940  ( -0.401296   0.471352   1.767124)
  15:       555.23    6.123466  ( -0.911433   0.441105  -2.257916)
  16:       700.39    6.431146  ( -1.099508   0.048832  -2.284698)
  17:       795.19    4.122900  ( -1.593724   1.018385   0.738806)
  18:       829.28   24.695066  ( -3.916756  -1.016146  -2.884708)
  19:       891.40    4.206888  (  1.767481  -0.760266  -0.710558)
  20:       906.71    5.785893  (  0.710104   0.200446   2.289425)
  21:       923.60    6.653855  ( -2.270415  -0.128015   1.217655)
  22:       964.75    9.316886  (  0.892882   2.385218  -1.682375)
  23:      1022.59   47.430009  ( -4.028466   4.445693  -3.381905)
  24:      1037.21   64.273342  (  5.647487  -5.633754  -0.800030)
  25:      1072.11   12.158224  ( -0.410908   0.841904   3.358657)
  26:      1076.07   16.623888  (  1.671704  -1.931000   3.178134)
  27:      1118.92    1.540862  (  1.125680   0.487602   0.189606)
  28:      1129.49   52.706388  (  3.014936  -0.830678   6.551834)
  29:      1182.57    2.544291  (  0.350851   0.447821  -1.490185)
  30:      1211.04   53.478922  (  4.713460  -2.218628   5.132242)
  31:      1254.70    1.618251  (  0.049565  -0.615888   1.111970)
  32:      1264.59    2.265478  (  1.225499   0.006608   0.873835)
  33:      1272.39    0.955975  (  0.467581  -0.272990  -0.814137)
  34:      1339.90    3.369126  (  1.708413  -0.667662  -0.068397)
  35:      1365.00    2.464869  (  0.663922  -1.363202   0.407133)
  36:      1405.81    1.530817  (  0.754598  -0.907736   0.370694)
  37:      1421.29    3.810205  ( -1.249207  -1.382542  -0.581607)
  38:      1462.60    3.818881  ( -0.207660   1.662039  -1.006671)
  39:      1477.45   14.047836  (  1.181278   3.280121   1.375944)
  40:      1485.44    7.273018  ( -1.236544   2.384659  -0.239538)
  41:      1494.24   14.705758  ( -2.446883   2.060887   2.114536)
  42:      1501.51   10.002428  (  0.558762   2.131586  -2.268602)
  43:      1513.16    1.385306  (  0.847145  -0.056052  -0.815175)
  44:      1588.46   95.552103  (  9.442637   2.433164   0.684411)
  45:      3036.65   18.466002  ( -2.502624   2.502569  -2.437216)
  46:      3049.60    7.098191  (  2.376762   0.898792  -0.800855)
  47:      3066.37    7.168857  (  2.379966   1.185155  -0.316271)
  48:      3088.01    5.175218  (  1.356962   1.679100   0.717282)
  49:      3095.79    4.857338  ( -0.545052   1.972673   0.817814)
  50:      3143.33   11.744974  ( -1.577772   2.786732   1.220545)
  51:      3155.08    3.965172  (  0.751909   0.578165  -1.750866)
  52:      3172.33    2.270701  ( -0.072183   1.325143  -0.713784)
  53:      3276.39    5.246544  (  0.533938   0.427354  -2.186052)
  54:      3465.06  116.501594  ( -6.053472  -3.849691  -8.064549)
  55:      3606.42  137.040215  (  5.930173   1.974755  -9.898161)
  56:      3873.20  142.940582  ( -3.806683   1.190900  11.270825)

--------------------------
THERMOCHEMISTRY AT 298.15K
--------------------------

Temperature         ... 298.15 K
Pressure            ... 1.00 atm
Total Mass          ... 102.16 AMU

Throughout the following assumptions are being made:
  (1) The electronic state is orbitally nondegenerate
  (2) There are no thermally accessible electronically excited states
  (3) Hindered rotations indicated by low frequency modes) are not
      treated as such but are treated as vibrations and this may
      case some error
  (4) All equations used are the standard statistical mechanics
      equations for an ideal gas
  (5) All vibrations are strinctly harmonic

------------
INNER ENERGY
------------

The inner energy is: U= E(el) + E(ZPE) + E(vib) + E(rot) + E(trans)
    E(el)   - is the total energy from the electronic structure calculation
              = E(kin-el) + E(nuc-el) + E(el-el) + E(nuc-nuc)
    E(ZPE)  - the the zero temperature vibrational energy from the frequency calculation
    E(vib)  - the the finite temperature correction to E(ZPE) due to population
              of excietd vibrational states
    E(rot)  - is the rotational thermal energy
    E(trans)- is the translational thermal energy

Summary of contributions to the inner energy U:
Electronic energy                ...   -327.20877384 Eh
Zero point energy                ...      0.17459979 Eh     109.56 kcal/mol
Thermal vibrational correction   ...      0.00536190 Eh       3.36 kcal/mol
Thermal rotational correction    ...      0.00141627 Eh       0.89 kcal/mol
Thermal translational correction ...      0.00141627 Eh       0.89 kcal/mol
-----------------------------------------------------------------------
Total thermal energy                   -327.02597961 Eh

Summary of corrections to the electronic energy:
(perhaps to be used in another calculation)
Total thermal correction                  0.00819444 Eh       5.14 kcal/mol
Non-thermal (ZPE) correction              0.17459979 Eh     109.56 kcal/mol
-----------------------------------------------------------------------
Total correction                          0.18279423 Eh     114.70 kcal/mol

--------
ENTHALPY
--------

The enthalpy is H = U + kB*T
                kB is Boltzmann's constant
Total free energy                 ...   -327.02597961 Eh
Thermal Enthalpy correction       ...      0.00094421 Eh       0.59 kcal/mol
-----------------------------------------------------------------------
Total Enthalpy                    ...   -327.02503540 Eh

-------
ENTROPY
-------

The entropy contributions are T*S = T*(S(el)+S(vib)+S(rot)+S(trans)
     S(el)   - electronic entropy
     S(vib)  - vibrational entropy
     S(rot)  - rotational entropy
     S(trans)- translational entropy
The entropies will be listed as mutliplied by the temperature to get
units of energy

Electronic entropy                ...      0.00000000 Eh      0.00 kcal/mol
Vibrational entropy               ...      0.00928758 Eh      5.83 kcal/mol
Rotational entropy                ...      0.01209102 Eh      7.59 kcal/mol
Translational entropy             ...      0.01890147 Eh     11.86 kcal/mol
-----------------------------------------------------------------------
Final entropy term                ...      0.04028007 Eh     25.28 kcal/mol

CAUTION: The rotational entropy is not quite correctly treated here
         because it includes a symmetry number that is not yet correctly
         implemented in ORCA!
For a nonlinear molecule the correct rotational entropy is:
    S(rot) = R*(ln(qrot/sn)+1.5)
    R    = 8.31441 J/mol/K = 1.987191683e-3 kcal/mol/K
    qrot = 243883.6371701
    sn is the rotational symmetry number. We have assumed 3 here
       if it is different for your molecule then you should correct
       the printed rotational entropy by manually evaluating the equation
       as given above

For convenience we print out the resulting values for sn=1 - 12:
 sn= 1  qrot/sn=  243883.6372 T*S(rot)=     8.24 kcal/mol T*S(tot)=    25.93 kcal/mol
 sn= 2  qrot/sn=  121941.8186 T*S(rot)=     7.83 kcal/mol T*S(tot)=    25.52 kcal/mol
 sn= 3  qrot/sn=   81294.5457 T*S(rot)=     7.59 kcal/mol T*S(tot)=    25.28 kcal/mol
 sn= 4  qrot/sn=   60970.9093 T*S(rot)=     7.42 kcal/mol T*S(tot)=    25.11 kcal/mol
 sn= 5  qrot/sn=   48776.7274 T*S(rot)=     7.28 kcal/mol T*S(tot)=    24.97 kcal/mol
 sn= 6  qrot/sn=   40647.2729 T*S(rot)=     7.18 kcal/mol T*S(tot)=    24.87 kcal/mol
 sn= 7  qrot/sn=   34840.5196 T*S(rot)=     7.09 kcal/mol T*S(tot)=    24.77 kcal/mol
 sn= 8  qrot/sn=   30485.4546 T*S(rot)=     7.01 kcal/mol T*S(tot)=    24.69 kcal/mol
 sn= 9  qrot/sn=   27098.1819 T*S(rot)=     6.94 kcal/mol T*S(tot)=    24.63 kcal/mol
 sn=10  qrot/sn=   24388.3637 T*S(rot)=     6.87 kcal/mol T*S(tot)=    24.56 kcal/mol
 sn=11  qrot/sn=   22171.2397 T*S(rot)=     6.82 kcal/mol T*S(tot)=    24.51 kcal/mol
 sn=12  qrot/sn=   20323.6364 T*S(rot)=     6.77 kcal/mol T*S(tot)=    24.45 kcal/mol

-------------------
GIBBS FREE ENTHALPY
-------------------

The Gibbs free enthalpy is G = H - T*S

Total enthalpy                    ...   -327.02503540 Eh
Total entropy correction          ...     -0.04028007 Eh    -25.28 kcal/mol
-----------------------------------------------------------------------
Final Gibbs free enthalpy         ...   -327.06531547 Eh

For completeness - the Gibbs free enthalpy minus the electronic energy
G-E(el)                           ...      0.14345837 Eh     90.02 kcal/mol

                             ****ORCA TERMINATED NORMALLY****
TOTAL RUN TIME: 0 days 0 hours 36 minutes 12 seconds 458 msec
