                         Program Version 3.0.3 - RELEASE   -
|  1> ! NORI PBE0 def2-TZVP UseSym TightOPT Freq TightSCF Grid3 FinalGrid5 XYZFile
|  2> % pal
|  3>     nprocs 8
|  4> end
|  5> %method
|  6>     SymThresh 5.0e-2
|  7> end
|  8> % geom
|  9>     MaxIter 10
| 10> end
| 11> % maxcore 2000
| 12> % output
| 13>     printlevel mini
| 14>     print[ P_Basis ] 0
| 15>     print[ P_SCFInfo ] 1
| 16>     print[ P_SCFIterInfo ] 1
| 17>     print[ P_OrbEn ] 0
| 18>     print[ P_Cartesian ] 0
| 19> end
| 20> % elprop
| 21>     Dipole false
| 22> end
| 23> *xyz 1 1
| 24>  C        0.6606415677    -0.0668324998    -0.7678431297
| 25>  C        1.6854303919     0.5419073497    -0.1924421539
| 26>  C        2.9078402491     0.9814047108    -0.8966580114
| 27>  N        2.7809332933     1.3632610725    -2.3202104648
| 28>  C        3.1031075436     2.3985063992    -1.2999082980
| 29>  C        4.4921188247     2.9800342555    -1.3493415902
| 30>  O        4.7173032929     4.0622324339    -0.9151024066
| 31>  H       -0.2056631551    -0.3586634573    -0.1877547319
| 32>  H        0.6355978526    -0.3240819662    -1.8231172983
| 33>  H        1.6937547118     0.7448878927     0.8746041052
| 34>  H        3.8207522613     0.4171799041    -0.7127553818
| 35>  H        3.5055754536     1.0841310350    -2.9765424296
| 36>  H        1.8432772185     1.3875669248    -2.7122546959
| 37>  H        2.2965319502     3.1009968662    -1.1211266281
| 38>  H        5.2800585437     2.3225690790    -1.7790768850
| 39> *
| 40>
| 41>                          ****END OF INPUT****
 Total Charge           Charge          ....    1
 Multiplicity           Mult            ....    1
 Number of Electrons    NEL             ....   52
FINAL SINGLE POINT ENERGY      -324.731998180427

CARTESIAN COORDINATES (ANGSTROEM)
---------------------------------
  C     -0.663611    0.578953   -2.816415
  C     -1.097249    0.089869   -1.665626
  C     -0.233863   -0.503935   -0.623746
  N      1.152835   -0.000822   -0.511341
  C      0.174971    0.269546    0.577975
  C      0.411984   -0.442792    1.884231
  O      0.001718    0.001820    2.906147
  H     -1.356016    1.002339   -3.532946
  H      0.381294    0.566844   -3.113808
  H     -2.155085    0.081237   -1.419836
  H     -0.280202   -1.583706   -0.491911
  H      1.907645   -0.658936   -0.335646
  H      1.409185    0.788184   -1.098463
  H     -0.123770    1.309662    0.647709
  H      0.956410   -1.410677    1.818722

FINAL SINGLE POINT ENERGY      -324.731999099873
                    ***********************HURRAY********************
 Multiplicity           Mult            ....    1
 Number of Electrons    NEL             ....   52
 Basis Dimension        Dim             ....  265
FINAL SINGLE POINT ENERGY      -324.731999039191

VIBRATIONAL FREQUENCIES
-----------------------

   0:         0.00 cm**-1
   1:         0.00 cm**-1
   2:         0.00 cm**-1
   3:         0.00 cm**-1
   4:         0.00 cm**-1
   5:         0.00 cm**-1
   6:        73.22 cm**-1
   7:        81.76 cm**-1
   8:       179.18 cm**-1
   9:       223.09 cm**-1
  10:       297.91 cm**-1
  11:       340.43 cm**-1
  12:       480.96 cm**-1
  13:       553.66 cm**-1
  14:       654.90 cm**-1
  15:       809.17 cm**-1
  16:       880.09 cm**-1
  17:       890.99 cm**-1
  18:       920.32 cm**-1
  19:       997.08 cm**-1
  20:      1002.29 cm**-1
  21:      1018.83 cm**-1
  22:      1028.84 cm**-1
  23:      1063.74 cm**-1
  24:      1090.46 cm**-1
  25:      1133.04 cm**-1
  26:      1159.19 cm**-1
  27:      1184.22 cm**-1
  28:      1240.51 cm**-1
  29:      1316.56 cm**-1
  30:      1322.86 cm**-1
  31:      1401.08 cm**-1
  32:      1436.68 cm**-1
  33:      1465.93 cm**-1
  34:      1609.19 cm**-1
  35:      1725.21 cm**-1
  36:      1877.34 cm**-1
  37:      2909.69 cm**-1
  38:      3150.84 cm**-1
  39:      3156.42 cm**-1
  40:      3192.17 cm**-1
  41:      3211.21 cm**-1
  42:      3256.69 cm**-1
  43:      3485.25 cm**-1
  44:      3588.55 cm**-1

IR SPECTRUM
-----------

 Mode    freq (cm**-1)   T**2         TX         TY         TZ
-------------------------------------------------------------------
   6:        73.22    3.738997  (  0.718370   1.764577  -0.330470)
   7:        81.76   10.459909  ( -3.230411   0.134282  -0.079522)
   8:       179.18    4.304406  ( -1.296449   1.463048  -0.695067)
   9:       223.09    0.423391  (  0.368420  -0.536081  -0.016567)
  10:       297.91    2.819269  ( -1.359241   0.002973  -0.985761)
  11:       340.43    6.477621  (  0.992414  -2.321774  -0.319536)
  12:       480.96    9.372774  (  0.714170  -1.485317   2.580033)
  13:       553.66    0.724711  (  0.394360   0.403803  -0.637287)
  14:       654.90   18.524936  ( -1.495268  -3.237847  -2.409452)
  15:       809.17   14.761819  ( -1.119806  -0.567968  -3.631152)
  16:       880.09   17.247742  (  3.046904  -1.474364  -2.406318)
  17:       890.99   42.850140  (  1.516458   3.140329  -5.539750)
  18:       920.32    6.326761  (  0.489090   1.010258  -2.250984)
  19:       997.08   19.518957  ( -1.026031   4.297234   0.001448)
  20:      1002.29   55.010323  ( -2.084544  -5.895715  -3.988175)
  21:      1018.83   21.119211  (  1.900153   2.581337   3.293225)
  22:      1028.84   53.030586  ( -1.595850  -3.390104  -6.244281)
  23:      1063.74   19.663021  ( -2.881591  -2.250699  -2.508746)
  24:      1090.46   11.110861  (  0.156071   1.107141  -3.140182)
  25:      1133.04   20.057242  ( -1.926244   2.128897  -3.437241)
  26:      1159.19    3.093250  (  1.257622  -0.369703   1.172586)
  27:      1184.22    3.757151  ( -0.595464   0.998383  -1.551066)
  28:      1240.51    2.224947  (  0.428954   1.376344   0.382914)
  29:      1316.56    2.238894  ( -0.062314  -0.380476  -1.445769)
  30:      1322.86    1.128169  ( -0.142484   0.852875  -0.616824)
  31:      1401.08    0.749739  (  0.751096  -0.165037  -0.397941)
  32:      1436.68   11.904823  ( -2.029501   0.121605  -2.787680)
  33:      1465.93   29.192145  ( -1.002810  -1.932896   4.944738)
  34:      1609.19   75.713783  (  8.468713   0.964000  -1.750825)
  35:      1725.21    0.285687  ( -0.523445  -0.054118  -0.093614)
  36:      1877.34  177.011217  ( -2.564109   2.999064  12.705990)
  37:      2909.69   41.299754  ( -3.402185   5.378781   0.890845)
  38:      3150.84    2.225958  ( -0.365686  -1.446187  -0.027870)
  39:      3156.42    6.824009  ( -2.208813   0.366716  -1.345613)
  40:      3192.17    4.330103  ( -2.019724  -0.026962   0.500093)
  41:      3211.21   10.327042  (  0.935988  -2.993936  -0.698081)
  42:      3256.69    2.088072  (  0.556390  -0.643770   1.167931)
  43:      3485.25   88.338253  (  8.809107   0.493925  -3.239432)
  44:      3588.55  130.177018  ( -3.268464   9.031388  -6.158587)

--------------------------
THERMOCHEMISTRY AT 298.15K
--------------------------

Temperature         ... 298.15 K
Pressure            ... 1.00 atm
Total Mass          ... 98.12 AMU

Throughout the following assumptions are being made:
  (1) The electronic state is orbitally nondegenerate
  (2) There are no thermally accessible electronically excited states
  (3) Hindered rotations indicated by low frequency modes) are not
      treated as such but are treated as vibrations and this may
      case some error
  (4) All equations used are the standard statistical mechanics
      equations for an ideal gas
  (5) All vibrations are strinctly harmonic

------------
INNER ENERGY
------------

The inner energy is: U= E(el) + E(ZPE) + E(vib) + E(rot) + E(trans)
    E(el)   - is the total energy from the electronic structure calculation
              = E(kin-el) + E(nuc-el) + E(el-el) + E(nuc-nuc)
    E(ZPE)  - the the zero temperature vibrational energy from the frequency calculation
    E(vib)  - the the finite temperature correction to E(ZPE) due to population
              of excietd vibrational states
    E(rot)  - is the rotational thermal energy
    E(trans)- is the translational thermal energy

Summary of contributions to the inner energy U:
Electronic energy                ...   -324.73199904 Eh
Zero point energy                ...      0.12623220 Eh      79.21 kcal/mol
Thermal vibrational correction   ...      0.00458525 Eh       2.88 kcal/mol
Thermal rotational correction    ...      0.00141627 Eh       0.89 kcal/mol
Thermal translational correction ...      0.00141627 Eh       0.89 kcal/mol
-----------------------------------------------------------------------
Total thermal energy                   -324.59834905 Eh

Summary of corrections to the electronic energy:
(perhaps to be used in another calculation)
Total thermal correction                  0.00741779 Eh       4.65 kcal/mol
Non-thermal (ZPE) correction              0.12623220 Eh      79.21 kcal/mol
-----------------------------------------------------------------------
Total correction                          0.13364999 Eh      83.87 kcal/mol

--------
ENTHALPY
--------

The enthalpy is H = U + kB*T
                kB is Boltzmann's constant
Total free energy                 ...   -324.59834905 Eh
Thermal Enthalpy correction       ...      0.00094421 Eh       0.59 kcal/mol
-----------------------------------------------------------------------
Total Enthalpy                    ...   -324.59740484 Eh

-------
ENTROPY
-------

The entropy contributions are T*S = T*(S(el)+S(vib)+S(rot)+S(trans)
     S(el)   - electronic entropy
     S(vib)  - vibrational entropy
     S(rot)  - rotational entropy
     S(trans)- translational entropy
The entropies will be listed as mutliplied by the temperature to get
units of energy

Electronic entropy                ...      0.00000000 Eh      0.00 kcal/mol
Vibrational entropy               ...      0.00847847 Eh      5.32 kcal/mol
Rotational entropy                ...      0.01204809 Eh      7.56 kcal/mol
Translational entropy             ...      0.01884443 Eh     11.83 kcal/mol
-----------------------------------------------------------------------
Final entropy term                ...      0.03937099 Eh     24.71 kcal/mol

CAUTION: The rotational entropy is not quite correctly treated here
         because it includes a symmetry number that is not yet correctly
         implemented in ORCA!
For a nonlinear molecule the correct rotational entropy is:
    S(rot) = R*(ln(qrot/sn)+1.5)
    R    = 8.31441 J/mol/K = 1.987191683e-3 kcal/mol/K
    qrot = 233041.1608189
    sn is the rotational symmetry number. We have assumed 3 here
       if it is different for your molecule then you should correct
       the printed rotational entropy by manually evaluating the equation
       as given above

For convenience we print out the resulting values for sn=1 - 12:
 sn= 1  qrot/sn=  233041.1608 T*S(rot)=     8.21 kcal/mol T*S(tot)=    25.36 kcal/mol
 sn= 2  qrot/sn=  116520.5804 T*S(rot)=     7.80 kcal/mol T*S(tot)=    24.95 kcal/mol
 sn= 3  qrot/sn=   77680.3869 T*S(rot)=     7.56 kcal/mol T*S(tot)=    24.71 kcal/mol
 sn= 4  qrot/sn=   58260.2902 T*S(rot)=     7.39 kcal/mol T*S(tot)=    24.54 kcal/mol
 sn= 5  qrot/sn=   46608.2322 T*S(rot)=     7.26 kcal/mol T*S(tot)=    24.40 kcal/mol
 sn= 6  qrot/sn=   38840.1935 T*S(rot)=     7.15 kcal/mol T*S(tot)=    24.29 kcal/mol
 sn= 7  qrot/sn=   33291.5944 T*S(rot)=     7.06 kcal/mol T*S(tot)=    24.20 kcal/mol
 sn= 8  qrot/sn=   29130.1451 T*S(rot)=     6.98 kcal/mol T*S(tot)=    24.12 kcal/mol
 sn= 9  qrot/sn=   25893.4623 T*S(rot)=     6.91 kcal/mol T*S(tot)=    24.05 kcal/mol
 sn=10  qrot/sn=   23304.1161 T*S(rot)=     6.85 kcal/mol T*S(tot)=    23.99 kcal/mol
 sn=11  qrot/sn=   21185.5601 T*S(rot)=     6.79 kcal/mol T*S(tot)=    23.94 kcal/mol
 sn=12  qrot/sn=   19420.0967 T*S(rot)=     6.74 kcal/mol T*S(tot)=    23.88 kcal/mol

-------------------
GIBBS FREE ENTHALPY
-------------------

The Gibbs free enthalpy is G = H - T*S

Total enthalpy                    ...   -324.59740484 Eh
Total entropy correction          ...     -0.03937099 Eh    -24.71 kcal/mol
-----------------------------------------------------------------------
Final Gibbs free enthalpy         ...   -324.63677583 Eh

For completeness - the Gibbs free enthalpy minus the electronic energy
G-E(el)                           ...      0.09522321 Eh     59.75 kcal/mol

                             ****ORCA TERMINATED NORMALLY****
TOTAL RUN TIME: 0 days 0 hours 23 minutes 43 seconds 190 msec
