                         Program Version 3.0.3 - RELEASE   -
|  1> ! NORI PBE0 def2-TZVP UseSym TightOPT Freq TightSCF Grid3 FinalGrid5 XYZFile
|  2> % pal
|  3>     nprocs 8
|  4> end
|  5> %method
|  6>     SymThresh 5.0e-2
|  7> end
|  8> % geom
|  9>     MaxIter 10
| 10> end
| 11> % maxcore 2000
| 12> % output
| 13>     printlevel mini
| 14>     print[ P_Basis ] 0
| 15>     print[ P_SCFInfo ] 1
| 16>     print[ P_SCFIterInfo ] 1
| 17>     print[ P_OrbEn ] 0
| 18>     print[ P_Cartesian ] 0
| 19> end
| 20> % elprop
| 21>     Dipole false
| 22> end
| 23> *xyz 1 1
| 24>  C        3.3797343991    -0.8653586012     0.6991177240
| 25>  C        2.3082085047    -0.0645621606    -0.0287164499
| 26>  C        2.9315462247     0.9619024632    -0.9242627481
| 27>  N        2.0917993833     2.1068039928    -1.3720746161
| 28>  C        3.2424041040     2.3316867229    -0.4548516616
| 29>  C        4.4179033804     3.0771760605    -1.0292873187
| 30>  O        5.1796390355     3.6563959830    -0.3257332814
| 31>  H        2.9097213123    -1.6120002496     1.3390287839
| 32>  H        4.0015536154    -0.2272224361     1.3305791164
| 33>  H        4.0291194083    -1.3930866831    -0.0026550996
| 34>  H        1.6867102779    -0.7283434244    -0.6370682495
| 35>  H        1.6502619830     0.4309385963     0.6942254016
| 36>  H        3.5457318092     0.5894901664    -1.7408077687
| 37>  H        1.1588546710     2.1951425125    -0.9803789461
| 38>  H        2.1711378329     2.4343356057    -2.3313087362
| 39>  H        2.9534797858     2.6133105196     0.5519216263
| 40>  H        4.5394742727     3.0157309322    -2.1337877762
| 41> *
| 42>
| 43>                          ****END OF INPUT****
 Total Charge           Charge          ....    1
 Multiplicity           Mult            ....    1
 Number of Electrons    NEL             ....   54
FINAL SINGLE POINT ENERGY      -325.971370759699
FINAL SINGLE POINT ENERGY      -325.971371841195

CARTESIAN COORDINATES (ANGSTROEM)
---------------------------------
  C     -2.096124    0.170819   -1.760631
  C     -0.586841    0.306367   -1.917070
  C      0.124841   -0.380140   -0.791479
  N      1.538836    0.000304   -0.518861
  C      0.469550    0.321532    0.466119
  C      0.511765   -0.436386    1.767076
  O     -0.001225   -0.001494    2.746162
  H     -2.597342    0.666806   -2.591321
  H     -2.448524    0.629653   -0.834895
  H     -2.404990   -0.876183   -1.765283
  H     -0.261387   -0.141153   -2.860586
  H     -0.301967    1.364175   -1.939757
  H     -0.009054   -1.456268   -0.712698
  H      1.934875    0.772764   -1.046196
  H      2.209585   -0.725202   -0.279824
  H      0.248619    1.380580    0.546139
  H      1.017107   -1.426824    1.736619

FINAL SINGLE POINT ENERGY      -325.971371843646
                    ***********************HURRAY********************
 Multiplicity           Mult            ....    1
 Number of Electrons    NEL             ....   54
 Basis Dimension        Dim             ....  277
FINAL SINGLE POINT ENERGY      -325.971372223369

VIBRATIONAL FREQUENCIES
-----------------------

   0:         0.00 cm**-1
   1:         0.00 cm**-1
   2:         0.00 cm**-1
   3:         0.00 cm**-1
   4:         0.00 cm**-1
   5:         0.00 cm**-1
   6:        65.91 cm**-1
   7:       111.82 cm**-1
   8:       149.07 cm**-1
   9:       194.54 cm**-1
  10:       249.23 cm**-1
  11:       310.81 cm**-1
  12:       387.17 cm**-1
  13:       440.13 cm**-1
  14:       500.44 cm**-1
  15:       768.99 cm**-1
  16:       815.67 cm**-1
  17:       863.62 cm**-1
  18:       878.97 cm**-1
  19:       919.35 cm**-1
  20:       959.86 cm**-1
  21:      1010.46 cm**-1
  22:      1028.23 cm**-1
  23:      1043.24 cm**-1
  24:      1069.13 cm**-1
  25:      1133.52 cm**-1
  26:      1146.80 cm**-1
  27:      1191.45 cm**-1
  28:      1217.85 cm**-1
  29:      1246.03 cm**-1
  30:      1307.51 cm**-1
  31:      1329.71 cm**-1
  32:      1347.79 cm**-1
  33:      1407.18 cm**-1
  34:      1419.27 cm**-1
  35:      1452.89 cm**-1
  36:      1478.14 cm**-1
  37:      1492.35 cm**-1
  38:      1499.33 cm**-1
  39:      1620.56 cm**-1
  40:      1876.82 cm**-1
  41:      2908.90 cm**-1
  42:      3049.26 cm**-1
  43:      3067.20 cm**-1
  44:      3100.33 cm**-1
  45:      3143.94 cm**-1
  46:      3159.56 cm**-1
  47:      3170.36 cm**-1
  48:      3204.76 cm**-1
  49:      3487.91 cm**-1
  50:      3592.57 cm**-1

IR SPECTRUM
-----------

 Mode    freq (cm**-1)   T**2         TX         TY         TZ
-------------------------------------------------------------------
   6:        65.91    7.556843  (  2.643242   0.710222   0.256317)
   7:       111.82    3.232896  ( -1.560396   0.886260  -0.112258)
   8:       149.07    2.842123  ( -0.404792  -1.636487  -0.013335)
   9:       194.54    0.495065  ( -0.473230   0.393243  -0.341289)
  10:       249.23    3.436889  ( -0.937881   1.515427  -0.510636)
  11:       310.81    1.603840  ( -0.934330   0.836347   0.177174)
  12:       387.17    3.098927  (  1.539575  -0.413962   0.746506)
  13:       440.13    1.792754  (  0.101325   0.891870   0.993507)
  14:       500.44   10.557853  (  0.016217  -1.383226   2.940115)
  15:       768.99    1.384805  ( -0.333633  -1.037977  -0.442830)
  16:       815.67    6.593910  (  2.019873   0.785553   1.377291)
  17:       863.62   19.358758  ( -3.908421   1.922371   0.622489)
  18:       878.97   34.949227  (  2.475008   2.006436  -4.979737)
  19:       919.35    8.177418  ( -1.020686  -2.229314   1.471658)
  20:       959.86    1.537455  ( -0.249149  -1.211313   0.090001)
  21:      1010.46   11.537835  (  1.454795  -3.059408   0.247846)
  22:      1028.23  103.618911  ( -2.875150  -3.278068  -9.198190)
  23:      1043.24    4.201717  (  0.934219   0.705986  -1.682420)
  24:      1069.13    7.608880  ( -1.975524  -1.747142   0.808505)
  25:      1133.52   10.409897  (  1.455533  -1.380435   2.526998)
  26:      1146.80    6.205807  ( -0.257011   1.394716  -2.048053)
  27:      1191.45    3.812210  ( -0.434409   1.000348  -1.619507)
  28:      1217.85    1.170379  ( -0.724601  -0.072421  -0.800054)
  29:      1246.03    5.180282  ( -0.695454  -0.973013  -1.936458)
  30:      1307.51    1.403772  (  1.129409  -0.044159   0.355327)
  31:      1329.71    0.983664  (  0.459361   0.647360  -0.594623)
  32:      1347.79    5.846358  (  0.118649   0.404225   2.380942)
  33:      1407.18    1.249874  (  0.060463   0.284713   1.079424)
  34:      1419.27    4.604720  ( -1.312770  -0.251401   1.678735)
  35:      1452.89   11.445619  (  2.101356  -0.470422   2.609335)
  36:      1478.14    5.254238  (  2.128368   0.699586   0.484629)
  37:      1492.35   15.029969  (  0.126359   3.357626   1.933999)
  38:      1499.33   13.952274  ( -0.074848  -2.276152   2.960710)
  39:      1620.56   81.383062  (  8.884946   0.225802  -1.545898)
  40:      1876.82  160.053231  ( -3.493940   3.021183  11.777864)
  41:      2908.90   42.069436  ( -3.407259   5.491064   0.555197)
  42:      3049.26    7.430499  ( -2.280834  -1.489979   0.090863)
  43:      3067.20    6.156401  (  2.035625   0.926280  -1.074540)
  44:      3100.33    0.950324  (  0.072761   0.829215   0.507378)
  45:      3143.94    8.538456  ( -0.031662  -2.500091  -1.512282)
  46:      3159.56    1.847180  (  0.229099   0.630403  -1.182069)
  47:      3170.36    0.465104  ( -0.579298  -0.313298   0.177095)
  48:      3204.76    7.216627  (  0.576611  -2.563389  -0.559627)
  49:      3487.91  107.436755  (-10.134039   0.106019   2.174115)
  50:      3592.57  123.684141  (  0.537065  -9.364796   5.974638)

--------------------------
THERMOCHEMISTRY AT 298.15K
--------------------------

Temperature         ... 298.15 K
Pressure            ... 1.00 atm
Total Mass          ... 100.14 AMU

Throughout the following assumptions are being made:
  (1) The electronic state is orbitally nondegenerate
  (2) There are no thermally accessible electronically excited states
  (3) Hindered rotations indicated by low frequency modes) are not
      treated as such but are treated as vibrations and this may
      case some error
  (4) All equations used are the standard statistical mechanics
      equations for an ideal gas
  (5) All vibrations are strinctly harmonic

------------
INNER ENERGY
------------

The inner energy is: U= E(el) + E(ZPE) + E(vib) + E(rot) + E(trans)
    E(el)   - is the total energy from the electronic structure calculation
              = E(kin-el) + E(nuc-el) + E(el-el) + E(nuc-nuc)
    E(ZPE)  - the the zero temperature vibrational energy from the frequency calculation
    E(vib)  - the the finite temperature correction to E(ZPE) due to population
              of excietd vibrational states
    E(rot)  - is the rotational thermal energy
    E(trans)- is the translational thermal energy

Summary of contributions to the inner energy U:
Electronic energy                ...   -325.97137222 Eh
Zero point energy                ...      0.14994584 Eh      94.09 kcal/mol
Thermal vibrational correction   ...      0.00510321 Eh       3.20 kcal/mol
Thermal rotational correction    ...      0.00141627 Eh       0.89 kcal/mol
Thermal translational correction ...      0.00141627 Eh       0.89 kcal/mol
-----------------------------------------------------------------------
Total thermal energy                   -325.81349063 Eh

Summary of corrections to the electronic energy:
(perhaps to be used in another calculation)
Total thermal correction                  0.00793576 Eh       4.98 kcal/mol
Non-thermal (ZPE) correction              0.14994584 Eh      94.09 kcal/mol
-----------------------------------------------------------------------
Total correction                          0.15788160 Eh      99.07 kcal/mol

--------
ENTHALPY
--------

The enthalpy is H = U + kB*T
                kB is Boltzmann's constant
Total free energy                 ...   -325.81349063 Eh
Thermal Enthalpy correction       ...      0.00094421 Eh       0.59 kcal/mol
-----------------------------------------------------------------------
Total Enthalpy                    ...   -325.81254642 Eh

-------
ENTROPY
-------

The entropy contributions are T*S = T*(S(el)+S(vib)+S(rot)+S(trans)
     S(el)   - electronic entropy
     S(vib)  - vibrational entropy
     S(rot)  - rotational entropy
     S(trans)- translational entropy
The entropies will be listed as mutliplied by the temperature to get
units of energy

Electronic entropy                ...      0.00000000 Eh      0.00 kcal/mol
Vibrational entropy               ...      0.00934035 Eh      5.86 kcal/mol
Rotational entropy                ...      0.01227154 Eh      7.70 kcal/mol
Translational entropy             ...      0.01887324 Eh     11.84 kcal/mol
-----------------------------------------------------------------------
Final entropy term                ...      0.04048514 Eh     25.40 kcal/mol

CAUTION: The rotational entropy is not quite correctly treated here
         because it includes a symmetry number that is not yet correctly
         implemented in ORCA!
For a nonlinear molecule the correct rotational entropy is:
    S(rot) = R*(ln(qrot/sn)+1.5)
    R    = 8.31441 J/mol/K = 1.987191683e-3 kcal/mol/K
    qrot = 295267.9694047
    sn is the rotational symmetry number. We have assumed 3 here
       if it is different for your molecule then you should correct
       the printed rotational entropy by manually evaluating the equation
       as given above

For convenience we print out the resulting values for sn=1 - 12:
 sn= 1  qrot/sn=  295267.9694 T*S(rot)=     8.35 kcal/mol T*S(tot)=    26.06 kcal/mol
 sn= 2  qrot/sn=  147633.9847 T*S(rot)=     7.94 kcal/mol T*S(tot)=    25.64 kcal/mol
 sn= 3  qrot/sn=   98422.6565 T*S(rot)=     7.70 kcal/mol T*S(tot)=    25.40 kcal/mol
 sn= 4  qrot/sn=   73816.9924 T*S(rot)=     7.53 kcal/mol T*S(tot)=    25.23 kcal/mol
 sn= 5  qrot/sn=   59053.5939 T*S(rot)=     7.40 kcal/mol T*S(tot)=    25.10 kcal/mol
 sn= 6  qrot/sn=   49211.3282 T*S(rot)=     7.29 kcal/mol T*S(tot)=    24.99 kcal/mol
 sn= 7  qrot/sn=   42181.1385 T*S(rot)=     7.20 kcal/mol T*S(tot)=    24.90 kcal/mol
 sn= 8  qrot/sn=   36908.4962 T*S(rot)=     7.12 kcal/mol T*S(tot)=    24.82 kcal/mol
 sn= 9  qrot/sn=   32807.5522 T*S(rot)=     7.05 kcal/mol T*S(tot)=    24.75 kcal/mol
 sn=10  qrot/sn=   29526.7969 T*S(rot)=     6.99 kcal/mol T*S(tot)=    24.69 kcal/mol
 sn=11  qrot/sn=   26842.5427 T*S(rot)=     6.93 kcal/mol T*S(tot)=    24.63 kcal/mol
 sn=12  qrot/sn=   24605.6641 T*S(rot)=     6.88 kcal/mol T*S(tot)=    24.58 kcal/mol

-------------------
GIBBS FREE ENTHALPY
-------------------

The Gibbs free enthalpy is G = H - T*S

Total enthalpy                    ...   -325.81254642 Eh
Total entropy correction          ...     -0.04048514 Eh    -25.40 kcal/mol
-----------------------------------------------------------------------
Final Gibbs free enthalpy         ...   -325.85303155 Eh

For completeness - the Gibbs free enthalpy minus the electronic energy
G-E(el)                           ...      0.11834067 Eh     74.26 kcal/mol

                             ****ORCA TERMINATED NORMALLY****
TOTAL RUN TIME: 0 days 0 hours 28 minutes 57 seconds 713 msec
