                         Program Version 3.0.3 - RELEASE   -
|  1> ! NORI PBE0 def2-TZVP UseSym TightOPT Freq TightSCF Grid3 FinalGrid5 XYZFile
|  2> % pal
|  3>     nprocs 8
|  4> end
|  5> %method
|  6>     SymThresh 5.0e-2
|  7> end
|  8> % geom
|  9>     MaxIter 10
| 10> end
| 11> % maxcore 2000
| 12> % output
| 13>     printlevel mini
| 14>     print[ P_Basis ] 0
| 15>     print[ P_SCFInfo ] 1
| 16>     print[ P_SCFIterInfo ] 1
| 17>     print[ P_OrbEn ] 0
| 18>     print[ P_Cartesian ] 0
| 19> end
| 20> % elprop
| 21>     Dipole false
| 22> end
| 23> *xyz 1 1
| 24>  C        1.2888481207    -0.4761821143     0.3469500583
| 25>  C        2.6430743484     0.1602745886     0.0601023865
| 26>  C        3.0971310385    -0.1592473469    -1.3361794075
| 27>  N        4.4977230487     0.3462515919    -1.7091034451
| 28>  C        4.7636311075    -0.9434392416    -2.4510713167
| 29>  C        3.5693958767    -1.5857535884    -1.7145439542
| 30>  O        2.7282915790    -2.4363447937    -2.3839482301
| 31>  H        0.9901408654    -0.2689859360     1.3743294156
| 32>  H        1.3175708825    -1.5600548876     0.2175902984
| 33>  H        0.5154437677    -0.0758751147    -0.3116699818
| 34>  H        2.5817207581     1.2460993390     0.1893732226
| 35>  H        3.3878215108    -0.2102926583     0.7752587265
| 36>  H        2.4140808939     0.2349093924    -2.0943067698
| 37>  H        4.5511868409     1.2086815990    -2.2480413345
| 38>  H        5.0865804085     0.4510706559    -0.8829822802
| 39>  H        5.7678189447    -1.3327443308    -2.2980013891
| 40>  H        4.5754703651    -0.7839772797    -3.5129452948
| 41>  H        3.9048110461    -2.1209377819    -0.8220483089
| 42>  H        2.3967985969    -2.0438420931    -3.1985023952
| 43> *
| 44>
| 45>                          ****END OF INPUT****
 Total Charge           Charge          ....    1
 Multiplicity           Mult            ....    1
 Number of Electrons    NEL             ....   56
FINAL SINGLE POINT ENERGY      -327.206211971761
FINAL SINGLE POINT ENERGY      -327.206213212895
FINAL SINGLE POINT ENERGY      -327.206214436042
FINAL SINGLE POINT ENERGY      -327.206214815106

CARTESIAN COORDINATES (ANGSTROEM)
---------------------------------
  C     -2.468634   -0.378565   -0.611273
  C     -1.160818   -0.046558   -1.318134
  C      0.016800   -0.388323   -0.449397
  N      1.390568    0.003957   -1.010048
  C      1.830903    0.429992    0.371805
  C      0.351458    0.450167    0.810501
  O     -0.000618   -0.002977    2.055144
  H     -3.313375   -0.096271   -1.239153
  H     -2.560811    0.156177    0.335916
  H     -2.548760   -1.448221   -0.406422
  H     -1.094390   -0.597138   -2.262420
  H     -1.130318    1.022315   -1.562439
  H      0.068719   -1.457913   -0.225336
  H      1.933651   -0.728950   -1.462925
  H      1.316403    0.789696   -1.656030
  H      2.410728    1.350297    0.377929
  H      2.400379   -0.380850    0.825779
  H     -0.067926    1.455696    0.717460
  H      0.336816   -0.889494    2.221667

FINAL SINGLE POINT ENERGY      -327.206214984379
                    ***********************HURRAY********************
 Multiplicity           Mult            ....    1
 Number of Electrons    NEL             ....   56
 Basis Dimension        Dim             ....  289
FINAL SINGLE POINT ENERGY      -327.206215042550

VIBRATIONAL FREQUENCIES
-----------------------

   0:         0.00 cm**-1
   1:         0.00 cm**-1
   2:         0.00 cm**-1
   3:         0.00 cm**-1
   4:         0.00 cm**-1
   5:         0.00 cm**-1
   6:        90.66 cm**-1
   7:       110.30 cm**-1
   8:       176.65 cm**-1
   9:       226.62 cm**-1
  10:       306.10 cm**-1
  11:       338.84 cm**-1
  12:       362.73 cm**-1
  13:       420.29 cm**-1
  14:       503.21 cm**-1
  15:       647.29 cm**-1
  16:       778.10 cm**-1
  17:       816.34 cm**-1
  18:       863.09 cm**-1
  19:       866.49 cm**-1
  20:       926.48 cm**-1
  21:       972.17 cm**-1
  22:       981.39 cm**-1
  23:      1011.44 cm**-1
  24:      1067.16 cm**-1
  25:      1096.39 cm**-1
  26:      1116.41 cm**-1
  27:      1180.89 cm**-1
  28:      1206.13 cm**-1
  29:      1240.44 cm**-1
  30:      1247.39 cm**-1
  31:      1282.93 cm**-1
  32:      1300.37 cm**-1
  33:      1309.71 cm**-1
  34:      1330.14 cm**-1
  35:      1344.86 cm**-1
  36:      1373.35 cm**-1
  37:      1393.86 cm**-1
  38:      1422.00 cm**-1
  39:      1447.94 cm**-1
  40:      1481.32 cm**-1
  41:      1488.36 cm**-1
  42:      1493.38 cm**-1
  43:      1500.49 cm**-1
  44:      1646.40 cm**-1
  45:      3035.26 cm**-1
  46:      3065.58 cm**-1
  47:      3078.55 cm**-1
  48:      3089.10 cm**-1
  49:      3101.35 cm**-1
  50:      3116.07 cm**-1
  51:      3140.99 cm**-1
  52:      3157.23 cm**-1
  53:      3191.46 cm**-1
  54:      3467.06 cm**-1
  55:      3537.61 cm**-1
  56:      3832.68 cm**-1

IR SPECTRUM
-----------

 Mode    freq (cm**-1)   T**2         TX         TY         TZ
-------------------------------------------------------------------
   6:        90.66    0.656240  ( -0.599441  -0.520003   0.162810)
   7:       110.30    0.821851  ( -0.402130  -0.644069  -0.495295)
   8:       176.65    2.059423  ( -1.074949   0.878281  -0.364047)
   9:       226.62    1.174870  ( -0.096720  -0.751428  -0.775159)
  10:       306.10   29.094679  ( -4.319812  -1.202588  -2.997947)
  11:       338.84   11.384227  ( -2.821525  -1.584110  -0.955939)
  12:       362.73   87.348184  (  7.971205   3.383626   3.515559)
  13:       420.29    3.441492  (  1.522826   0.854377   0.626525)
  14:       503.21    4.972233  (  1.772602  -0.731072   1.138266)
  15:       647.29    7.001629  ( -0.691178   1.435274   2.112792)
  16:       778.10    4.048297  ( -0.527448  -1.900266   0.398854)
  17:       816.34    9.112632  ( -2.307906  -0.879066  -1.735927)
  18:       863.09   10.177883  ( -1.644142  -2.227313   1.585483)
  19:       866.49    9.846967  (  2.591349  -1.763603   0.146896)
  20:       926.48   13.592591  ( -2.306285  -0.832940  -2.753153)
  21:       972.17    9.451591  ( -3.018037  -0.198127   0.551169)
  22:       981.39    2.195682  (  0.322615   1.437908  -0.154990)
  23:      1011.44    3.728069  ( -0.534415   0.166765  -1.847880)
  24:      1067.16   11.658483  ( -2.158450   0.244569  -2.634343)
  25:      1096.39    4.059825  (  1.594491   0.812408  -0.925968)
  26:      1116.41   30.959798  ( -3.445153  -1.486961   4.108487)
  27:      1180.89    7.706552  ( -1.874748  -0.619914  -1.951302)
  28:      1206.13  125.599492  (  1.683917   1.989207 -10.899861)
  29:      1240.44   13.823900  (  3.478470   1.312735  -0.029519)
  30:      1247.39   42.039632  (  6.173287   1.814672  -0.798204)
  31:      1282.93   10.889879  ( -2.587997  -1.535701  -1.354170)
  32:      1300.37    9.341925  (  2.147222   2.102411  -0.557879)
  33:      1309.71    8.250580  ( -0.864437  -1.521183  -2.278011)
  34:      1330.14    1.089017  ( -0.568132  -0.799608  -0.356188)
  35:      1344.86   14.698106  (  3.095045   1.512501   1.682600)
  36:      1373.35    0.179643  (  0.318705  -0.129159  -0.247766)
  37:      1393.86    2.437537  ( -1.199306   0.934815  -0.354011)
  38:      1422.00    4.516896  (  2.066508   0.285990  -0.405771)
  39:      1447.94   44.215073  (  2.180256   1.170657  -6.171800)
  40:      1481.32    5.851869  ( -2.012915  -0.965419   0.931671)
  41:      1488.36   13.988930  ( -3.600012   1.004674   0.139552)
  42:      1493.38   12.475331  ( -0.044580   3.394046   0.976626)
  43:      1500.49   15.230389  (  1.150198  -1.425824   3.445934)
  44:      1646.40   64.442495  ( -3.707272  -1.065605   7.040108)
  45:      3035.26   11.314825  ( -1.958505  -1.890672   1.975966)
  46:      3065.58    6.121958  ( -1.539217  -1.222490   1.502760)
  47:      3078.55    3.482238  ( -0.159282  -0.809952  -1.673573)
  48:      3089.10    1.489340  (  0.076327  -0.416044  -1.144736)
  49:      3101.35    7.445070  ( -0.724597   2.208739  -1.428812)
  50:      3116.07    2.057816  (  0.449151  -0.882912   1.037567)
  51:      3140.99   10.353367  (  0.020798   3.088608   0.901906)
  52:      3157.23    3.374225  (  0.878736  -0.467690   1.543799)
  53:      3191.46    0.501064  ( -0.707758   0.011652  -0.002495)
  54:      3467.06   62.380162  ( -3.550541  -0.714590   7.018773)
  55:      3537.61   82.828113  (  4.159419  -8.092510   0.196531)
  56:      3832.68   56.491014  ( -1.032531   5.764983  -4.710611)

--------------------------
THERMOCHEMISTRY AT 298.15K
--------------------------

Temperature         ... 298.15 K
Pressure            ... 1.00 atm
Total Mass          ... 102.16 AMU

Throughout the following assumptions are being made:
  (1) The electronic state is orbitally nondegenerate
  (2) There are no thermally accessible electronically excited states
  (3) Hindered rotations indicated by low frequency modes) are not
      treated as such but are treated as vibrations and this may
      case some error
  (4) All equations used are the standard statistical mechanics
      equations for an ideal gas
  (5) All vibrations are strinctly harmonic

------------
INNER ENERGY
------------

The inner energy is: U= E(el) + E(ZPE) + E(vib) + E(rot) + E(trans)
    E(el)   - is the total energy from the electronic structure calculation
              = E(kin-el) + E(nuc-el) + E(el-el) + E(nuc-nuc)
    E(ZPE)  - the the zero temperature vibrational energy from the frequency calculation
    E(vib)  - the the finite temperature correction to E(ZPE) due to population
              of excietd vibrational states
    E(rot)  - is the rotational thermal energy
    E(trans)- is the translational thermal energy

Summary of contributions to the inner energy U:
Electronic energy                ...   -327.20621504 Eh
Zero point energy                ...      0.17583139 Eh     110.34 kcal/mol
Thermal vibrational correction   ...      0.00505926 Eh       3.17 kcal/mol
Thermal rotational correction    ...      0.00141627 Eh       0.89 kcal/mol
Thermal translational correction ...      0.00141627 Eh       0.89 kcal/mol
-----------------------------------------------------------------------
Total thermal energy                   -327.02249185 Eh

Summary of corrections to the electronic energy:
(perhaps to be used in another calculation)
Total thermal correction                  0.00789181 Eh       4.95 kcal/mol
Non-thermal (ZPE) correction              0.17583139 Eh     110.34 kcal/mol
-----------------------------------------------------------------------
Total correction                          0.18372319 Eh     115.29 kcal/mol

--------
ENTHALPY
--------

The enthalpy is H = U + kB*T
                kB is Boltzmann's constant
Total free energy                 ...   -327.02249185 Eh
Thermal Enthalpy correction       ...      0.00094421 Eh       0.59 kcal/mol
-----------------------------------------------------------------------
Total Enthalpy                    ...   -327.02154764 Eh

-------
ENTROPY
-------

The entropy contributions are T*S = T*(S(el)+S(vib)+S(rot)+S(trans)
     S(el)   - electronic entropy
     S(vib)  - vibrational entropy
     S(rot)  - rotational entropy
     S(trans)- translational entropy
The entropies will be listed as mutliplied by the temperature to get
units of energy

Electronic entropy                ...      0.00000000 Eh      0.00 kcal/mol
Vibrational entropy               ...      0.00882305 Eh      5.54 kcal/mol
Rotational entropy                ...      0.01214863 Eh      7.62 kcal/mol
Translational entropy             ...      0.01890147 Eh     11.86 kcal/mol
-----------------------------------------------------------------------
Final entropy term                ...      0.03987315 Eh     25.02 kcal/mol

CAUTION: The rotational entropy is not quite correctly treated here
         because it includes a symmetry number that is not yet correctly
         implemented in ORCA!
For a nonlinear molecule the correct rotational entropy is:
    S(rot) = R*(ln(qrot/sn)+1.5)
    R    = 8.31441 J/mol/K = 1.987191683e-3 kcal/mol/K
    qrot = 259227.4592221
    sn is the rotational symmetry number. We have assumed 3 here
       if it is different for your molecule then you should correct
       the printed rotational entropy by manually evaluating the equation
       as given above

For convenience we print out the resulting values for sn=1 - 12:
 sn= 1  qrot/sn=  259227.4592 T*S(rot)=     8.27 kcal/mol T*S(tot)=    25.67 kcal/mol
 sn= 2  qrot/sn=  129613.7296 T*S(rot)=     7.86 kcal/mol T*S(tot)=    25.26 kcal/mol
 sn= 3  qrot/sn=   86409.1531 T*S(rot)=     7.62 kcal/mol T*S(tot)=    25.02 kcal/mol
 sn= 4  qrot/sn=   64806.8648 T*S(rot)=     7.45 kcal/mol T*S(tot)=    24.85 kcal/mol
 sn= 5  qrot/sn=   51845.4918 T*S(rot)=     7.32 kcal/mol T*S(tot)=    24.72 kcal/mol
 sn= 6  qrot/sn=   43204.5765 T*S(rot)=     7.21 kcal/mol T*S(tot)=    24.61 kcal/mol
 sn= 7  qrot/sn=   37032.4942 T*S(rot)=     7.12 kcal/mol T*S(tot)=    24.52 kcal/mol
 sn= 8  qrot/sn=   32403.4324 T*S(rot)=     7.04 kcal/mol T*S(tot)=    24.44 kcal/mol
 sn= 9  qrot/sn=   28803.0510 T*S(rot)=     6.97 kcal/mol T*S(tot)=    24.37 kcal/mol
 sn=10  qrot/sn=   25922.7459 T*S(rot)=     6.91 kcal/mol T*S(tot)=    24.31 kcal/mol
 sn=11  qrot/sn=   23566.1327 T*S(rot)=     6.85 kcal/mol T*S(tot)=    24.25 kcal/mol
 sn=12  qrot/sn=   21602.2883 T*S(rot)=     6.80 kcal/mol T*S(tot)=    24.20 kcal/mol

-------------------
GIBBS FREE ENTHALPY
-------------------

The Gibbs free enthalpy is G = H - T*S

Total enthalpy                    ...   -327.02154764 Eh
Total entropy correction          ...     -0.03987315 Eh    -25.02 kcal/mol
-----------------------------------------------------------------------
Final Gibbs free enthalpy         ...   -327.06142078 Eh

For completeness - the Gibbs free enthalpy minus the electronic energy
G-E(el)                           ...      0.14479426 Eh     90.86 kcal/mol

                             ****ORCA TERMINATED NORMALLY****
TOTAL RUN TIME: 0 days 0 hours 38 minutes 15 seconds 978 msec
