                         Program Version 3.0.3 - RELEASE   -
|  1> ! NORI PBE0 def2-TZVP UseSym TightOPT Freq TightSCF Grid3 FinalGrid5 XYZFile
|  2> % pal
|  3>     nprocs 8
|  4> end
|  5> %method
|  6>     SymThresh 5.0e-2
|  7> end
|  8> % geom
|  9>     MaxIter 10
| 10> end
| 11> % maxcore 2000
| 12> % output
| 13>     printlevel mini
| 14>     print[ P_Basis ] 0
| 15>     print[ P_SCFInfo ] 1
| 16>     print[ P_SCFIterInfo ] 1
| 17>     print[ P_OrbEn ] 0
| 18>     print[ P_Cartesian ] 0
| 19> end
| 20> % elprop
| 21>     Dipole false
| 22> end
| 23> *xyz 1 1
| 24>  C        1.4788692645     0.6978688820     0.4401777734
| 25>  C        2.7043831014     0.2612118476     0.1783881240
| 26>  C        3.1566906365    -0.0395434896    -1.1952267449
| 27>  N        4.4296444274     0.7309047110    -1.6573034688
| 28>  C        5.1549458527    -0.5477600409    -2.0146545550
| 29>  C        3.9563952377    -1.3335980616    -1.4749913236
| 30>  O        3.7294338451    -2.4756937689    -1.3138286295
| 31>  H        1.1531338153     0.8681960699     1.4592225286
| 32>  H        0.7534267261     0.8850354472    -0.3450627015
| 33>  H        3.4006843133     0.0504518923     0.9867621584
| 34>  H        2.3698298144     0.1185930148    -1.9368089280
| 35>  H        4.2753925560     1.3745620046    -2.4319664323
| 36>  H        4.8608510894     1.2519222948    -0.8939216545
| 37>  H        6.0948793883    -0.6628569403    -1.4761459475
| 38>  H        5.3193399319    -0.6361138629    -3.0886501987
| 39> *
| 40>
| 41>                          ****END OF INPUT****
 Total Charge           Charge          ....    1
 Multiplicity           Mult            ....    1
 Number of Electrons    NEL             ....   52
FINAL SINGLE POINT ENERGY      -324.752929411293

CARTESIAN COORDINATES (ANGSTROEM)
---------------------------------
  C     -2.337698   -0.190892   -1.445350
  C     -1.289370    0.388359   -0.873916
  C     -0.147266   -0.389285   -0.351707
  N      1.242654    0.000584   -0.937727
  C      1.829939    0.236961    0.436193
  C      0.448153   -0.044606    1.033562
  O     -0.000982   -0.000861    2.118959
  H     -3.185608    0.394865   -1.779543
  H     -2.397412   -1.265437   -1.584798
  H     -1.270055    1.464199   -0.715851
  H     -0.284577   -1.466117   -0.476662
  H      1.692278   -0.733669   -1.482433
  H      1.193329    0.838812   -1.516510
  H      2.217124    1.248005    0.560133
  H      2.597838   -0.496514    0.682797

FINAL SINGLE POINT ENERGY      -324.752930291819
                    ***********************HURRAY********************
 Multiplicity           Mult            ....    1
 Number of Electrons    NEL             ....   52
 Basis Dimension        Dim             ....  265
FINAL SINGLE POINT ENERGY      -324.752931201608

VIBRATIONAL FREQUENCIES
-----------------------

   0:         0.00 cm**-1
   1:         0.00 cm**-1
   2:         0.00 cm**-1
   3:         0.00 cm**-1
   4:         0.00 cm**-1
   5:         0.00 cm**-1
   6:        82.18 cm**-1
   7:        88.42 cm**-1
   8:       188.99 cm**-1
   9:       286.01 cm**-1
  10:       387.37 cm**-1
  11:       450.74 cm**-1
  12:       519.59 cm**-1
  13:       637.99 cm**-1
  14:       723.30 cm**-1
  15:       760.83 cm**-1
  16:       797.60 cm**-1
  17:       852.75 cm**-1
  18:       929.62 cm**-1
  19:       976.86 cm**-1
  20:      1002.87 cm**-1
  21:      1010.45 cm**-1
  22:      1038.30 cm**-1
  23:      1054.16 cm**-1
  24:      1082.22 cm**-1
  25:      1202.45 cm**-1
  26:      1223.69 cm**-1
  27:      1257.09 cm**-1
  28:      1280.00 cm**-1
  29:      1290.04 cm**-1
  30:      1305.29 cm**-1
  31:      1334.97 cm**-1
  32:      1442.80 cm**-1
  33:      1459.02 cm**-1
  34:      1643.93 cm**-1
  35:      1708.20 cm**-1
  36:      1981.74 cm**-1
  37:      3109.33 cm**-1
  38:      3112.73 cm**-1
  39:      3163.63 cm**-1
  40:      3168.94 cm**-1
  41:      3181.25 cm**-1
  42:      3261.26 cm**-1
  43:      3470.44 cm**-1
  44:      3539.86 cm**-1

IR SPECTRUM
-----------

 Mode    freq (cm**-1)   T**2         TX         TY         TZ
-------------------------------------------------------------------
   6:        82.18    0.975939  (  0.720913   0.256177   0.624977)
   7:        88.42    5.426469  (  1.791098   0.343572   1.449274)
   8:       188.99    2.021504  ( -1.150849   0.792141  -0.263751)
   9:       286.01    0.571184  (  0.484080  -0.538528  -0.216419)
  10:       387.37    0.952840  (  0.083505  -0.276251   0.932498)
  11:       450.74    1.909685  ( -1.258208  -0.524201  -0.227623)
  12:       519.59    2.117914  ( -1.284592  -0.346409   0.589694)
  13:       637.99    8.623072  ( -1.204169  -0.032284  -2.678061)
  14:       723.30   12.000252  ( -0.774210   0.905941   3.252710)
  15:       760.83    3.641348  ( -1.717891  -0.297234   0.775791)
  16:       797.60   34.734762  (  5.656924  -1.578244   0.493070)
  17:       852.75   23.256483  (  4.093371   2.370177  -0.939714)
  18:       929.62   17.220244  (  3.186048  -0.019357   2.658753)
  19:       976.86    7.095667  ( -2.522454   0.822766  -0.236536)
  20:      1002.87   19.997606  (  4.387016   0.038945  -0.866129)
  21:      1010.45   43.365864  (  4.155219   1.071667  -4.995152)
  22:      1038.30   21.601928  (  0.344811  -0.073280  -4.634400)
  23:      1054.16   27.175489  ( -4.617346  -1.413731  -1.963916)
  24:      1082.22   52.219711  (  6.497492   2.329368   2.139241)
  25:      1202.45    8.701610  (  1.966207   1.799690   1.263628)
  26:      1223.69   49.139096  (  6.479945   0.598432   2.606011)
  27:      1257.09   14.435047  ( -3.729228  -0.553398   0.470806)
  28:      1280.00   10.697360  (  2.464062   2.144669  -0.161711)
  29:      1290.04    4.898526  (  1.707462   0.814325   1.148901)
  30:      1305.29    3.351246  (  1.814480  -0.047171   0.238081)
  31:      1334.97    7.412366  (  1.617726   1.749535   1.316987)
  32:      1442.80   18.815024  (  4.272680   0.732080   0.152598)
  33:      1459.02   24.459025  (  4.410188   1.943743   1.109563)
  34:      1643.93   58.264817  ( -3.484744  -1.198042   6.684764)
  35:      1708.20    7.077008  (  2.605751  -0.492109  -0.211893)
  36:      1981.74  227.410324  (  4.035048  -0.135901 -14.529633)
  37:      3109.33   12.845459  ( -3.380536  -0.965057  -0.697208)
  38:      3112.73    1.630108  ( -0.583752   0.540007   0.998866)
  39:      3163.63    1.057066  ( -0.744760   0.425177  -0.567118)
  40:      3168.94    0.595313  ( -0.635262   0.416395   0.135537)
  41:      3181.25    6.722505  (  0.641083  -2.504410   0.198619)
  42:      3261.26    0.898517  (  0.802718  -0.411737   0.290920)
  43:      3470.44   77.323493  (  3.859766   1.362220  -7.782676)
  44:      3539.86   97.932841  ( -3.711448   9.150847   0.648070)

--------------------------
THERMOCHEMISTRY AT 298.15K
--------------------------

Temperature         ... 298.15 K
Pressure            ... 1.00 atm
Total Mass          ... 98.12 AMU

Throughout the following assumptions are being made:
  (1) The electronic state is orbitally nondegenerate
  (2) There are no thermally accessible electronically excited states
  (3) Hindered rotations indicated by low frequency modes) are not
      treated as such but are treated as vibrations and this may
      case some error
  (4) All equations used are the standard statistical mechanics
      equations for an ideal gas
  (5) All vibrations are strinctly harmonic

------------
INNER ENERGY
------------

The inner energy is: U= E(el) + E(ZPE) + E(vib) + E(rot) + E(trans)
    E(el)   - is the total energy from the electronic structure calculation
              = E(kin-el) + E(nuc-el) + E(el-el) + E(nuc-nuc)
    E(ZPE)  - the the zero temperature vibrational energy from the frequency calculation
    E(vib)  - the the finite temperature correction to E(ZPE) due to population
              of excietd vibrational states
    E(rot)  - is the rotational thermal energy
    E(trans)- is the translational thermal energy

Summary of contributions to the inner energy U:
Electronic energy                ...   -324.75293120 Eh
Zero point energy                ...      0.12759308 Eh      80.07 kcal/mol
Thermal vibrational correction   ...      0.00417142 Eh       2.62 kcal/mol
Thermal rotational correction    ...      0.00141627 Eh       0.89 kcal/mol
Thermal translational correction ...      0.00141627 Eh       0.89 kcal/mol
-----------------------------------------------------------------------
Total thermal energy                   -324.61833416 Eh

Summary of corrections to the electronic energy:
(perhaps to be used in another calculation)
Total thermal correction                  0.00700396 Eh       4.40 kcal/mol
Non-thermal (ZPE) correction              0.12759308 Eh      80.07 kcal/mol
-----------------------------------------------------------------------
Total correction                          0.13459704 Eh      84.46 kcal/mol

--------
ENTHALPY
--------

The enthalpy is H = U + kB*T
                kB is Boltzmann's constant
Total free energy                 ...   -324.61833416 Eh
Thermal Enthalpy correction       ...      0.00094421 Eh       0.59 kcal/mol
-----------------------------------------------------------------------
Total Enthalpy                    ...   -324.61738995 Eh

-------
ENTROPY
-------

The entropy contributions are T*S = T*(S(el)+S(vib)+S(rot)+S(trans)
     S(el)   - electronic entropy
     S(vib)  - vibrational entropy
     S(rot)  - rotational entropy
     S(trans)- translational entropy
The entropies will be listed as mutliplied by the temperature to get
units of energy

Electronic entropy                ...      0.00000000 Eh      0.00 kcal/mol
Vibrational entropy               ...      0.00753721 Eh      4.73 kcal/mol
Rotational entropy                ...      0.01204275 Eh      7.56 kcal/mol
Translational entropy             ...      0.01884443 Eh     11.83 kcal/mol
-----------------------------------------------------------------------
Final entropy term                ...      0.03842439 Eh     24.11 kcal/mol

CAUTION: The rotational entropy is not quite correctly treated here
         because it includes a symmetry number that is not yet correctly
         implemented in ORCA!
For a nonlinear molecule the correct rotational entropy is:
    S(rot) = R*(ln(qrot/sn)+1.5)
    R    = 8.31441 J/mol/K = 1.987191683e-3 kcal/mol/K
    qrot = 231726.9530833
    sn is the rotational symmetry number. We have assumed 3 here
       if it is different for your molecule then you should correct
       the printed rotational entropy by manually evaluating the equation
       as given above

For convenience we print out the resulting values for sn=1 - 12:
 sn= 1  qrot/sn=  231726.9531 T*S(rot)=     8.21 kcal/mol T*S(tot)=    24.76 kcal/mol
 sn= 2  qrot/sn=  115863.4765 T*S(rot)=     7.80 kcal/mol T*S(tot)=    24.35 kcal/mol
 sn= 3  qrot/sn=   77242.3177 T*S(rot)=     7.56 kcal/mol T*S(tot)=    24.11 kcal/mol
 sn= 4  qrot/sn=   57931.7383 T*S(rot)=     7.39 kcal/mol T*S(tot)=    23.94 kcal/mol
 sn= 5  qrot/sn=   46345.3906 T*S(rot)=     7.25 kcal/mol T*S(tot)=    23.81 kcal/mol
 sn= 6  qrot/sn=   38621.1588 T*S(rot)=     7.15 kcal/mol T*S(tot)=    23.70 kcal/mol
 sn= 7  qrot/sn=   33103.8504 T*S(rot)=     7.05 kcal/mol T*S(tot)=    23.61 kcal/mol
 sn= 8  qrot/sn=   28965.8691 T*S(rot)=     6.98 kcal/mol T*S(tot)=    23.53 kcal/mol
 sn= 9  qrot/sn=   25747.4392 T*S(rot)=     6.91 kcal/mol T*S(tot)=    23.46 kcal/mol
 sn=10  qrot/sn=   23172.6953 T*S(rot)=     6.84 kcal/mol T*S(tot)=    23.40 kcal/mol
 sn=11  qrot/sn=   21066.0866 T*S(rot)=     6.79 kcal/mol T*S(tot)=    23.34 kcal/mol
 sn=12  qrot/sn=   19310.5794 T*S(rot)=     6.74 kcal/mol T*S(tot)=    23.29 kcal/mol

-------------------
GIBBS FREE ENTHALPY
-------------------

The Gibbs free enthalpy is G = H - T*S

Total enthalpy                    ...   -324.61738995 Eh
Total entropy correction          ...     -0.03842439 Eh    -24.11 kcal/mol
-----------------------------------------------------------------------
Final Gibbs free enthalpy         ...   -324.65581434 Eh

For completeness - the Gibbs free enthalpy minus the electronic energy
G-E(el)                           ...      0.09711686 Eh     60.94 kcal/mol

                             ****ORCA TERMINATED NORMALLY****
TOTAL RUN TIME: 0 days 0 hours 23 minutes 48 seconds 769 msec
