                         Program Version 3.0.3 - RELEASE   -
|  1> ! NORI PBE0 def2-TZVP UseSym TightOPT Freq TightSCF Grid3 FinalGrid5 XYZFile
|  2> % pal
|  3>     nprocs 8
|  4> end
|  5> %method
|  6>     SymThresh 5.0e-2
|  7> end
|  8> % geom
|  9>     MaxIter 10
| 10> end
| 11> % maxcore 2000
| 12> % output
| 13>     printlevel mini
| 14>     print[ P_Basis ] 0
| 15>     print[ P_SCFInfo ] 1
| 16>     print[ P_SCFIterInfo ] 1
| 17>     print[ P_OrbEn ] 0
| 18>     print[ P_Cartesian ] 0
| 19> end
| 20> % elprop
| 21>     Dipole false
| 22> end
| 23> *xyz 1 1
| 24>  C        0.7511042780     0.0642264573    -0.0919330527
| 25>  C        2.2659780755     0.1677170131    -0.0518868539
| 26>  C        2.9475351557     0.0223930365    -1.3877363271
| 27>  N        4.4248902728     0.1535027464    -1.2797593422
| 28>  C        2.4958314920    -0.8843962393    -2.4925885347
| 29>  C        2.4664990935     0.6017943962    -2.6839461877
| 30>  O        3.4905767280     1.1799038112    -3.4284957018
| 31>  H        0.3523722842     0.1960832025     0.9137488690
| 32>  H        0.4182644520    -0.9128832027    -0.4459697945
| 33>  H        0.3018038410     0.8351107900    -0.7204454504
| 34>  H        2.5498010373     1.1388891984     0.3739986374
| 35>  H        2.6593467031    -0.6015371713     0.6239955785
| 36>  H        4.7662930337     0.4830425926    -2.1988612210
| 37>  H        4.8812300163    -0.7235850218    -1.0260891554
| 38>  H        4.6715733973     0.8579622327    -0.5809935268
| 39>  H        3.2443965546    -1.4354479907    -3.0524757352
| 40>  H        1.5615526240    -1.4107375678    -2.3472303019
| 41>  H        1.5190226669     1.1294175943    -2.6909811025
| 42>  H        3.3062982944     1.1052141223    -4.3709907971
| 43> *
| 44>
| 45>                          ****END OF INPUT****
 Total Charge           Charge          ....    1
 Multiplicity           Mult            ....    1
 Number of Electrons    NEL             ....   56
FINAL SINGLE POINT ENERGY      -327.207580376517
FINAL SINGLE POINT ENERGY      -327.207581988966
FINAL SINGLE POINT ENERGY      -327.207583161656

CARTESIAN COORDINATES (ANGSTROEM)
---------------------------------
  C     -1.306435   -0.726430   -2.040128
  C      0.114448   -0.723407   -1.502563
  C      0.308305    0.059923   -0.230283
  N      1.711694   -0.001716    0.258758
  C     -0.400894    1.335443    0.112651
  C     -0.644804    0.100689    0.926284
  O     -0.002487   -0.000783    2.156627
  H     -1.350302   -1.334951   -2.943356
  H     -1.643294    0.275807   -2.309147
  H     -2.014431   -1.153917   -1.327909
  H      0.431642   -1.758344   -1.320459
  H      0.786712   -0.315764   -2.267069
  H      1.679622    0.144998    1.282415
  H      2.313575    0.695805   -0.180557
  H      2.111606   -0.926652    0.085260
  H      0.161311    2.131972    0.588762
  H     -1.169149    1.670366   -0.571415
  H     -1.585395   -0.431359    0.835927
  H     -0.488397    0.483716    2.832412

FINAL SINGLE POINT ENERGY      -327.207583358297
                    ***********************HURRAY********************
 Multiplicity           Mult            ....    1
 Number of Electrons    NEL             ....   56
 Basis Dimension        Dim             ....  289
FINAL SINGLE POINT ENERGY      -327.207583459832

VIBRATIONAL FREQUENCIES
-----------------------

   0:         0.00 cm**-1
   1:         0.00 cm**-1
   2:         0.00 cm**-1
   3:         0.00 cm**-1
   4:         0.00 cm**-1
   5:         0.00 cm**-1
   6:        75.54 cm**-1
   7:       196.22 cm**-1
   8:       225.81 cm**-1
   9:       247.65 cm**-1
  10:       258.02 cm**-1
  11:       317.65 cm**-1
  12:       355.63 cm**-1
  13:       385.07 cm**-1
  14:       428.20 cm**-1
  15:       484.39 cm**-1
  16:       557.16 cm**-1
  17:       686.61 cm**-1
  18:       786.98 cm**-1
  19:       847.62 cm**-1
  20:       899.27 cm**-1
  21:       907.83 cm**-1
  22:       976.32 cm**-1
  23:      1001.80 cm**-1
  24:      1038.61 cm**-1
  25:      1061.16 cm**-1
  26:      1088.26 cm**-1
  27:      1107.31 cm**-1
  28:      1124.64 cm**-1
  29:      1183.87 cm**-1
  30:      1196.99 cm**-1
  31:      1230.45 cm**-1
  32:      1273.03 cm**-1
  33:      1326.13 cm**-1
  34:      1337.47 cm**-1
  35:      1383.89 cm**-1
  36:      1413.78 cm**-1
  37:      1428.26 cm**-1
  38:      1471.71 cm**-1
  39:      1478.59 cm**-1
  40:      1497.72 cm**-1
  41:      1498.97 cm**-1
  42:      1511.92 cm**-1
  43:      1639.85 cm**-1
  44:      1661.09 cm**-1
  45:      3024.73 cm**-1
  46:      3065.43 cm**-1
  47:      3070.01 cm**-1
  48:      3145.93 cm**-1
  49:      3153.82 cm**-1
  50:      3154.93 cm**-1
  51:      3187.72 cm**-1
  52:      3252.12 cm**-1
  53:      3272.28 cm**-1
  54:      3454.53 cm**-1
  55:      3510.12 cm**-1
  56:      3838.82 cm**-1

IR SPECTRUM
-----------

 Mode    freq (cm**-1)   T**2         TX         TY         TZ
-------------------------------------------------------------------
   6:        75.54    0.303905  (  0.311931  -0.302888   0.338915)
   7:       196.22    1.270516  ( -0.761150  -0.750478  -0.357700)
   8:       225.81    1.603851  ( -0.933937   0.471752   0.713487)
   9:       247.65    4.818944  ( -0.088386   2.011501   0.874640)
  10:       258.02    2.911988  ( -0.814797  -1.366214   0.617700)
  11:       317.65   57.216755  (  4.103183   2.772695  -5.717763)
  12:       355.63   84.854401  ( -2.864167  -8.628625   1.482493)
  13:       385.07   19.460200  (  2.710476   2.698101  -2.198583)
  14:       428.20    2.272975  ( -0.144439   1.289351  -0.767909)
  15:       484.39    9.211850  (  2.730796   0.792888  -1.061099)
  16:       557.16    9.024804  (  2.720312   1.153379   0.542609)
  17:       686.61    9.729780  ( -1.573222  -1.517804  -2.225090)
  18:       786.98    1.307901  ( -0.255468  -0.861535   0.707386)
  19:       847.62    2.563282  ( -0.929484  -0.290135   1.270891)
  20:       899.27    1.123020  (  0.224771  -0.890237  -0.529128)
  21:       907.83   12.620961  ( -1.236956   0.892198   3.208564)
  22:       976.32    3.433286  (  0.756226  -1.182408  -1.209677)
  23:      1001.80   17.484635  (  2.328807  -0.941464   3.342894)
  24:      1038.61   46.452903  ( -1.944304   1.782826   6.284434)
  25:      1061.16    8.431317  ( -2.757126   0.868993  -0.272810)
  26:      1088.26    8.899761  (  0.656524  -1.604629   2.427736)
  27:      1107.31    8.672585  (  2.531856   1.502261  -0.074178)
  28:      1124.64   10.312044  ( -0.736819  -1.847243   2.521276)
  29:      1183.87   37.182354  (  0.260017  -1.920201   5.781658)
  30:      1196.99   18.351954  ( -1.971656  -0.783032  -3.721745)
  31:      1230.45   80.137371  (  3.363326  -0.344019   8.288972)
  32:      1273.03   22.539732  ( -2.571375   2.088341  -3.400970)
  33:      1326.13    0.521931  ( -0.044995   0.429330  -0.579295)
  34:      1337.47    4.360690  (  0.484222  -1.408651  -1.463530)
  35:      1383.89    5.121484  ( -1.831147   0.132931   1.323146)
  36:      1413.78    8.729664  (  1.711438   1.735275   1.670169)
  37:      1428.26    4.159604  (  1.231145  -1.608084   0.240731)
  38:      1471.71  163.425324  (-12.179956   1.467140  -3.594647)
  39:      1478.59   11.637250  ( -3.302116  -0.752016  -0.409578)
  40:      1497.72   15.727599  ( -0.107387   3.871354   0.853630)
  41:      1498.97   11.491743  (  0.256909  -1.613501   2.970245)
  42:      1511.92   31.400337  ( -4.632482  -3.152714   0.029097)
  43:      1639.85   20.370296  (  2.127700  -3.493345  -1.907807)
  44:      1661.09   33.743603  ( -0.944206  -4.152462   3.950841)
  45:      3024.73   17.016081  (  3.670093  -1.826527  -0.458578)
  46:      3065.43    6.322621  (  0.424984   1.983590  -1.485725)
  47:      3070.01    7.667449  ( -2.680073   0.514187   0.469328)
  48:      3145.93   11.175684  (  0.570898   2.524122  -2.116263)
  49:      3153.82    3.696548  (  1.077501  -1.375823  -0.801655)
  50:      3154.93    1.760275  (  0.253050   0.609006   1.151240)
  51:      3187.72    1.839287  ( -0.928933  -0.507726  -0.847693)
  52:      3252.12    0.607772  (  0.705353   0.133575   0.303987)
  53:      3272.28  142.025266  ( -2.170258   1.157495  11.660851)
  54:      3454.53   76.054315  (  6.311803  -2.991108  -5.221948)
  55:      3510.12   81.969016  (  2.989962   8.212315  -2.363688)
  56:      3838.82  132.809287  (  4.106776  -3.889213 -10.040802)

--------------------------
THERMOCHEMISTRY AT 298.15K
--------------------------

Temperature         ... 298.15 K
Pressure            ... 1.00 atm
Total Mass          ... 102.16 AMU

Throughout the following assumptions are being made:
  (1) The electronic state is orbitally nondegenerate
  (2) There are no thermally accessible electronically excited states
  (3) Hindered rotations indicated by low frequency modes) are not
      treated as such but are treated as vibrations and this may
      case some error
  (4) All equations used are the standard statistical mechanics
      equations for an ideal gas
  (5) All vibrations are strinctly harmonic

------------
INNER ENERGY
------------

The inner energy is: U= E(el) + E(ZPE) + E(vib) + E(rot) + E(trans)
    E(el)   - is the total energy from the electronic structure calculation
              = E(kin-el) + E(nuc-el) + E(el-el) + E(nuc-nuc)
    E(ZPE)  - the the zero temperature vibrational energy from the frequency calculation
    E(vib)  - the the finite temperature correction to E(ZPE) due to population
              of excietd vibrational states
    E(rot)  - is the rotational thermal energy
    E(trans)- is the translational thermal energy

Summary of contributions to the inner energy U:
Electronic energy                ...   -327.20758346 Eh
Zero point energy                ...      0.17478536 Eh     109.68 kcal/mol
Thermal vibrational correction   ...      0.00533528 Eh       3.35 kcal/mol
Thermal rotational correction    ...      0.00141627 Eh       0.89 kcal/mol
Thermal translational correction ...      0.00141627 Eh       0.89 kcal/mol
-----------------------------------------------------------------------
Total thermal energy                   -327.02463028 Eh

Summary of corrections to the electronic energy:
(perhaps to be used in another calculation)
Total thermal correction                  0.00816782 Eh       5.13 kcal/mol
Non-thermal (ZPE) correction              0.17478536 Eh     109.68 kcal/mol
-----------------------------------------------------------------------
Total correction                          0.18295318 Eh     114.80 kcal/mol

--------
ENTHALPY
--------

The enthalpy is H = U + kB*T
                kB is Boltzmann's constant
Total free energy                 ...   -327.02463028 Eh
Thermal Enthalpy correction       ...      0.00094421 Eh       0.59 kcal/mol
-----------------------------------------------------------------------
Total Enthalpy                    ...   -327.02368607 Eh

-------
ENTROPY
-------

The entropy contributions are T*S = T*(S(el)+S(vib)+S(rot)+S(trans)
     S(el)   - electronic entropy
     S(vib)  - vibrational entropy
     S(rot)  - rotational entropy
     S(trans)- translational entropy
The entropies will be listed as mutliplied by the temperature to get
units of energy

Electronic entropy                ...      0.00000000 Eh      0.00 kcal/mol
Vibrational entropy               ...      0.00899286 Eh      5.64 kcal/mol
Rotational entropy                ...      0.01207065 Eh      7.57 kcal/mol
Translational entropy             ...      0.01890147 Eh     11.86 kcal/mol
-----------------------------------------------------------------------
Final entropy term                ...      0.03996498 Eh     25.08 kcal/mol

CAUTION: The rotational entropy is not quite correctly treated here
         because it includes a symmetry number that is not yet correctly
         implemented in ORCA!
For a nonlinear molecule the correct rotational entropy is:
    S(rot) = R*(ln(qrot/sn)+1.5)
    R    = 8.31441 J/mol/K = 1.987191683e-3 kcal/mol/K
    qrot = 238676.6085616
    sn is the rotational symmetry number. We have assumed 3 here
       if it is different for your molecule then you should correct
       the printed rotational entropy by manually evaluating the equation
       as given above

For convenience we print out the resulting values for sn=1 - 12:
 sn= 1  qrot/sn=  238676.6086 T*S(rot)=     8.23 kcal/mol T*S(tot)=    25.73 kcal/mol
 sn= 2  qrot/sn=  119338.3043 T*S(rot)=     7.81 kcal/mol T*S(tot)=    25.32 kcal/mol
 sn= 3  qrot/sn=   79558.8695 T*S(rot)=     7.57 kcal/mol T*S(tot)=    25.08 kcal/mol
 sn= 4  qrot/sn=   59669.1521 T*S(rot)=     7.40 kcal/mol T*S(tot)=    24.91 kcal/mol
 sn= 5  qrot/sn=   47735.3217 T*S(rot)=     7.27 kcal/mol T*S(tot)=    24.78 kcal/mol
 sn= 6  qrot/sn=   39779.4348 T*S(rot)=     7.16 kcal/mol T*S(tot)=    24.67 kcal/mol
 sn= 7  qrot/sn=   34096.6584 T*S(rot)=     7.07 kcal/mol T*S(tot)=    24.58 kcal/mol
 sn= 8  qrot/sn=   29834.5761 T*S(rot)=     6.99 kcal/mol T*S(tot)=    24.50 kcal/mol
 sn= 9  qrot/sn=   26519.6232 T*S(rot)=     6.92 kcal/mol T*S(tot)=    24.43 kcal/mol
 sn=10  qrot/sn=   23867.6609 T*S(rot)=     6.86 kcal/mol T*S(tot)=    24.37 kcal/mol
 sn=11  qrot/sn=   21697.8735 T*S(rot)=     6.80 kcal/mol T*S(tot)=    24.31 kcal/mol
 sn=12  qrot/sn=   19889.7174 T*S(rot)=     6.75 kcal/mol T*S(tot)=    24.26 kcal/mol

-------------------
GIBBS FREE ENTHALPY
-------------------

The Gibbs free enthalpy is G = H - T*S

Total enthalpy                    ...   -327.02368607 Eh
Total entropy correction          ...     -0.03996498 Eh    -25.08 kcal/mol
-----------------------------------------------------------------------
Final Gibbs free enthalpy         ...   -327.06365105 Eh

For completeness - the Gibbs free enthalpy minus the electronic energy
G-E(el)                           ...      0.14393241 Eh     90.32 kcal/mol

                             ****ORCA TERMINATED NORMALLY****
TOTAL RUN TIME: 0 days 0 hours 37 minutes 47 seconds 677 msec
