                         Program Version 3.0.3 - RELEASE   -
|  1> ! NORI PBE0 def2-TZVP UseSym TightOPT Freq TightSCF Grid3 FinalGrid5 XYZFile
|  2> % pal
|  3>     nprocs 8
|  4> end
|  5> %method
|  6>     SymThresh 5.0e-2
|  7> end
|  8> % geom
|  9>     MaxIter 10
| 10> end
| 11> % maxcore 2000
| 12> % output
| 13>     printlevel mini
| 14>     print[ P_Basis ] 0
| 15>     print[ P_SCFInfo ] 1
| 16>     print[ P_SCFIterInfo ] 1
| 17>     print[ P_OrbEn ] 0
| 18>     print[ P_Cartesian ] 0
| 19> end
| 20> % elprop
| 21>     Dipole false
| 22> end
| 23> *xyz 1 1
| 24>  C        3.1528442440     0.1965539054    -1.1936035195
| 25>  C        2.3132834545    -0.0543451074     0.0517998876
| 26>  C        3.0389748886    -0.9695443259     1.0116323715
| 27>  N        2.2317072290    -1.3529487250     2.2691059630
| 28>  C        2.3497086777    -2.8336863206     1.9698937954
| 29>  C        3.1028265809    -2.4683960299     0.6864531894
| 30>  O        3.5390305124    -3.0950400369    -0.2101420937
| 31>  H        2.6080115687     0.8499415364    -1.8751347034
| 32>  H        3.3759545146    -0.7316075632    -1.7211150887
| 33>  H        4.0962567228     0.6861131583    -0.9438415045
| 34>  H        1.3519700023    -0.5015443876    -0.2258974376
| 35>  H        2.1019231133     0.8914002926     0.5616322567
| 36>  H        4.0056003418    -0.5619307914     1.3196160253
| 37>  H        1.2743146104    -1.0037696612     2.2383837853
| 38>  H        2.6491379893    -1.0612036577     3.1511638105
| 39>  H        2.9432952130    -3.3538946156     2.7219853683
| 40>  H        1.3801703367    -3.3162576703     1.8497878942
| 41> *
| 42>
| 43>                          ****END OF INPUT****
 Total Charge           Charge          ....    1
 Multiplicity           Mult            ....    1
 Number of Electrons    NEL             ....   54
FINAL SINGLE POINT ENERGY      -325.989504226045

CARTESIAN COORDINATES (ANGSTROEM)
---------------------------------
  C     -2.491442   -0.172020   -0.434488
  C     -1.195526    0.279028   -1.095116
  C     -0.010884   -0.451478   -0.504991
  N      1.359718   -0.000325   -1.050955
  C      1.863652    0.356562    0.332932
  C      0.488399   -0.032779    0.885077
  O     -0.000036    0.000111    1.956090
  H     -3.330180    0.373781   -0.866324
  H     -2.481636    0.017825    0.639507
  H     -2.667980   -1.237556   -0.594560
  H     -1.062560    1.359305   -0.964505
  H     -1.230426    0.078593   -2.171232
  H     -0.098119   -1.535971   -0.614361
  H      1.284368    0.799835   -1.678673
  H      1.892516   -0.727878   -1.524736
  H      2.685988   -0.287713    0.644314
  H      2.148295    1.404959    0.418601

FINAL SINGLE POINT ENERGY      -325.989504652593
                    ***********************HURRAY********************
 Multiplicity           Mult            ....    1
 Number of Electrons    NEL             ....   54
 Basis Dimension        Dim             ....  277
FINAL SINGLE POINT ENERGY      -325.989504820859

VIBRATIONAL FREQUENCIES
-----------------------

   0:         0.00 cm**-1
   1:         0.00 cm**-1
   2:         0.00 cm**-1
   3:         0.00 cm**-1
   4:         0.00 cm**-1
   5:         0.00 cm**-1
   6:        74.23 cm**-1
   7:       111.37 cm**-1
   8:       157.56 cm**-1
   9:       236.26 cm**-1
  10:       274.97 cm**-1
  11:       379.56 cm**-1
  12:       443.26 cm**-1
  13:       527.42 cm**-1
  14:       717.65 cm**-1
  15:       746.57 cm**-1
  16:       794.59 cm**-1
  17:       816.34 cm**-1
  18:       856.07 cm**-1
  19:       917.36 cm**-1
  20:       964.86 cm**-1
  21:       980.49 cm**-1
  22:      1037.06 cm**-1
  23:      1054.67 cm**-1
  24:      1079.44 cm**-1
  25:      1123.80 cm**-1
  26:      1192.14 cm**-1
  27:      1233.99 cm**-1
  28:      1255.31 cm**-1
  29:      1280.99 cm**-1
  30:      1292.10 cm**-1
  31:      1310.36 cm**-1
  32:      1342.20 cm**-1
  33:      1357.75 cm**-1
  34:      1420.90 cm**-1
  35:      1442.75 cm**-1
  36:      1482.52 cm**-1
  37:      1491.51 cm**-1
  38:      1499.96 cm**-1
  39:      1643.67 cm**-1
  40:      1975.15 cm**-1
  41:      3038.82 cm**-1
  42:      3069.57 cm**-1
  43:      3083.37 cm**-1
  44:      3105.24 cm**-1
  45:      3111.82 cm**-1
  46:      3148.45 cm**-1
  47:      3160.69 cm**-1
  48:      3183.48 cm**-1
  49:      3470.80 cm**-1
  50:      3539.04 cm**-1

IR SPECTRUM
-----------

 Mode    freq (cm**-1)   T**2         TX         TY         TZ
-------------------------------------------------------------------
   6:        74.23    0.559617  ( -0.262894   0.676157  -0.182526)
   7:       111.37    2.664695  ( -1.350728  -0.611551  -0.682815)
   8:       157.56    3.154153  ( -1.364607   1.015120  -0.511403)
   9:       236.26    0.248875  (  0.253185  -0.414147  -0.115126)
  10:       274.97    0.021954  ( -0.042920   0.135246   0.042662)
  11:       379.56    3.863503  ( -1.848281  -0.186811  -0.642233)
  12:       443.26    0.905819  ( -0.810611  -0.489145  -0.097290)
  13:       527.42    0.757520  ( -0.852944  -0.163161  -0.058181)
  14:       717.65    4.316547  (  1.027924  -0.544228  -1.721550)
  15:       746.57    5.382949  (  0.338790   0.896021   2.113130)
  16:       794.59    7.761211  (  0.670081   2.563758   0.859854)
  17:       816.34   13.412045  ( -3.353505   1.005553  -1.074667)
  18:       856.07    4.285792  ( -1.774503  -0.907413   0.559940)
  19:       917.36   17.506106  (  3.548786   0.439924   2.172255)
  20:       964.86    8.687844  ( -2.127876   1.786138  -0.984732)
  21:       980.49    5.863922  (  1.490319  -0.397710  -1.866735)
  22:      1037.06   22.086352  ( -4.356974  -1.760594   0.058613)
  23:      1054.67   21.080369  (  4.489169   0.566835   0.778734)
  24:      1079.44   34.038763  (  4.515244   1.995983   3.109242)
  25:      1123.80   12.134084  (  3.307982   1.024836   0.375567)
  26:      1192.14   16.194531  (  3.294365   1.492034   1.765085)
  27:      1233.99   53.357628  (  6.759548   1.872976   2.039140)
  28:      1255.31   10.555959  (  3.010318   1.047708  -0.629487)
  29:      1280.99    6.454059  (  1.280129   2.062134  -0.750288)
  30:      1292.10    5.462517  (  1.709060   0.995383   1.245328)
  31:      1310.36    0.883918  ( -0.496284   0.684263   0.411589)
  32:      1342.20    0.523568  (  0.294495  -0.099554  -0.653399)
  33:      1357.75    7.894498  (  1.067105   0.850388   2.456140)
  34:      1420.90    5.418069  (  1.737537   0.615793  -1.421208)
  35:      1442.75   22.890227  (  4.556635   1.435692   0.257084)
  36:      1482.52    5.308073  (  1.948362   1.130549   0.483545)
  37:      1491.51   13.054111  ( -0.543066   2.188688   2.822912)
  38:      1499.96   10.069494  ( -0.880034   2.818885  -1.161430)
  39:      1643.67   64.247667  ( -3.859868  -1.063263   6.943958)
  40:      1975.15  207.828901  (  5.377886   0.303461 -13.372178)
  41:      3038.82    9.703774  (  1.905900   1.955795  -1.498728)
  42:      3069.57    4.922222  ( -1.403284  -1.594975   0.639587)
  43:      3083.37    4.324553  ( -0.331067  -1.287452  -1.599192)
  44:      3105.24    1.999914  (  1.224166   0.268142   0.655310)
  45:      3111.82    7.999058  (  2.738563   0.705420  -0.041390)
  46:      3148.45    5.766955  ( -0.018347   2.247493   0.845809)
  47:      3160.69    1.276030  (  0.413676  -0.351542   0.990616)
  48:      3183.48    6.555409  (  0.886526  -2.375226   0.357465)
  49:      3470.80   77.063101  ( -3.732207  -1.024954   7.879289)
  50:      3539.04   98.123976  ( -4.432713   8.853409   0.303621)

--------------------------
THERMOCHEMISTRY AT 298.15K
--------------------------

Temperature         ... 298.15 K
Pressure            ... 1.00 atm
Total Mass          ... 100.14 AMU

Throughout the following assumptions are being made:
  (1) The electronic state is orbitally nondegenerate
  (2) There are no thermally accessible electronically excited states
  (3) Hindered rotations indicated by low frequency modes) are not
      treated as such but are treated as vibrations and this may
      case some error
  (4) All equations used are the standard statistical mechanics
      equations for an ideal gas
  (5) All vibrations are strinctly harmonic

------------
INNER ENERGY
------------

The inner energy is: U= E(el) + E(ZPE) + E(vib) + E(rot) + E(trans)
    E(el)   - is the total energy from the electronic structure calculation
              = E(kin-el) + E(nuc-el) + E(el-el) + E(nuc-nuc)
    E(ZPE)  - the the zero temperature vibrational energy from the frequency calculation
    E(vib)  - the the finite temperature correction to E(ZPE) due to population
              of excietd vibrational states
    E(rot)  - is the rotational thermal energy
    E(trans)- is the translational thermal energy

Summary of contributions to the inner energy U:
Electronic energy                ...   -325.98950482 Eh
Zero point energy                ...      0.15132982 Eh      94.96 kcal/mol
Thermal vibrational correction   ...      0.00468333 Eh       2.94 kcal/mol
Thermal rotational correction    ...      0.00141627 Eh       0.89 kcal/mol
Thermal translational correction ...      0.00141627 Eh       0.89 kcal/mol
-----------------------------------------------------------------------
Total thermal energy                   -325.83065913 Eh

Summary of corrections to the electronic energy:
(perhaps to be used in another calculation)
Total thermal correction                  0.00751587 Eh       4.72 kcal/mol
Non-thermal (ZPE) correction              0.15132982 Eh      94.96 kcal/mol
-----------------------------------------------------------------------
Total correction                          0.15884569 Eh      99.68 kcal/mol

--------
ENTHALPY
--------

The enthalpy is H = U + kB*T
                kB is Boltzmann's constant
Total free energy                 ...   -325.83065913 Eh
Thermal Enthalpy correction       ...      0.00094421 Eh       0.59 kcal/mol
-----------------------------------------------------------------------
Total Enthalpy                    ...   -325.82971492 Eh

-------
ENTROPY
-------

The entropy contributions are T*S = T*(S(el)+S(vib)+S(rot)+S(trans)
     S(el)   - electronic entropy
     S(vib)  - vibrational entropy
     S(rot)  - rotational entropy
     S(trans)- translational entropy
The entropies will be listed as mutliplied by the temperature to get
units of energy

Electronic entropy                ...      0.00000000 Eh      0.00 kcal/mol
Vibrational entropy               ...      0.00843675 Eh      5.29 kcal/mol
Rotational entropy                ...      0.01205881 Eh      7.57 kcal/mol
Translational entropy             ...      0.01887324 Eh     11.84 kcal/mol
-----------------------------------------------------------------------
Final entropy term                ...      0.03936880 Eh     24.70 kcal/mol

CAUTION: The rotational entropy is not quite correctly treated here
         because it includes a symmetry number that is not yet correctly
         implemented in ORCA!
For a nonlinear molecule the correct rotational entropy is:
    S(rot) = R*(ln(qrot/sn)+1.5)
    R    = 8.31441 J/mol/K = 1.987191683e-3 kcal/mol/K
    qrot = 235703.1534776
    sn is the rotational symmetry number. We have assumed 3 here
       if it is different for your molecule then you should correct
       the printed rotational entropy by manually evaluating the equation
       as given above

For convenience we print out the resulting values for sn=1 - 12:
 sn= 1  qrot/sn=  235703.1535 T*S(rot)=     8.22 kcal/mol T*S(tot)=    25.36 kcal/mol
 sn= 2  qrot/sn=  117851.5767 T*S(rot)=     7.81 kcal/mol T*S(tot)=    24.94 kcal/mol
 sn= 3  qrot/sn=   78567.7178 T*S(rot)=     7.57 kcal/mol T*S(tot)=    24.70 kcal/mol
 sn= 4  qrot/sn=   58925.7884 T*S(rot)=     7.40 kcal/mol T*S(tot)=    24.53 kcal/mol
 sn= 5  qrot/sn=   47140.6307 T*S(rot)=     7.26 kcal/mol T*S(tot)=    24.40 kcal/mol
 sn= 6  qrot/sn=   39283.8589 T*S(rot)=     7.16 kcal/mol T*S(tot)=    24.29 kcal/mol
 sn= 7  qrot/sn=   33671.8791 T*S(rot)=     7.06 kcal/mol T*S(tot)=    24.20 kcal/mol
 sn= 8  qrot/sn=   29462.8942 T*S(rot)=     6.99 kcal/mol T*S(tot)=    24.12 kcal/mol
 sn= 9  qrot/sn=   26189.2393 T*S(rot)=     6.92 kcal/mol T*S(tot)=    24.05 kcal/mol
 sn=10  qrot/sn=   23570.3153 T*S(rot)=     6.85 kcal/mol T*S(tot)=    23.99 kcal/mol
 sn=11  qrot/sn=   21427.5594 T*S(rot)=     6.80 kcal/mol T*S(tot)=    23.93 kcal/mol
 sn=12  qrot/sn=   19641.9295 T*S(rot)=     6.75 kcal/mol T*S(tot)=    23.88 kcal/mol

-------------------
GIBBS FREE ENTHALPY
-------------------

The Gibbs free enthalpy is G = H - T*S

Total enthalpy                    ...   -325.82971492 Eh
Total entropy correction          ...     -0.03936880 Eh    -24.70 kcal/mol
-----------------------------------------------------------------------
Final Gibbs free enthalpy         ...   -325.86908372 Eh

For completeness - the Gibbs free enthalpy minus the electronic energy
G-E(el)                           ...      0.12042110 Eh     75.57 kcal/mol

                             ****ORCA TERMINATED NORMALLY****
TOTAL RUN TIME: 0 days 0 hours 29 minutes 4 seconds 183 msec
