                         Program Version 3.0.3 - RELEASE   -
|  1> ! NORI PBE0 def2-TZVP UseSym TightOPT Freq TightSCF Grid3 FinalGrid5 XYZFile
|  2> % pal
|  3>     nprocs 8
|  4> end
|  5> %method
|  6>     SymThresh 5.0e-2
|  7> end
|  8> % geom
|  9>     MaxIter 10
| 10> end
| 11> % maxcore 2000
| 12> % output
| 13>     printlevel mini
| 14>     print[ P_Basis ] 0
| 15>     print[ P_SCFInfo ] 1
| 16>     print[ P_SCFIterInfo ] 1
| 17>     print[ P_OrbEn ] 0
| 18>     print[ P_Cartesian ] 0
| 19> end
| 20> % elprop
| 21>     Dipole false
| 22> end
| 23> *xyz 1 1
| 24>  C        0.8330213912     0.2934559773    -0.3074110502
| 25>  C        2.3101607762     0.0190644009    -0.0714146148
| 26>  C        2.8362659971     0.5100253215     1.2554284793
| 27>  N        4.3099437474     0.1627251623     1.3567257300
| 28>  C        2.6997908533     1.9489577695     1.7675028645
| 29>  O        2.6038418776     1.4584713794     3.1123733308
| 30>  C        2.2225621291     0.1662228940     2.6181031138
| 31>  H        0.5443506557    -0.0935338605    -1.2846193444
| 32>  H        0.6093456852     1.3610702117    -0.3008385599
| 33>  H        0.2011418274    -0.1967378639     0.4346991852
| 34>  H        2.8963876570     0.4854304610    -0.8733345193
| 35>  H        2.4927123289    -1.0608913108    -0.1419937405
| 36>  H        4.8490094181     0.6021339561     0.6075218649
| 37>  H        4.4592466243    -0.8471245581     1.2999623866
| 38>  H        4.6706822275     0.4954959006     2.2570118163
| 39>  H        1.7692256337     2.4181098228     1.4377414420
| 40>  H        3.5314239864     2.6445341229     1.6212945318
| 41>  H        2.6488069425    -0.6582912009     3.1968676040
| 42>  H        1.1363202416     0.0533314142     2.5666294801
| 43> *
| 44>
| 45>                          ****END OF INPUT****
 Total Charge           Charge          ....    1
 Multiplicity           Mult            ....    1
 Number of Electrons    NEL             ....   56
FINAL SINGLE POINT ENERGY      -327.188289530403
FINAL SINGLE POINT ENERGY      -327.188290761583

CARTESIAN COORDINATES (ANGSTROEM)
---------------------------------
  C     -1.718147   -1.763315    0.000000
  C     -1.602653   -0.246962   -0.000000
  C     -0.185537    0.272545   -0.000000
  N     -0.218262    1.789958    0.000000
  C      0.889601   -0.131597    1.016177
  O      1.894497   -0.002136   -0.000000
  C      0.889601   -0.131596   -1.016178
  H     -2.770738   -2.046470    0.000000
  H     -1.261289   -2.208594    0.884941
  H     -1.261288   -2.208595   -0.884940
  H     -2.122860    0.155255    0.878680
  H     -2.122860    0.155254   -0.878682
  H     -0.698412    2.152538    0.826507
  H     -0.698412    2.152539   -0.826507
  H      0.744020    2.144481    0.000000
  H      0.776191   -1.166970    1.347932
  H      1.068402    0.512242    1.882287
  H      1.068402    0.512243   -1.882287
  H      0.776191   -1.166969   -1.347933

FINAL SINGLE POINT ENERGY      -327.188291059789
                    ***********************HURRAY********************
 Multiplicity           Mult            ....    1
 Number of Electrons    NEL             ....   56
 Basis Dimension        Dim             ....  289
FINAL SINGLE POINT ENERGY      -327.188291075596

VIBRATIONAL FREQUENCIES
-----------------------

   0:         0.00 cm**-1
   1:         0.00 cm**-1
   2:         0.00 cm**-1
   3:         0.00 cm**-1
   4:         0.00 cm**-1
   5:         0.00 cm**-1
   6:        76.63 cm**-1
   7:       145.72 cm**-1
   8:       230.13 cm**-1
   9:       238.18 cm**-1
  10:       277.87 cm**-1
  11:       309.03 cm**-1
  12:       381.91 cm**-1
  13:       406.90 cm**-1
  14:       470.86 cm**-1
  15:       619.29 cm**-1
  16:       777.95 cm**-1
  17:       794.50 cm**-1
  18:       900.54 cm**-1
  19:       928.51 cm**-1
  20:       932.31 cm**-1
  21:       933.88 cm**-1
  22:      1014.23 cm**-1
  23:      1035.39 cm**-1
  24:      1045.47 cm**-1
  25:      1086.48 cm**-1
  26:      1089.96 cm**-1
  27:      1145.37 cm**-1
  28:      1160.34 cm**-1
  29:      1226.45 cm**-1
  30:      1228.68 cm**-1
  31:      1300.42 cm**-1
  32:      1310.61 cm**-1
  33:      1346.27 cm**-1
  34:      1379.11 cm**-1
  35:      1398.86 cm**-1
  36:      1423.46 cm**-1
  37:      1471.75 cm**-1
  38:      1481.85 cm**-1
  39:      1490.79 cm**-1
  40:      1496.79 cm**-1
  41:      1502.57 cm**-1
  42:      1525.26 cm**-1
  43:      1652.26 cm**-1
  44:      1655.88 cm**-1
  45:      3024.69 cm**-1
  46:      3060.78 cm**-1
  47:      3063.57 cm**-1
  48:      3066.70 cm**-1
  49:      3073.01 cm**-1
  50:      3121.25 cm**-1
  51:      3121.31 cm**-1
  52:      3150.46 cm**-1
  53:      3155.48 cm**-1
  54:      3395.99 cm**-1
  55:      3481.77 cm**-1
  56:      3504.18 cm**-1

IR SPECTRUM
-----------

 Mode    freq (cm**-1)   T**2         TX         TY         TZ
-------------------------------------------------------------------
   6:        76.63    0.418615  ( -0.000185   0.000467  -0.647005)
   7:       145.72   22.030267  ( -1.762937   4.349979   0.000177)
   8:       230.13    0.413338  (  0.003190  -0.001200  -0.642905)
   9:       238.18    7.545900  ( -2.618805   0.829314  -0.000766)
  10:       277.87    2.467231  (  0.000168  -0.000333   1.570742)
  11:       309.03    1.832213  ( -0.000068   0.000023   1.353593)
  12:       381.91    4.680661  ( -2.044690  -0.707039  -0.000097)
  13:       406.90    2.098183  ( -0.000112  -0.000005   1.448511)
  14:       470.86    5.548959  (  0.856687  -2.194321  -0.000027)
  15:       619.29    0.177554  (  0.319978   0.274167   0.000023)
  16:       777.95    4.624350  (  0.000106  -0.000129   2.150430)
  17:       794.50    4.725286  ( -1.851696   1.138642  -0.000037)
  18:       900.54   23.814492  (  4.400729   2.109047  -0.000084)
  19:       928.51    0.883964  ( -0.000129   0.000098   0.940194)
  20:       932.31    1.425071  ( -0.000349   0.000084  -1.193763)
  21:       933.88   12.533855  ( -3.523005   0.349705   0.000082)
  22:      1014.23    9.946657  ( -3.046155   0.817065  -0.000033)
  23:      1035.39   14.332235  ( -3.783081  -0.143287   0.000464)
  24:      1045.47   63.042713  ( -0.000236  -0.000033  -7.939944)
  25:      1086.48    1.537432  ( -0.360788  -1.186282   0.000214)
  26:      1089.96   13.497903  ( -0.000015   0.000031   3.673949)
  27:      1145.37    0.822734  ( -0.000011   0.000018   0.907047)
  28:      1160.34    2.604139  ( -0.161717  -1.605611   0.000019)
  29:      1226.45   14.944959  ( -2.431409  -3.005529  -0.000563)
  30:      1228.68    1.188048  (  0.001164   0.001676  -1.089974)
  31:      1300.42    0.669971  ( -0.000087   0.000031  -0.818517)
  32:      1310.61   14.120086  ( -3.549102  -1.234489   0.000014)
  33:      1346.27    0.007984  (  0.000064  -0.000097  -0.089356)
  34:      1379.11    6.692318  ( -0.081870   2.585656   0.000180)
  35:      1398.86   11.874298  (  3.166558  -1.359121  -0.000058)
  36:      1423.46    4.611938  ( -1.367415  -1.655933  -0.000041)
  37:      1471.75   21.785824  (  0.395198   4.650768  -0.000117)
  38:      1481.85  157.786280  (  1.704698  12.445091  -0.000195)
  39:      1490.79    0.788783  ( -0.000110  -0.000361   0.888135)
  40:      1496.79   22.873669  ( -3.765029   2.949276   0.000162)
  41:      1502.57   23.124300  ( -0.000093  -0.000522  -4.808773)
  42:      1525.26    2.392194  (  1.490482   0.413108  -0.000045)
  43:      1652.26   31.637013  ( -5.620874   0.206799   0.004188)
  44:      1655.88   35.462893  (  0.003969  -0.000135   5.955072)
  45:      3024.69   15.040096  (  1.601223  -3.532164  -0.000047)
  46:      3060.78   28.167431  ( -0.000354   0.000249   5.307300)
  47:      3063.57    5.240543  ( -0.000025  -0.000058  -2.289223)
  48:      3066.70    4.002855  (  1.729502  -1.005822   0.001122)
  49:      3073.01    3.723590  (  0.635527  -1.822003  -0.000116)
  50:      3121.25    2.681861  (  0.011768   0.032022  -1.637283)
  51:      3121.31   12.240016  (  1.212558   3.281686   0.015997)
  52:      3150.46    9.271325  (  0.000312  -0.000182  -3.044885)
  53:      3155.48    3.798245  ( -1.882995   0.502568  -0.000448)
  54:      3395.99   40.941998  (  2.860171   5.723759  -0.000076)
  55:      3481.77   85.614486  ( -9.058437   1.886583  -0.000336)
  56:      3504.18   73.663303  (  0.000413  -0.000184  -8.582733)

--------------------------
THERMOCHEMISTRY AT 298.15K
--------------------------

Temperature         ... 298.15 K
Pressure            ... 1.00 atm
Total Mass          ... 102.16 AMU

Throughout the following assumptions are being made:
  (1) The electronic state is orbitally nondegenerate
  (2) There are no thermally accessible electronically excited states
  (3) Hindered rotations indicated by low frequency modes) are not
      treated as such but are treated as vibrations and this may
      case some error
  (4) All equations used are the standard statistical mechanics
      equations for an ideal gas
  (5) All vibrations are strinctly harmonic

------------
INNER ENERGY
------------

The inner energy is: U= E(el) + E(ZPE) + E(vib) + E(rot) + E(trans)
    E(el)   - is the total energy from the electronic structure calculation
              = E(kin-el) + E(nuc-el) + E(el-el) + E(nuc-nuc)
    E(ZPE)  - the the zero temperature vibrational energy from the frequency calculation
    E(vib)  - the the finite temperature correction to E(ZPE) due to population
              of excietd vibrational states
    E(rot)  - is the rotational thermal energy
    E(trans)- is the translational thermal energy

Summary of contributions to the inner energy U:
Electronic energy                ...   -327.18829108 Eh
Zero point energy                ...      0.17567322 Eh     110.24 kcal/mol
Thermal vibrational correction   ...      0.00500561 Eh       3.14 kcal/mol
Thermal rotational correction    ...      0.00141627 Eh       0.89 kcal/mol
Thermal translational correction ...      0.00141627 Eh       0.89 kcal/mol
-----------------------------------------------------------------------
Total thermal energy                   -327.00477970 Eh

Summary of corrections to the electronic energy:
(perhaps to be used in another calculation)
Total thermal correction                  0.00783816 Eh       4.92 kcal/mol
Non-thermal (ZPE) correction              0.17567322 Eh     110.24 kcal/mol
-----------------------------------------------------------------------
Total correction                          0.18351138 Eh     115.15 kcal/mol

--------
ENTHALPY
--------

The enthalpy is H = U + kB*T
                kB is Boltzmann's constant
Total free energy                 ...   -327.00477970 Eh
Thermal Enthalpy correction       ...      0.00094421 Eh       0.59 kcal/mol
-----------------------------------------------------------------------
Total Enthalpy                    ...   -327.00383549 Eh

-------
ENTROPY
-------

The entropy contributions are T*S = T*(S(el)+S(vib)+S(rot)+S(trans)
     S(el)   - electronic entropy
     S(vib)  - vibrational entropy
     S(rot)  - rotational entropy
     S(trans)- translational entropy
The entropies will be listed as mutliplied by the temperature to get
units of energy

Electronic entropy                ...      0.00000000 Eh      0.00 kcal/mol
Vibrational entropy               ...      0.00862231 Eh      5.41 kcal/mol
Rotational entropy                ...      0.01202123 Eh      7.54 kcal/mol
Translational entropy             ...      0.01890147 Eh     11.86 kcal/mol
-----------------------------------------------------------------------
Final entropy term                ...      0.03954501 Eh     24.81 kcal/mol

CAUTION: The rotational entropy is not quite correctly treated here
         because it includes a symmetry number that is not yet correctly
         implemented in ORCA!
For a nonlinear molecule the correct rotational entropy is:
    S(rot) = R*(ln(qrot/sn)+1.5)
    R    = 8.31441 J/mol/K = 1.987191683e-3 kcal/mol/K
    qrot = 226506.2384388
    sn is the rotational symmetry number. We have assumed 3 here
       if it is different for your molecule then you should correct
       the printed rotational entropy by manually evaluating the equation
       as given above

For convenience we print out the resulting values for sn=1 - 12:
 sn= 1  qrot/sn=  226506.2384 T*S(rot)=     8.19 kcal/mol T*S(tot)=    25.47 kcal/mol
 sn= 2  qrot/sn=  113253.1192 T*S(rot)=     7.78 kcal/mol T*S(tot)=    25.06 kcal/mol
 sn= 3  qrot/sn=   75502.0795 T*S(rot)=     7.54 kcal/mol T*S(tot)=    24.81 kcal/mol
 sn= 4  qrot/sn=   56626.5596 T*S(rot)=     7.37 kcal/mol T*S(tot)=    24.64 kcal/mol
 sn= 5  qrot/sn=   45301.2477 T*S(rot)=     7.24 kcal/mol T*S(tot)=    24.51 kcal/mol
 sn= 6  qrot/sn=   37751.0397 T*S(rot)=     7.13 kcal/mol T*S(tot)=    24.40 kcal/mol
 sn= 7  qrot/sn=   32358.0341 T*S(rot)=     7.04 kcal/mol T*S(tot)=    24.31 kcal/mol
 sn= 8  qrot/sn=   28313.2798 T*S(rot)=     6.96 kcal/mol T*S(tot)=    24.23 kcal/mol
 sn= 9  qrot/sn=   25167.3598 T*S(rot)=     6.89 kcal/mol T*S(tot)=    24.16 kcal/mol
 sn=10  qrot/sn=   22650.6238 T*S(rot)=     6.83 kcal/mol T*S(tot)=    24.10 kcal/mol
 sn=11  qrot/sn=   20591.4762 T*S(rot)=     6.77 kcal/mol T*S(tot)=    24.05 kcal/mol
 sn=12  qrot/sn=   18875.5199 T*S(rot)=     6.72 kcal/mol T*S(tot)=    23.99 kcal/mol

-------------------
GIBBS FREE ENTHALPY
-------------------

The Gibbs free enthalpy is G = H - T*S

Total enthalpy                    ...   -327.00383549 Eh
Total entropy correction          ...     -0.03954501 Eh    -24.81 kcal/mol
-----------------------------------------------------------------------
Final Gibbs free enthalpy         ...   -327.04338050 Eh

For completeness - the Gibbs free enthalpy minus the electronic energy
G-E(el)                           ...      0.14491058 Eh     90.93 kcal/mol

                             ****ORCA TERMINATED NORMALLY****
TOTAL RUN TIME: 0 days 0 hours 41 minutes 8 seconds 994 msec
