                         Program Version 3.0.3 - RELEASE   -
|  1> ! NORI PBE0 def2-TZVP UseSym TightOPT Freq TightSCF Grid3 FinalGrid5 XYZFile
|  2> % pal
|  3>     nprocs 8
|  4> end
|  5> %method
|  6>     SymThresh 5.0e-2
|  7> end
|  8> % geom
|  9>     MaxIter 10
| 10> end
| 11> % maxcore 2000
| 12> % output
| 13>     printlevel mini
| 14>     print[ P_Basis ] 0
| 15>     print[ P_SCFInfo ] 1
| 16>     print[ P_SCFIterInfo ] 1
| 17>     print[ P_OrbEn ] 0
| 18>     print[ P_Cartesian ] 0
| 19> end
| 20> % elprop
| 21>     Dipole false
| 22> end
| 23> *xyz 1 1
| 24>  C        2.6640778133     1.1821365040    -0.4543909116
| 25>  C        2.2679291446    -0.2861751710    -0.4061344526
| 26>  C        3.0698504833    -1.0433349082     0.6023756400
| 27>  O        3.0527774302    -2.4748747722     0.5164013099
| 28>  C        4.2721417568    -1.7974046505     0.2366740615
| 29>  C        5.3195668479    -2.1399086584     1.2610472993
| 30>  N        5.2539470207    -3.6308890804     1.4545919069
| 31>  H        2.0451281019     1.7178173881    -1.1740626958
| 32>  H        3.7068231207     1.3088133520    -0.7553342797
| 33>  H        2.5317146998     1.6660025953     0.5163420384
| 34>  H        2.3868923184    -0.7589391230    -1.3850994576
| 35>  H        1.2116721311    -0.3834411021    -0.1368787889
| 36>  H        3.0174959869    -0.6766216693     1.6275248097
| 37>  H        4.5822337175    -1.8201735786    -0.8068006242
| 38>  H        5.0960774149    -1.6967764752     2.2314743319
| 39>  H        6.3310204645    -1.8696680350     0.9610382230
| 40>  H        4.2518828591    -3.8642733427     1.5216583999
| 41>  H        5.7375703964    -3.9452589792     2.2963333725
| 42>  H        5.6391682921    -4.1382502937     0.6557598175
| 43> *
| 44>
| 45>                          ****END OF INPUT****
 Total Charge           Charge          ....    1
 Multiplicity           Mult            ....    1
 Number of Electrons    NEL             ....   56
FINAL SINGLE POINT ENERGY      -327.198032284375

CARTESIAN COORDINATES (ANGSTROEM)
---------------------------------
  C     -2.566707    0.036112   -1.628055
  C     -2.085470   -0.143322   -0.195708
  C     -0.707489    0.402041   -0.002252
  O     -0.000422   -0.000078    1.179197
  C      0.485193   -0.445766   -0.081543
  C      1.840660    0.140905   -0.368859
  N      2.642866   -0.000006    0.896748
  H     -3.583323   -0.342183   -1.736130
  H     -1.934950   -0.505045   -2.336629
  H     -2.576065    1.089082   -1.919446
  H     -2.096223   -1.197581    0.094252
  H     -2.753709    0.379178    0.495452
  H     -0.572612    1.456587   -0.242257
  H      0.362458   -1.510697   -0.271366
  H      1.782766    1.209468   -0.575049
  H      2.372034   -0.358393   -1.177915
  H      2.016233    0.287683    1.663381
  H      3.482681    0.579613    0.902696
  H      2.920909   -0.967999    1.068361

FINAL SINGLE POINT ENERGY      -327.198033003596
                    ***********************HURRAY********************
 Multiplicity           Mult            ....    1
 Number of Electrons    NEL             ....   56
 Basis Dimension        Dim             ....  289
FINAL SINGLE POINT ENERGY      -327.198033369632

VIBRATIONAL FREQUENCIES
-----------------------

   0:         0.00 cm**-1
   1:         0.00 cm**-1
   2:         0.00 cm**-1
   3:         0.00 cm**-1
   4:         0.00 cm**-1
   5:         0.00 cm**-1
   6:        69.30 cm**-1
   7:       102.77 cm**-1
   8:       141.51 cm**-1
   9:       194.39 cm**-1
  10:       252.75 cm**-1
  11:       273.57 cm**-1
  12:       330.21 cm**-1
  13:       419.15 cm**-1
  14:       453.18 cm**-1
  15:       570.27 cm**-1
  16:       778.19 cm**-1
  17:       811.64 cm**-1
  18:       858.57 cm**-1
  19:       907.29 cm**-1
  20:       923.25 cm**-1
  21:       953.42 cm**-1
  22:       984.82 cm**-1
  23:      1046.46 cm**-1
  24:      1067.33 cm**-1
  25:      1084.59 cm**-1
  26:      1119.92 cm**-1
  27:      1160.45 cm**-1
  28:      1183.16 cm**-1
  29:      1196.88 cm**-1
  30:      1267.26 cm**-1
  31:      1290.43 cm**-1
  32:      1336.84 cm**-1
  33:      1341.38 cm**-1
  34:      1366.58 cm**-1
  35:      1408.05 cm**-1
  36:      1415.09 cm**-1
  37:      1478.23 cm**-1
  38:      1479.27 cm**-1
  39:      1488.63 cm**-1
  40:      1493.69 cm**-1
  41:      1494.71 cm**-1
  42:      1512.17 cm**-1
  43:      1645.95 cm**-1
  44:      1669.49 cm**-1
  45:      3056.22 cm**-1
  46:      3065.40 cm**-1
  47:      3101.84 cm**-1
  48:      3112.10 cm**-1
  49:      3126.15 cm**-1
  50:      3134.09 cm**-1
  51:      3142.56 cm**-1
  52:      3148.84 cm**-1
  53:      3178.37 cm**-1
  54:      3337.39 cm**-1
  55:      3473.02 cm**-1
  56:      3524.75 cm**-1

IR SPECTRUM
-----------

 Mode    freq (cm**-1)   T**2         TX         TY         TZ
-------------------------------------------------------------------
   6:        69.30    5.448155  (  1.038786  -1.917205  -0.832710)
   7:       102.77   10.936010  (  1.929285  -2.443336   1.115338)
   8:       141.51    9.040874  (  2.268695  -0.398009  -1.932741)
   9:       194.39    6.190246  (  2.463528   0.313500   0.151640)
  10:       252.75    5.522773  ( -2.222700  -0.760023   0.068872)
  11:       273.57   16.368625  (  3.654914   1.489578   0.889598)
  12:       330.21    7.743722  ( -2.559194  -1.064046   0.249102)
  13:       419.15    8.596055  (  1.924281   0.060300   2.211235)
  14:       453.18   24.968452  (  4.348290   0.955266   2.268986)
  15:       570.27    6.223694  (  2.222405  -0.279793  -1.098329)
  16:       778.19    2.577429  (  0.562657  -1.321029   0.718142)
  17:       811.64    5.492869  ( -0.600931   0.203923  -2.256140)
  18:       858.57   27.756533  (  3.783391  -3.234439   1.726526)
  19:       907.29    7.502306  ( -0.436808   0.849039  -2.567224)
  20:       923.25   40.889449  (  5.484698   0.446803   3.256978)
  21:       953.42   34.854128  ( -3.155339   1.525669   4.750821)
  22:       984.82    6.920996  ( -1.744042  -1.341882  -1.441758)
  23:      1046.46    9.478162  ( -1.833011  -0.713177   2.368462)
  24:      1067.33    9.193698  (  3.003262  -0.120619  -0.399456)
  25:      1084.59   17.727059  (  3.750922   1.573731  -1.086744)
  26:      1119.92   10.108783  ( -2.816584  -0.275031   1.449136)
  27:      1160.45    5.488966  ( -1.589676  -1.335666  -1.085307)
  28:      1183.16    0.129977  (  0.137402  -0.163778  -0.290302)
  29:      1196.88    0.363035  (  0.028006  -0.601637   0.016843)
  30:      1267.26   13.826484  (  2.731396  -0.253883   2.510279)
  31:      1290.43    1.936919  ( -0.694934   0.612601  -1.038607)
  32:      1336.84    5.580091  ( -0.708911   1.912577   1.191463)
  33:      1341.38   11.460603  (  3.302142  -0.471226  -0.578281)
  34:      1366.58    2.911383  (  1.205629   0.378032  -1.146706)
  35:      1408.05    1.531464  (  0.678428  -1.029070  -0.110525)
  36:      1415.09    1.959742  ( -0.170024   0.018923   1.389416)
  37:      1478.23  216.074118  ( -8.706594   0.661101 -11.825070)
  38:      1479.27    1.731741  (  0.812173   0.962232  -0.382394)
  39:      1488.63   16.592738  (  3.136857   2.411978  -0.967071)
  40:      1493.69   13.364555  ( -0.136205   3.408292   1.315124)
  41:      1494.71   20.133350  ( -4.070005  -0.599792  -1.791272)
  42:      1512.17    9.028249  ( -2.708342  -0.830897   1.001370)
  43:      1645.95   38.154614  ( -2.985216   5.071542   1.876849)
  44:      1669.49   37.539443  (  4.631015   3.663822  -1.633875)
  45:      3056.22    6.785998  (  0.070377  -0.289970   2.587849)
  46:      3065.40   12.186815  ( -0.229234  -1.136328   3.292875)
  47:      3101.84    0.102445  (  0.298302   0.096886  -0.063830)
  48:      3112.10    0.696745  (  0.735977   0.276844  -0.280073)
  49:      3126.15    5.922567  (  1.538438  -0.517134  -1.813380)
  50:      3134.09   20.634284  (  1.239559  -4.364775   0.215670)
  51:      3142.56    7.690851  (  0.133033   2.687804   0.669971)
  52:      3148.84    7.896802  (  2.359059   1.318888  -0.769529)
  53:      3178.37    0.068567  (  0.052904  -0.255390  -0.023318)
  54:      3337.39   76.989378  ( -6.295866   1.616033   5.894055)
  55:      3473.02  122.033584  ( 10.226541  -4.165503   0.316265)
  56:      3524.75  106.344779  (  5.190034   8.870030  -0.854926)

--------------------------
THERMOCHEMISTRY AT 298.15K
--------------------------

Temperature         ... 298.15 K
Pressure            ... 1.00 atm
Total Mass          ... 102.16 AMU

Throughout the following assumptions are being made:
  (1) The electronic state is orbitally nondegenerate
  (2) There are no thermally accessible electronically excited states
  (3) Hindered rotations indicated by low frequency modes) are not
      treated as such but are treated as vibrations and this may
      case some error
  (4) All equations used are the standard statistical mechanics
      equations for an ideal gas
  (5) All vibrations are strinctly harmonic

------------
INNER ENERGY
------------

The inner energy is: U= E(el) + E(ZPE) + E(vib) + E(rot) + E(trans)
    E(el)   - is the total energy from the electronic structure calculation
              = E(kin-el) + E(nuc-el) + E(el-el) + E(nuc-nuc)
    E(ZPE)  - the the zero temperature vibrational energy from the frequency calculation
    E(vib)  - the the finite temperature correction to E(ZPE) due to population
              of excietd vibrational states
    E(rot)  - is the rotational thermal energy
    E(trans)- is the translational thermal energy

Summary of contributions to the inner energy U:
Electronic energy                ...   -327.19803337 Eh
Zero point energy                ...      0.17535413 Eh     110.04 kcal/mol
Thermal vibrational correction   ...      0.00547586 Eh       3.44 kcal/mol
Thermal rotational correction    ...      0.00141627 Eh       0.89 kcal/mol
Thermal translational correction ...      0.00141627 Eh       0.89 kcal/mol
-----------------------------------------------------------------------
Total thermal energy                   -327.01437084 Eh

Summary of corrections to the electronic energy:
(perhaps to be used in another calculation)
Total thermal correction                  0.00830840 Eh       5.21 kcal/mol
Non-thermal (ZPE) correction              0.17535413 Eh     110.04 kcal/mol
-----------------------------------------------------------------------
Total correction                          0.18366253 Eh     115.25 kcal/mol

--------
ENTHALPY
--------

The enthalpy is H = U + kB*T
                kB is Boltzmann's constant
Total free energy                 ...   -327.01437084 Eh
Thermal Enthalpy correction       ...      0.00094421 Eh       0.59 kcal/mol
-----------------------------------------------------------------------
Total Enthalpy                    ...   -327.01342663 Eh

-------
ENTROPY
-------

The entropy contributions are T*S = T*(S(el)+S(vib)+S(rot)+S(trans)
     S(el)   - electronic entropy
     S(vib)  - vibrational entropy
     S(rot)  - rotational entropy
     S(trans)- translational entropy
The entropies will be listed as mutliplied by the temperature to get
units of energy

Electronic entropy                ...      0.00000000 Eh      0.00 kcal/mol
Vibrational entropy               ...      0.00997305 Eh      6.26 kcal/mol
Rotational entropy                ...      0.01216125 Eh      7.63 kcal/mol
Translational entropy             ...      0.01890147 Eh     11.86 kcal/mol
-----------------------------------------------------------------------
Final entropy term                ...      0.04103577 Eh     25.75 kcal/mol

CAUTION: The rotational entropy is not quite correctly treated here
         because it includes a symmetry number that is not yet correctly
         implemented in ORCA!
For a nonlinear molecule the correct rotational entropy is:
    S(rot) = R*(ln(qrot/sn)+1.5)
    R    = 8.31441 J/mol/K = 1.987191683e-3 kcal/mol/K
    qrot = 262713.8969687
    sn is the rotational symmetry number. We have assumed 3 here
       if it is different for your molecule then you should correct
       the printed rotational entropy by manually evaluating the equation
       as given above

For convenience we print out the resulting values for sn=1 - 12:
 sn= 1  qrot/sn=  262713.8970 T*S(rot)=     8.28 kcal/mol T*S(tot)=    26.40 kcal/mol
 sn= 2  qrot/sn=  131356.9485 T*S(rot)=     7.87 kcal/mol T*S(tot)=    25.99 kcal/mol
 sn= 3  qrot/sn=   87571.2990 T*S(rot)=     7.63 kcal/mol T*S(tot)=    25.75 kcal/mol
 sn= 4  qrot/sn=   65678.4742 T*S(rot)=     7.46 kcal/mol T*S(tot)=    25.58 kcal/mol
 sn= 5  qrot/sn=   52542.7794 T*S(rot)=     7.33 kcal/mol T*S(tot)=    25.45 kcal/mol
 sn= 6  qrot/sn=   43785.6495 T*S(rot)=     7.22 kcal/mol T*S(tot)=    25.34 kcal/mol
 sn= 7  qrot/sn=   37530.5567 T*S(rot)=     7.13 kcal/mol T*S(tot)=    25.25 kcal/mol
 sn= 8  qrot/sn=   32839.2371 T*S(rot)=     7.05 kcal/mol T*S(tot)=    25.17 kcal/mol
 sn= 9  qrot/sn=   29190.4330 T*S(rot)=     6.98 kcal/mol T*S(tot)=    25.10 kcal/mol
 sn=10  qrot/sn=   26271.3897 T*S(rot)=     6.92 kcal/mol T*S(tot)=    25.04 kcal/mol
 sn=11  qrot/sn=   23883.0815 T*S(rot)=     6.86 kcal/mol T*S(tot)=    24.98 kcal/mol
 sn=12  qrot/sn=   21892.8247 T*S(rot)=     6.81 kcal/mol T*S(tot)=    24.93 kcal/mol

-------------------
GIBBS FREE ENTHALPY
-------------------

The Gibbs free enthalpy is G = H - T*S

Total enthalpy                    ...   -327.01342663 Eh
Total entropy correction          ...     -0.04103577 Eh    -25.75 kcal/mol
-----------------------------------------------------------------------
Final Gibbs free enthalpy         ...   -327.05446240 Eh

For completeness - the Gibbs free enthalpy minus the electronic energy
G-E(el)                           ...      0.14357097 Eh     90.09 kcal/mol

                             ****ORCA TERMINATED NORMALLY****
TOTAL RUN TIME: 0 days 0 hours 32 minutes 9 seconds 309 msec
