                         Program Version 3.0.3 - RELEASE   -
|  1> ! NORI PBE0 def2-TZVP UseSym TightOPT Freq TightSCF Grid3 FinalGrid5 XYZFile
|  2> % pal
|  3>     nprocs 8
|  4> end
|  5> %method
|  6>     SymThresh 5.0e-2
|  7> end
|  8> % geom
|  9>     MaxIter 10
| 10> end
| 11> % maxcore 2000
| 12> % output
| 13>     printlevel mini
| 14>     print[ P_Basis ] 0
| 15>     print[ P_SCFInfo ] 1
| 16>     print[ P_SCFIterInfo ] 1
| 17>     print[ P_OrbEn ] 0
| 18>     print[ P_Cartesian ] 0
| 19> end
| 20> % elprop
| 21>     Dipole false
| 22> end
| 23> *xyz 1 1
| 24>  C        3.0418856117    -1.2557109125     0.5207995199
| 25>  C        2.4596869664    -0.0164468187    -0.1396692533
| 26>  C        3.3874880444     1.1633070765    -0.0329141821
| 27>  O        2.8652052803     2.3801265070    -0.5841815946
| 28>  C        3.1150485289     3.1145686906     0.6094380647
| 29>  C        3.5326304884     1.8397256470     1.3383224462
| 30>  N        4.9201967266     1.8431211390     1.9056511994
| 31>  H        2.3592236298    -2.1004298780     0.4258390040
| 32>  H        3.2090334433    -1.1102951643     1.5944778938
| 33>  H        3.9890200678    -1.5508228123     0.0616605276
| 34>  H        2.2765406049    -0.1974221513    -1.2020341141
| 35>  H        1.4940985401     0.2490382202     0.3014512583
| 36>  H        4.3640458376     0.9200963435    -0.4836118338
| 37>  H        2.2231606791     3.6121025412     0.9946271744
| 38>  H        3.9148668661     3.8586319559     0.4869584873
| 39>  H        2.8673549740     1.4802575813     2.1218626294
| 40>  H        5.5945321267     2.1712976911     1.2092071011
| 41>  H        5.2032895770     0.9019417336     2.1908997901
| 42>  H        4.9951220068     2.4534626100     2.7235458818
| 43> *
| 44>
| 45>                          ****END OF INPUT****
 Total Charge           Charge          ....    1
 Multiplicity           Mult            ....    1
 Number of Electrons    NEL             ....   56
FINAL SINGLE POINT ENERGY      -327.188236948292
FINAL SINGLE POINT ENERGY      -327.188238396897

CARTESIAN COORDINATES (ANGSTROEM)
---------------------------------
  C     -1.931665    0.680109   -1.567472
  C     -1.714595    0.274056   -0.119092
  C     -0.277598    0.428326    0.299006
  O     -0.001292   -0.002170    1.638946
  C      1.065364   -0.849583    1.225489
  C      0.741653   -0.585169   -0.242990
  N      1.857339    0.000376   -1.054771
  H     -2.979880    0.570855   -1.845368
  H     -1.360261    0.052893   -2.261444
  H     -1.657198    1.724278   -1.740719
  H     -2.319924    0.893417    0.548286
  H     -2.024917   -0.761364    0.051080
  H      0.050712    1.470840    0.149990
  H      0.941932   -1.880433    1.562847
  H      2.047604   -0.481317    1.552763
  H      0.331480   -1.416484   -0.814653
  H      2.283012    0.791981   -0.565338
  H      1.516263    0.341257   -1.957502
  H      2.594551   -0.685287   -1.237940

FINAL SINGLE POINT ENERGY      -327.188239131175
                    ***********************HURRAY********************
 Multiplicity           Mult            ....    1
 Number of Electrons    NEL             ....   56
 Basis Dimension        Dim             ....  289
FINAL SINGLE POINT ENERGY      -327.188239327753

VIBRATIONAL FREQUENCIES
-----------------------

   0:         0.00 cm**-1
   1:         0.00 cm**-1
   2:         0.00 cm**-1
   3:         0.00 cm**-1
   4:         0.00 cm**-1
   5:         0.00 cm**-1
   6:        13.65 cm**-1
   7:       103.14 cm**-1
   8:       177.90 cm**-1
   9:       209.78 cm**-1
  10:       222.49 cm**-1
  11:       291.13 cm**-1
  12:       341.54 cm**-1
  13:       423.50 cm**-1
  14:       480.08 cm**-1
  15:       707.61 cm**-1
  16:       769.69 cm**-1
  17:       846.00 cm**-1
  18:       906.49 cm**-1
  19:       933.83 cm**-1
  20:       941.16 cm**-1
  21:      1008.79 cm**-1
  22:      1023.17 cm**-1
  23:      1056.10 cm**-1
  24:      1086.77 cm**-1
  25:      1106.18 cm**-1
  26:      1145.26 cm**-1
  27:      1153.92 cm**-1
  28:      1180.47 cm**-1
  29:      1207.62 cm**-1
  30:      1270.40 cm**-1
  31:      1282.00 cm**-1
  32:      1284.59 cm**-1
  33:      1337.01 cm**-1
  34:      1361.58 cm**-1
  35:      1392.74 cm**-1
  36:      1410.70 cm**-1
  37:      1430.80 cm**-1
  38:      1480.11 cm**-1
  39:      1495.29 cm**-1
  40:      1496.34 cm**-1
  41:      1503.96 cm**-1
  42:      1519.84 cm**-1
  43:      1653.20 cm**-1
  44:      1657.31 cm**-1
  45:      2972.97 cm**-1
  46:      3017.99 cm**-1
  47:      3033.48 cm**-1
  48:      3065.73 cm**-1
  49:      3095.81 cm**-1
  50:      3116.54 cm**-1
  51:      3119.85 cm**-1
  52:      3144.21 cm**-1
  53:      3147.69 cm**-1
  54:      3406.38 cm**-1
  55:      3489.02 cm**-1
  56:      3491.35 cm**-1

IR SPECTRUM
-----------

 Mode    freq (cm**-1)   T**2         TX         TY         TZ
-------------------------------------------------------------------
   7:       103.14    5.905217  ( -1.781508   1.469166  -0.756965)
   8:       177.90    8.449657  (  2.634749   0.669768   1.029158)
   9:       209.78    1.903311  (  1.370613   0.068919   0.141355)
  10:       222.49    2.927829  ( -1.670272  -0.223793   0.296541)
  11:       291.13    5.675967  (  1.803866  -0.651634  -1.413297)
  12:       341.54    3.178473  ( -0.197860   0.494606  -1.701379)
  13:       423.50    4.222088  (  1.993037   0.018625   0.499543)
  14:       480.08    6.133921  (  0.734495  -0.523684  -2.306554)
  15:       707.61    1.864606  (  0.274280  -0.498691   1.241243)
  16:       769.69    0.961250  (  0.307075   0.487822  -0.793086)
  17:       846.00   12.603400  ( -1.482073   2.566157   1.954917)
  18:       906.49   10.937366  (  0.826687  -1.681121   2.725397)
  19:       933.83   15.212038  (  1.023637   0.949402   3.641818)
  20:       941.16   12.811926  ( -3.389916   0.195172   1.132388)
  21:      1008.79    5.764775  ( -0.260743   1.210135   2.057270)
  22:      1023.17    7.037262  ( -0.645392   2.572396   0.059271)
  23:      1056.10   10.528534  ( -1.128247   2.107897  -2.193710)
  24:      1086.77  100.817534  ( -7.697361   5.396816  -3.527400)
  25:      1106.18   13.143624  ( -0.008062  -0.554266   3.582785)
  26:      1145.26   16.121276  ( -3.148932   2.123944  -1.301677)
  27:      1153.92    4.405501  ( -0.452134  -0.456576   1.998153)
  28:      1180.47   11.181615  (  2.133177  -1.770618   1.869782)
  29:      1207.62    0.847384  ( -0.869442  -0.086417  -0.289804)
  30:      1270.40    0.516847  (  0.630463  -0.231598  -0.256370)
  31:      1282.00    0.479672  ( -0.142211   0.613473   0.288269)
  32:      1284.59    3.757006  ( -1.251828   1.115222  -0.972735)
  33:      1337.01    1.531555  (  0.968111  -0.217987  -0.739458)
  34:      1361.58    6.618818  ( -1.545405   0.469710   2.002477)
  35:      1392.74    3.322942  (  1.584487  -0.900162  -0.045297)
  36:      1410.70    2.397096  (  0.707931  -0.680821   1.196835)
  37:      1430.80   13.635636  ( -0.308251  -0.134445  -3.677301)
  38:      1480.11    3.907012  ( -0.413524   0.834649  -1.743379)
  39:      1495.29   34.396704  (  3.472670   4.570490  -1.203283)
  40:      1496.34   18.423664  ( -3.971074   0.636015   1.499907)
  41:      1503.96   89.470969  (  6.458128   3.303214  -6.070612)
  42:      1519.84   43.232962  (  6.027242   1.864580  -1.851663)
  43:      1653.20   37.170906  ( -4.112929   2.502483  -3.740629)
  44:      1657.31   44.644085  (  0.362458   5.037301   4.374735)
  45:      2972.97   33.761682  ( -1.493466  -5.038189   2.479495)
  46:      3017.99   37.333090  (  6.070016  -0.205086   0.667785)
  47:      3033.48   25.796150  ( -3.187760   0.617229   3.905556)
  48:      3065.73    9.021431  (  0.876697   1.826380  -2.217469)
  49:      3095.81    8.473699  (  1.116256  -2.664886  -0.355036)
  50:      3116.54    4.890617  (  0.205510  -2.103007   0.652491)
  51:      3119.85   16.209311  (  0.860922  -3.867866  -0.712558)
  52:      3144.21    0.819606  (  0.063950   0.710760   0.557078)
  53:      3147.69    3.992333  ( -1.752525  -0.953587   0.107988)
  54:      3406.38   37.266356  ( -4.652659  -1.795552   3.520670)
  55:      3489.02   88.038119  ( -2.633947  -4.939713  -7.529919)
  56:      3491.35   97.819939  (  6.278820  -7.206901   2.541050)

--------------------------
THERMOCHEMISTRY AT 298.15K
--------------------------

Temperature         ... 298.15 K
Pressure            ... 1.00 atm
Total Mass          ... 102.16 AMU

Throughout the following assumptions are being made:
  (1) The electronic state is orbitally nondegenerate
  (2) There are no thermally accessible electronically excited states
  (3) Hindered rotations indicated by low frequency modes) are not
      treated as such but are treated as vibrations and this may
      case some error
  (4) All equations used are the standard statistical mechanics
      equations for an ideal gas
  (5) All vibrations are strinctly harmonic

------------
INNER ENERGY
------------

The inner energy is: U= E(el) + E(ZPE) + E(vib) + E(rot) + E(trans)
    E(el)   - is the total energy from the electronic structure calculation
              = E(kin-el) + E(nuc-el) + E(el-el) + E(nuc-nuc)
    E(ZPE)  - the the zero temperature vibrational energy from the frequency calculation
    E(vib)  - the the finite temperature correction to E(ZPE) due to population
              of excietd vibrational states
    E(rot)  - is the rotational thermal energy
    E(trans)- is the translational thermal energy

Summary of contributions to the inner energy U:
Electronic energy                ...   -327.18823933 Eh
Zero point energy                ...      0.17541784 Eh     110.08 kcal/mol
Thermal vibrational correction   ...      0.00446619 Eh       2.80 kcal/mol
Thermal rotational correction    ...      0.00141627 Eh       0.89 kcal/mol
Thermal translational correction ...      0.00141627 Eh       0.89 kcal/mol
-----------------------------------------------------------------------
Total thermal energy                   -327.00552276 Eh

Summary of corrections to the electronic energy:
(perhaps to be used in another calculation)
Total thermal correction                  0.00729873 Eh       4.58 kcal/mol
Non-thermal (ZPE) correction              0.17541784 Eh     110.08 kcal/mol
-----------------------------------------------------------------------
Total correction                          0.18271657 Eh     114.66 kcal/mol

--------
ENTHALPY
--------

The enthalpy is H = U + kB*T
                kB is Boltzmann's constant
Total free energy                 ...   -327.00552276 Eh
Thermal Enthalpy correction       ...      0.00094421 Eh       0.59 kcal/mol
-----------------------------------------------------------------------
Total Enthalpy                    ...   -327.00457855 Eh

-------
ENTROPY
-------

The entropy contributions are T*S = T*(S(el)+S(vib)+S(rot)+S(trans)
     S(el)   - electronic entropy
     S(vib)  - vibrational entropy
     S(rot)  - rotational entropy
     S(trans)- translational entropy
The entropies will be listed as mutliplied by the temperature to get
units of energy

Electronic entropy                ...      0.00000000 Eh      0.00 kcal/mol
Vibrational entropy               ...      0.00755069 Eh      4.74 kcal/mol
Rotational entropy                ...      0.01213802 Eh      7.62 kcal/mol
Translational entropy             ...      0.01890147 Eh     11.86 kcal/mol
-----------------------------------------------------------------------
Final entropy term                ...      0.03859018 Eh     24.22 kcal/mol

CAUTION: The rotational entropy is not quite correctly treated here
         because it includes a symmetry number that is not yet correctly
         implemented in ORCA!
For a nonlinear molecule the correct rotational entropy is:
    S(rot) = R*(ln(qrot/sn)+1.5)
    R    = 8.31441 J/mol/K = 1.987191683e-3 kcal/mol/K
    qrot = 256330.1718171
    sn is the rotational symmetry number. We have assumed 3 here
       if it is different for your molecule then you should correct
       the printed rotational entropy by manually evaluating the equation
       as given above

For convenience we print out the resulting values for sn=1 - 12:
 sn= 1  qrot/sn=  256330.1718 T*S(rot)=     8.27 kcal/mol T*S(tot)=    24.87 kcal/mol
 sn= 2  qrot/sn=  128165.0859 T*S(rot)=     7.86 kcal/mol T*S(tot)=    24.46 kcal/mol
 sn= 3  qrot/sn=   85443.3906 T*S(rot)=     7.62 kcal/mol T*S(tot)=    24.22 kcal/mol
 sn= 4  qrot/sn=   64082.5430 T*S(rot)=     7.45 kcal/mol T*S(tot)=    24.05 kcal/mol
 sn= 5  qrot/sn=   51266.0344 T*S(rot)=     7.31 kcal/mol T*S(tot)=    23.91 kcal/mol
 sn= 6  qrot/sn=   42721.6953 T*S(rot)=     7.21 kcal/mol T*S(tot)=    23.80 kcal/mol
 sn= 7  qrot/sn=   36618.5960 T*S(rot)=     7.11 kcal/mol T*S(tot)=    23.71 kcal/mol
 sn= 8  qrot/sn=   32041.2715 T*S(rot)=     7.04 kcal/mol T*S(tot)=    23.63 kcal/mol
 sn= 9  qrot/sn=   28481.1302 T*S(rot)=     6.97 kcal/mol T*S(tot)=    23.56 kcal/mol
 sn=10  qrot/sn=   25633.0172 T*S(rot)=     6.90 kcal/mol T*S(tot)=    23.50 kcal/mol
 sn=11  qrot/sn=   23302.7429 T*S(rot)=     6.85 kcal/mol T*S(tot)=    23.45 kcal/mol
 sn=12  qrot/sn=   21360.8477 T*S(rot)=     6.80 kcal/mol T*S(tot)=    23.39 kcal/mol

-------------------
GIBBS FREE ENTHALPY
-------------------

The Gibbs free enthalpy is G = H - T*S

Total enthalpy                    ...   -327.00457855 Eh
Total entropy correction          ...     -0.03859018 Eh    -24.22 kcal/mol
-----------------------------------------------------------------------
Final Gibbs free enthalpy         ...   -327.04316872 Eh

For completeness - the Gibbs free enthalpy minus the electronic energy
G-E(el)                           ...      0.14507060 Eh     91.03 kcal/mol

                             ****ORCA TERMINATED NORMALLY****
TOTAL RUN TIME: 0 days 0 hours 35 minutes 48 seconds 432 msec
