                         Program Version 3.0.3 - RELEASE   -
|  1> ! NORI PBE0 def2-TZVP UseSym TightOPT Freq TightSCF Grid3 FinalGrid5 XYZFile
|  2> % pal
|  3>     nprocs 8
|  4> end
|  5> %method
|  6>     SymThresh 5.0e-2
|  7> end
|  8> % geom
|  9>     MaxIter 10
| 10> end
| 11> % maxcore 2000
| 12> % output
| 13>     printlevel mini
| 14>     print[ P_Basis ] 0
| 15>     print[ P_SCFInfo ] 1
| 16>     print[ P_SCFIterInfo ] 1
| 17>     print[ P_OrbEn ] 0
| 18>     print[ P_Cartesian ] 0
| 19> end
| 20> % elprop
| 21>     Dipole false
| 22> end
| 23> *xyz 1 1
| 24>  C        2.6003518769    -0.3927323160    -1.5653695533
| 25>  C        2.4972765652     0.0142333160    -0.1062020238
| 26>  C        3.0308110815    -0.9771861949     0.8897750984
| 27>  O        2.9604594669    -0.5678529212     2.2306918830
| 28>  C        2.9161398668    -2.4538409227     0.7586719803
| 29>  C        4.2696449247    -1.8182906533     0.6449282579
| 30>  N        5.1354359071    -1.9045570059     1.8339704912
| 31>  H        2.1958367474     0.3989087862    -2.1963278436
| 32>  H        2.0265253140    -1.2963198035    -1.7790814619
| 33>  H        3.6342090465    -0.5526405578    -1.8803289644
| 34>  H        1.4485486433     0.1939372718     0.1526040197
| 35>  H        3.0283609871     0.9624322699     0.0465545787
| 36>  H        2.8427611462     0.3878852701     2.2687885225
| 37>  H        2.6759215322    -3.0028833287     1.6634691279
| 38>  H        2.5119367273    -2.8778515831    -0.1507987538
| 39>  H        4.8146913736    -1.8225258040    -0.2883826112
| 40>  H        4.6063213758    -1.4257875069     2.5900501127
| 41>  H        6.0178516320    -1.4100895719     1.6979110042
| 42>  H        5.3444557855    -2.8642887442     2.1127461356
| 43> *
| 44>
| 45>                          ****END OF INPUT****
 Total Charge           Charge          ....    1
 Multiplicity           Mult            ....    1
 Number of Electrons    NEL             ....   56
FINAL SINGLE POINT ENERGY      -327.206746124162
FINAL SINGLE POINT ENERGY      -327.206748100630
FINAL SINGLE POINT ENERGY      -327.206749167842
FINAL SINGLE POINT ENERGY      -327.206749566711

CARTESIAN COORDINATES (ANGSTROEM)
---------------------------------
  C     -1.803300    0.694859   -1.617544
  C     -1.505358    0.711119   -0.128328
  C     -0.288326   -0.058520    0.302520
  O     -0.000277    0.002026    1.674965
  C      0.148208   -1.347834   -0.295658
  C      0.986335   -0.124181   -0.517802
  N      2.197223   -0.002060    0.312721
  H     -2.700758    1.280395   -1.817238
  H     -1.991707   -0.315216   -1.986066
  H     -0.997239    1.136802   -2.207821
  H     -2.356305    0.296685    0.422220
  H     -1.385355    1.748692    0.208371
  H     -0.452770    0.758306    2.064850
  H      0.509599   -2.103876    0.393478
  H     -0.370416   -1.733434   -1.163116
  H      1.089302    0.315761   -1.499569
  H      1.854600    0.003096    1.294206
  H      2.688551    0.875865    0.140193
  H      2.857087   -0.770345    0.180956

FINAL SINGLE POINT ENERGY      -327.206749872118
                    ***********************HURRAY********************
 Multiplicity           Mult            ....    1
 Number of Electrons    NEL             ....   56
 Basis Dimension        Dim             ....  289
FINAL SINGLE POINT ENERGY      -327.206749934133

VIBRATIONAL FREQUENCIES
-----------------------

   0:         0.00 cm**-1
   1:         0.00 cm**-1
   2:         0.00 cm**-1
   3:         0.00 cm**-1
   4:         0.00 cm**-1
   5:         0.00 cm**-1
   6:        78.38 cm**-1
   7:       193.03 cm**-1
   8:       209.18 cm**-1
   9:       256.47 cm**-1
  10:       261.99 cm**-1
  11:       315.60 cm**-1
  12:       353.97 cm**-1
  13:       412.82 cm**-1
  14:       440.12 cm**-1
  15:       470.47 cm**-1
  16:       583.23 cm**-1
  17:       699.56 cm**-1
  18:       765.10 cm**-1
  19:       829.22 cm**-1
  20:       862.96 cm**-1
  21:       925.84 cm**-1
  22:       955.61 cm**-1
  23:       997.45 cm**-1
  24:      1021.26 cm**-1
  25:      1066.96 cm**-1
  26:      1086.65 cm**-1
  27:      1114.30 cm**-1
  28:      1137.69 cm**-1
  29:      1163.55 cm**-1
  30:      1186.43 cm**-1
  31:      1203.60 cm**-1
  32:      1251.44 cm**-1
  33:      1310.99 cm**-1
  34:      1351.31 cm**-1
  35:      1388.64 cm**-1
  36:      1412.24 cm**-1
  37:      1429.93 cm**-1
  38:      1478.37 cm**-1
  39:      1479.45 cm**-1
  40:      1497.86 cm**-1
  41:      1500.13 cm**-1
  42:      1517.83 cm**-1
  43:      1645.86 cm**-1
  44:      1666.05 cm**-1
  45:      3032.44 cm**-1
  46:      3062.83 cm**-1
  47:      3083.56 cm**-1
  48:      3136.16 cm**-1
  49:      3150.67 cm**-1
  50:      3155.82 cm**-1
  51:      3200.79 cm**-1
  52:      3231.44 cm**-1
  53:      3253.82 cm**-1
  54:      3461.36 cm**-1
  55:      3515.70 cm**-1
  56:      3831.42 cm**-1

IR SPECTRUM
-----------

 Mode    freq (cm**-1)   T**2         TX         TY         TZ
-------------------------------------------------------------------
   6:        78.38    1.888025  ( -0.394969   0.267179  -1.288658)
   7:       193.03    5.772397  (  0.755682  -2.142779   0.780922)
   8:       209.18   11.892442  ( -3.074048  -0.051450   1.562057)
   9:       256.47   33.807137  (  5.211453   2.081845  -1.521123)
  10:       261.99   10.000635  ( -2.925843  -0.099024   1.195940)
  11:       315.60   21.591839  ( -4.004458   1.060295   2.105215)
  12:       353.97   43.450130  (  4.679511   4.334487  -1.662686)
  13:       412.82    6.877019  ( -1.415104  -1.370558  -1.730916)
  14:       440.12   11.487728  (  3.138780   0.143785  -1.270873)
  15:       470.47    7.378993  (  1.155114   1.764312  -1.712281)
  16:       583.23    8.312833  (  2.665458  -0.191252  -1.082399)
  17:       699.56    3.900705  ( -1.439076  -0.541753  -1.239463)
  18:       765.10    7.291241  (  1.739895   0.430634  -2.019545)
  19:       829.22    5.853183  (  2.083498  -0.240247  -1.206027)
  20:       862.96   20.236846  ( -2.816687  -3.064420   1.706590)
  21:       925.84    7.874363  ( -2.244632  -1.187350  -1.194233)
  22:       955.61   14.278167  (  0.978781   2.706563   2.448402)
  23:       997.45    4.325695  (  1.889915   0.513334   0.700289)
  24:      1021.26   60.940085  (  5.165785  -2.053856  -5.480550)
  25:      1066.96    5.175605  ( -0.576825   0.448880  -2.154387)
  26:      1086.65    3.053030  (  1.466987  -0.769105  -0.556288)
  27:      1114.30   23.608549  ( -1.582505   0.641824   4.548878)
  28:      1137.69    4.951427  (  2.198836   0.197033  -0.278793)
  29:      1163.55    9.522587  ( -2.229138   1.771590  -1.189538)
  30:      1186.43   85.401056  (  0.574221  -0.419836   9.213852)
  31:      1203.60    8.408493  (  0.383704  -1.825408   2.220169)
  32:      1251.44   64.318653  ( -2.525144  -0.348667  -7.603994)
  33:      1310.99    1.146642  ( -1.015348  -0.093734   0.326993)
  34:      1351.31   14.516837  (  3.092904   0.130882   2.221182)
  35:      1388.64   12.107095  ( -0.034387   0.310471   3.465475)
  36:      1412.24    2.404023  (  0.590818   1.225054   0.744446)
  37:      1429.93   18.880060  (  1.464537   2.002636   3.567162)
  38:      1478.37    7.793758  ( -2.471877   1.294523  -0.088273)
  39:      1479.45  157.497397  ( 11.048318   0.719210   5.908874)
  40:      1497.86    8.942096  ( -1.204586   2.709462  -0.387151)
  41:      1500.13   10.251628  ( -2.098229  -2.414740   0.134502)
  42:      1517.83   37.628792  ( -3.209669   4.424292  -2.784323)
  43:      1645.86   27.397225  (  4.008663   1.509953  -3.007970)
  44:      1666.05   29.503198  ( -0.800107   5.050074   1.832971)
  45:      3032.44   14.467968  (  0.356054  -2.516426  -2.829981)
  46:      3062.83   11.050637  ( -1.143964   0.712116   3.038893)
  47:      3083.56    2.430565  (  0.983710   0.978235  -0.711292)
  48:      3136.16   15.576429  (  2.591680   2.935214  -0.494107)
  49:      3150.67    5.239702  (  1.398967  -1.772518  -0.375199)
  50:      3155.82    1.190351  (  0.580744   0.743482   0.548016)
  51:      3200.79  144.356038  (  7.621524  -0.551520  -9.271690)
  52:      3231.44   12.703249  (  1.955476  -0.190209  -2.973749)
  53:      3253.82    2.534765  (  0.281042  -0.227533   1.550487)
  54:      3461.36   92.132156  ( -9.045034   0.420373   3.184777)
  55:      3515.70   91.264000  (  0.553040   9.518581  -0.595614)
  56:      3831.42   93.686995  (  4.340252  -6.115076  -6.120054)

--------------------------
THERMOCHEMISTRY AT 298.15K
--------------------------

Temperature         ... 298.15 K
Pressure            ... 1.00 atm
Total Mass          ... 102.16 AMU

Throughout the following assumptions are being made:
  (1) The electronic state is orbitally nondegenerate
  (2) There are no thermally accessible electronically excited states
  (3) Hindered rotations indicated by low frequency modes) are not
      treated as such but are treated as vibrations and this may
      case some error
  (4) All equations used are the standard statistical mechanics
      equations for an ideal gas
  (5) All vibrations are strinctly harmonic

------------
INNER ENERGY
------------

The inner energy is: U= E(el) + E(ZPE) + E(vib) + E(rot) + E(trans)
    E(el)   - is the total energy from the electronic structure calculation
              = E(kin-el) + E(nuc-el) + E(el-el) + E(nuc-nuc)
    E(ZPE)  - the the zero temperature vibrational energy from the frequency calculation
    E(vib)  - the the finite temperature correction to E(ZPE) due to population
              of excietd vibrational states
    E(rot)  - is the rotational thermal energy
    E(trans)- is the translational thermal energy

Summary of contributions to the inner energy U:
Electronic energy                ...   -327.20674993 Eh
Zero point energy                ...      0.17459318 Eh     109.56 kcal/mol
Thermal vibrational correction   ...      0.00532298 Eh       3.34 kcal/mol
Thermal rotational correction    ...      0.00141627 Eh       0.89 kcal/mol
Thermal translational correction ...      0.00141627 Eh       0.89 kcal/mol
-----------------------------------------------------------------------
Total thermal energy                   -327.02400123 Eh

Summary of corrections to the electronic energy:
(perhaps to be used in another calculation)
Total thermal correction                  0.00815552 Eh       5.12 kcal/mol
Non-thermal (ZPE) correction              0.17459318 Eh     109.56 kcal/mol
-----------------------------------------------------------------------
Total correction                          0.18274870 Eh     114.68 kcal/mol

--------
ENTHALPY
--------

The enthalpy is H = U + kB*T
                kB is Boltzmann's constant
Total free energy                 ...   -327.02400123 Eh
Thermal Enthalpy correction       ...      0.00094421 Eh       0.59 kcal/mol
-----------------------------------------------------------------------
Total Enthalpy                    ...   -327.02305702 Eh

-------
ENTROPY
-------

The entropy contributions are T*S = T*(S(el)+S(vib)+S(rot)+S(trans)
     S(el)   - electronic entropy
     S(vib)  - vibrational entropy
     S(rot)  - rotational entropy
     S(trans)- translational entropy
The entropies will be listed as mutliplied by the temperature to get
units of energy

Electronic entropy                ...      0.00000000 Eh      0.00 kcal/mol
Vibrational entropy               ...      0.00895705 Eh      5.62 kcal/mol
Rotational entropy                ...      0.01206381 Eh      7.57 kcal/mol
Translational entropy             ...      0.01890147 Eh     11.86 kcal/mol
-----------------------------------------------------------------------
Final entropy term                ...      0.03992232 Eh     25.05 kcal/mol

CAUTION: The rotational entropy is not quite correctly treated here
         because it includes a symmetry number that is not yet correctly
         implemented in ORCA!
For a nonlinear molecule the correct rotational entropy is:
    S(rot) = R*(ln(qrot/sn)+1.5)
    R    = 8.31441 J/mol/K = 1.987191683e-3 kcal/mol/K
    qrot = 236953.6170491
    sn is the rotational symmetry number. We have assumed 3 here
       if it is different for your molecule then you should correct
       the printed rotational entropy by manually evaluating the equation
       as given above

For convenience we print out the resulting values for sn=1 - 12:
 sn= 1  qrot/sn=  236953.6170 T*S(rot)=     8.22 kcal/mol T*S(tot)=    25.70 kcal/mol
 sn= 2  qrot/sn=  118476.8085 T*S(rot)=     7.81 kcal/mol T*S(tot)=    25.29 kcal/mol
 sn= 3  qrot/sn=   78984.5390 T*S(rot)=     7.57 kcal/mol T*S(tot)=    25.05 kcal/mol
 sn= 4  qrot/sn=   59238.4043 T*S(rot)=     7.40 kcal/mol T*S(tot)=    24.88 kcal/mol
 sn= 5  qrot/sn=   47390.7234 T*S(rot)=     7.27 kcal/mol T*S(tot)=    24.75 kcal/mol
 sn= 6  qrot/sn=   39492.2695 T*S(rot)=     7.16 kcal/mol T*S(tot)=    24.64 kcal/mol
 sn= 7  qrot/sn=   33850.5167 T*S(rot)=     7.07 kcal/mol T*S(tot)=    24.55 kcal/mol
 sn= 8  qrot/sn=   29619.2021 T*S(rot)=     6.99 kcal/mol T*S(tot)=    24.47 kcal/mol
 sn= 9  qrot/sn=   26328.1797 T*S(rot)=     6.92 kcal/mol T*S(tot)=    24.40 kcal/mol
 sn=10  qrot/sn=   23695.3617 T*S(rot)=     6.86 kcal/mol T*S(tot)=    24.34 kcal/mol
 sn=11  qrot/sn=   21541.2379 T*S(rot)=     6.80 kcal/mol T*S(tot)=    24.28 kcal/mol
 sn=12  qrot/sn=   19746.1348 T*S(rot)=     6.75 kcal/mol T*S(tot)=    24.23 kcal/mol

-------------------
GIBBS FREE ENTHALPY
-------------------

The Gibbs free enthalpy is G = H - T*S

Total enthalpy                    ...   -327.02305702 Eh
Total entropy correction          ...     -0.03992232 Eh    -25.05 kcal/mol
-----------------------------------------------------------------------
Final Gibbs free enthalpy         ...   -327.06297934 Eh

For completeness - the Gibbs free enthalpy minus the electronic energy
G-E(el)                           ...      0.14377059 Eh     90.22 kcal/mol

                             ****ORCA TERMINATED NORMALLY****
TOTAL RUN TIME: 0 days 0 hours 41 minutes 14 seconds 381 msec
