                         Program Version 3.0.3 - RELEASE   -
|  1> ! NORI PBE0 def2-TZVP UseSym TightOPT Freq TightSCF Grid3 FinalGrid5 XYZFile
|  2> % pal
|  3>     nprocs 8
|  4> end
|  5> %method
|  6>     SymThresh 5.0e-2
|  7> end
|  8> % geom
|  9>     MaxIter 10
| 10> end
| 11> % maxcore 2000
| 12> % output
| 13>     printlevel mini
| 14>     print[ P_Basis ] 0
| 15>     print[ P_SCFInfo ] 1
| 16>     print[ P_SCFIterInfo ] 1
| 17>     print[ P_OrbEn ] 0
| 18>     print[ P_Cartesian ] 0
| 19> end
| 20> % elprop
| 21>     Dipole false
| 22> end
| 23> *xyz 1 1
| 24>  C        3.1200276908    -0.9227451486     1.3244667733
| 25>  C        2.6232514876    -0.1405863228     0.1198821057
| 26>  C        2.9801068063    -0.7005939001    -1.2479190622
| 27>  O        2.4334605052     0.1550392034    -2.1796401037
| 28>  C        4.4808035116    -1.0664159312    -1.4152791877
| 29>  N        4.1369534128    -2.5137721886    -1.1378897630
| 30>  C        2.6787444249    -2.2161553724    -1.4119240158
| 31>  H        2.7983576236    -0.4293203295     2.2419035283
| 32>  H        4.2130765707    -0.9719358099     1.3815579155
| 33>  H        2.7093449109    -1.9368347458     1.3743012241
| 34>  H        1.5334320365    -0.0589309409     0.1479676702
| 35>  H        3.0092757211     0.8816969498     0.1490580022
| 36>  H        2.6184541540    -0.1239184911    -3.0821162231
| 37>  H        4.8296925249    -0.9780435156    -2.4438422708
| 38>  H        5.2183272091    -0.6590190621    -0.7267263180
| 39>  H        4.5853846581    -3.2174018898    -1.7219604850
| 40>  H        4.2925354627    -2.7538637039    -0.1589224362
| 41>  H        2.0007641451    -2.7118214104    -0.7199013978
| 42>  H        2.4477571440    -2.4990273906    -2.4382759559
| 43> *
| 44>
| 45>                          ****END OF INPUT****
 Total Charge           Charge          ....    1
 Multiplicity           Mult            ....    1
 Number of Electrons    NEL             ....   56
FINAL SINGLE POINT ENERGY      -327.203140056791
FINAL SINGLE POINT ENERGY      -327.203141210646

CARTESIAN COORDINATES (ANGSTROEM)
---------------------------------
  C     -1.345657    1.736139   -0.000000
  C      0.150121    1.466612    0.000000
  C      0.578795    0.007612    0.000000
  O      1.956795    0.001589   -0.000000
  C     -0.136267   -0.864814    1.068726
  N     -1.090635   -1.351936    0.000000
  C     -0.136267   -0.864814   -1.068726
  H     -1.526315    2.811219   -0.000000
  H     -1.849607    1.350661    0.893163
  H     -1.849607    1.350660   -0.893164
  H      0.615779    1.927969   -0.875000
  H      0.615779    1.927969    0.875000
  H      2.317380   -0.890935   -0.000000
  H      0.467972   -1.704629    1.410938
  H     -0.637089   -0.388780    1.909205
  H     -1.320614   -2.344213   -0.000000
  H     -1.957765   -0.814823    0.000000
  H     -0.637090   -0.388779   -1.909204
  H      0.467972   -1.704628   -1.410938

FINAL SINGLE POINT ENERGY      -327.203141777585
                    ***********************HURRAY********************
 Multiplicity           Mult            ....    1
 Number of Electrons    NEL             ....   56
 Basis Dimension        Dim             ....  289
FINAL SINGLE POINT ENERGY      -327.203141860287

VIBRATIONAL FREQUENCIES
-----------------------

   0:         0.00 cm**-1
   1:         0.00 cm**-1
   2:         0.00 cm**-1
   3:         0.00 cm**-1
   4:         0.00 cm**-1
   5:         0.00 cm**-1
   6:       147.99 cm**-1
   7:       153.13 cm**-1
   8:       261.51 cm**-1
   9:       263.81 cm**-1
  10:       310.33 cm**-1
  11:       346.66 cm**-1
  12:       419.85 cm**-1
  13:       433.35 cm**-1
  14:       459.00 cm**-1
  15:       643.42 cm**-1
  16:       736.52 cm**-1
  17:       777.19 cm**-1
  18:       845.82 cm**-1
  19:       883.05 cm**-1
  20:       889.25 cm**-1
  21:       915.70 cm**-1
  22:       966.13 cm**-1
  23:       979.57 cm**-1
  24:      1017.33 cm**-1
  25:      1061.03 cm**-1
  26:      1074.47 cm**-1
  27:      1138.09 cm**-1
  28:      1170.46 cm**-1
  29:      1231.24 cm**-1
  30:      1246.47 cm**-1
  31:      1269.80 cm**-1
  32:      1301.63 cm**-1
  33:      1315.82 cm**-1
  34:      1327.44 cm**-1
  35:      1331.10 cm**-1
  36:      1380.53 cm**-1
  37:      1411.54 cm**-1
  38:      1414.58 cm**-1
  39:      1469.11 cm**-1
  40:      1477.15 cm**-1
  41:      1496.92 cm**-1
  42:      1499.00 cm**-1
  43:      1508.71 cm**-1
  44:      1637.38 cm**-1
  45:      3030.62 cm**-1
  46:      3073.71 cm**-1
  47:      3087.99 cm**-1
  48:      3112.71 cm**-1
  49:      3116.40 cm**-1
  50:      3124.41 cm**-1
  51:      3142.87 cm**-1
  52:      3189.70 cm**-1
  53:      3189.77 cm**-1
  54:      3463.79 cm**-1
  55:      3534.64 cm**-1
  56:      3837.95 cm**-1

IR SPECTRUM
-----------

 Mode    freq (cm**-1)   T**2         TX         TY         TZ
-------------------------------------------------------------------
   6:       147.99    1.308938  (  0.000053  -0.000706  -1.144088)
   7:       153.13   13.040148  ( -0.210441   3.604977  -0.000225)
   8:       261.51    0.111835  (  0.001460  -0.001332  -0.334411)
   9:       263.81    2.687756  (  1.176887  -1.141356   0.000475)
  10:       310.33    0.042240  (  0.000063   0.000047  -0.205523)
  11:       346.66  113.426972  ( -0.000029  -0.000041 -10.650210)
  12:       419.85    8.832465  ( -1.970622   2.224660  -0.000039)
  13:       433.35    3.089411  (  0.000011   0.000056   1.757672)
  14:       459.00    0.142121  (  0.236820   0.293321  -0.000125)
  15:       643.42    8.783704  (  2.196046   1.990248   0.000005)
  16:       736.52    7.073549  (  0.150278  -2.655365   0.000028)
  17:       777.19    1.051876  (  0.000049   0.000100   1.025610)
  18:       845.82    0.873606  (  0.000092  -0.000005   0.934669)
  19:       883.05    5.701794  ( -2.387509   0.039952   0.000096)
  20:       889.25   20.011610  (  2.569122  -3.662133  -0.000025)
  21:       915.70    3.894548  (  0.000008   0.000019   1.973461)
  22:       966.13    7.628756  ( -0.000114  -0.000078  -2.762020)
  23:       979.57    2.383181  (  0.252164   1.523021  -0.000131)
  24:      1017.33    3.386139  (  1.101095   1.474357  -0.000004)
  25:      1061.03    0.684289  (  0.000050  -0.000010  -0.827217)
  26:      1074.47   24.596871  ( -4.774280  -1.342805  -0.000003)
  27:      1138.09   51.467377  ( -7.167260   0.312672   0.000032)
  28:      1170.46    4.865054  ( -0.000189   0.000001  -2.205687)
  29:      1231.24   33.564404  (  0.000022   0.000018  -5.793479)
  30:      1246.47   82.900161  (  9.094352  -0.439222   0.000047)
  31:      1269.80    2.527410  ( -0.774521   1.388354   0.000130)
  32:      1301.63    8.771204  (  0.000002  -0.000040   2.961622)
  33:      1315.82    3.825253  ( -0.000063   0.000005  -1.955825)
  34:      1327.44   16.430878  (  0.000047  -0.000005  -4.053502)
  35:      1331.10    2.022312  ( -1.399988  -0.249694   0.000014)
  36:      1380.53   75.961772  ( -8.120608  -3.165043   0.000039)
  37:      1411.54    2.784254  ( -1.487226   0.756579   0.000054)
  38:      1414.58    7.160366  (  0.144814   2.671965   0.000043)
  39:      1469.11   14.342554  (  0.000027  -0.000075  -3.787157)
  40:      1477.15    1.540689  ( -0.763563  -0.978602  -0.000036)
  41:      1496.92    6.045381  (  0.284823  -2.442183   0.000043)
  42:      1499.00   14.155022  ( -0.185318   3.757749   0.000227)
  43:      1508.71   23.053689  (  0.000064   0.000249  -4.801426)
  44:      1637.38   84.546868  (  7.802795   4.864489   0.000025)
  45:      3030.62   21.611814  ( -3.444613  -3.121932  -0.000029)
  46:      3073.71    4.199562  ( -1.875144  -0.826678  -0.000007)
  47:      3087.99   13.193634  (  0.000052   0.000006  -3.632304)
  48:      3112.71    0.515587  ( -0.000005   0.000038  -0.718044)
  49:      3116.40    0.996839  (  0.735967  -0.674678   0.000028)
  50:      3124.41    7.106567  (  0.000103   0.000010  -2.665814)
  51:      3142.87    1.853223  ( -0.384262  -1.305973  -0.000036)
  52:      3189.70    0.128313  (  0.349231  -0.077749  -0.017491)
  53:      3189.77    0.700945  (  0.007285  -0.001637   0.837191)
  54:      3463.79   54.959438  (  7.280013   1.400303   0.000019)
  55:      3534.64  106.076103  (  2.393185 -10.017423   0.000016)
  56:      3837.95   48.073028  (  5.458119  -4.275741   0.000000)

--------------------------
THERMOCHEMISTRY AT 298.15K
--------------------------

Temperature         ... 298.15 K
Pressure            ... 1.00 atm
Total Mass          ... 102.16 AMU

Throughout the following assumptions are being made:
  (1) The electronic state is orbitally nondegenerate
  (2) There are no thermally accessible electronically excited states
  (3) Hindered rotations indicated by low frequency modes) are not
      treated as such but are treated as vibrations and this may
      case some error
  (4) All equations used are the standard statistical mechanics
      equations for an ideal gas
  (5) All vibrations are strinctly harmonic

------------
INNER ENERGY
------------

The inner energy is: U= E(el) + E(ZPE) + E(vib) + E(rot) + E(trans)
    E(el)   - is the total energy from the electronic structure calculation
              = E(kin-el) + E(nuc-el) + E(el-el) + E(nuc-nuc)
    E(ZPE)  - the the zero temperature vibrational energy from the frequency calculation
    E(vib)  - the the finite temperature correction to E(ZPE) due to population
              of excietd vibrational states
    E(rot)  - is the rotational thermal energy
    E(trans)- is the translational thermal energy

Summary of contributions to the inner energy U:
Electronic energy                ...   -327.20314186 Eh
Zero point energy                ...      0.17568460 Eh     110.24 kcal/mol
Thermal vibrational correction   ...      0.00471951 Eh       2.96 kcal/mol
Thermal rotational correction    ...      0.00141627 Eh       0.89 kcal/mol
Thermal translational correction ...      0.00141627 Eh       0.89 kcal/mol
-----------------------------------------------------------------------
Total thermal energy                   -327.01990520 Eh

Summary of corrections to the electronic energy:
(perhaps to be used in another calculation)
Total thermal correction                  0.00755206 Eh       4.74 kcal/mol
Non-thermal (ZPE) correction              0.17568460 Eh     110.24 kcal/mol
-----------------------------------------------------------------------
Total correction                          0.18323666 Eh     114.98 kcal/mol

--------
ENTHALPY
--------

The enthalpy is H = U + kB*T
                kB is Boltzmann's constant
Total free energy                 ...   -327.01990520 Eh
Thermal Enthalpy correction       ...      0.00094421 Eh       0.59 kcal/mol
-----------------------------------------------------------------------
Total Enthalpy                    ...   -327.01896099 Eh

-------
ENTROPY
-------

The entropy contributions are T*S = T*(S(el)+S(vib)+S(rot)+S(trans)
     S(el)   - electronic entropy
     S(vib)  - vibrational entropy
     S(rot)  - rotational entropy
     S(trans)- translational entropy
The entropies will be listed as mutliplied by the temperature to get
units of energy

Electronic entropy                ...      0.00000000 Eh      0.00 kcal/mol
Vibrational entropy               ...      0.00760469 Eh      4.77 kcal/mol
Rotational entropy                ...      0.01197747 Eh      7.52 kcal/mol
Translational entropy             ...      0.01890147 Eh     11.86 kcal/mol
-----------------------------------------------------------------------
Final entropy term                ...      0.03848363 Eh     24.15 kcal/mol

CAUTION: The rotational entropy is not quite correctly treated here
         because it includes a symmetry number that is not yet correctly
         implemented in ORCA!
For a nonlinear molecule the correct rotational entropy is:
    S(rot) = R*(ln(qrot/sn)+1.5)
    R    = 8.31441 J/mol/K = 1.987191683e-3 kcal/mol/K
    qrot = 216247.2920437
    sn is the rotational symmetry number. We have assumed 3 here
       if it is different for your molecule then you should correct
       the printed rotational entropy by manually evaluating the equation
       as given above

For convenience we print out the resulting values for sn=1 - 12:
 sn= 1  qrot/sn=  216247.2920 T*S(rot)=     8.17 kcal/mol T*S(tot)=    24.80 kcal/mol
 sn= 2  qrot/sn=  108123.6460 T*S(rot)=     7.76 kcal/mol T*S(tot)=    24.39 kcal/mol
 sn= 3  qrot/sn=   72082.4307 T*S(rot)=     7.52 kcal/mol T*S(tot)=    24.15 kcal/mol
 sn= 4  qrot/sn=   54061.8230 T*S(rot)=     7.35 kcal/mol T*S(tot)=    23.98 kcal/mol
 sn= 5  qrot/sn=   43249.4584 T*S(rot)=     7.21 kcal/mol T*S(tot)=    23.85 kcal/mol
 sn= 6  qrot/sn=   36041.2153 T*S(rot)=     7.11 kcal/mol T*S(tot)=    23.74 kcal/mol
 sn= 7  qrot/sn=   30892.4703 T*S(rot)=     7.01 kcal/mol T*S(tot)=    23.65 kcal/mol
 sn= 8  qrot/sn=   27030.9115 T*S(rot)=     6.93 kcal/mol T*S(tot)=    23.57 kcal/mol
 sn= 9  qrot/sn=   24027.4769 T*S(rot)=     6.87 kcal/mol T*S(tot)=    23.50 kcal/mol
 sn=10  qrot/sn=   21624.7292 T*S(rot)=     6.80 kcal/mol T*S(tot)=    23.44 kcal/mol
 sn=11  qrot/sn=   19658.8447 T*S(rot)=     6.75 kcal/mol T*S(tot)=    23.38 kcal/mol
 sn=12  qrot/sn=   18020.6077 T*S(rot)=     6.69 kcal/mol T*S(tot)=    23.33 kcal/mol

-------------------
GIBBS FREE ENTHALPY
-------------------

The Gibbs free enthalpy is G = H - T*S

Total enthalpy                    ...   -327.01896099 Eh
Total entropy correction          ...     -0.03848363 Eh    -24.15 kcal/mol
-----------------------------------------------------------------------
Final Gibbs free enthalpy         ...   -327.05744462 Eh

For completeness - the Gibbs free enthalpy minus the electronic energy
G-E(el)                           ...      0.14569724 Eh     91.43 kcal/mol

                             ****ORCA TERMINATED NORMALLY****
TOTAL RUN TIME: 0 days 0 hours 40 minutes 17 seconds 656 msec
