                         Program Version 3.0.3 - RELEASE   -
|  1> ! NORI PBE0 def2-TZVP UseSym TightOPT Freq TightSCF Grid3 FinalGrid5 XYZFile
|  2> % pal
|  3>     nprocs 8
|  4> end
|  5> %method
|  6>     SymThresh 5.0e-2
|  7> end
|  8> % geom
|  9>     MaxIter 10
| 10> end
| 11> % maxcore 2000
| 12> % output
| 13>     printlevel mini
| 14>     print[ P_Basis ] 0
| 15>     print[ P_SCFInfo ] 1
| 16>     print[ P_SCFIterInfo ] 1
| 17>     print[ P_OrbEn ] 0
| 18>     print[ P_Cartesian ] 0
| 19> end
| 20> % elprop
| 21>     Dipole false
| 22> end
| 23> *xyz 1 1
| 24>  C        0.9890790276    -0.0290068987    -0.4390342127
| 25>  C        2.4380263515     0.0991678946    -0.1451464138
| 26>  C        3.0381430874     0.4925855084     0.9809310712
| 27>  C        2.2994345604     0.8560298496     2.2288192971
| 28>  N        2.5892673513    -0.1841193513     3.2870204708
| 29>  C        4.5281750616     0.6340314540     1.0623364821
| 30>  O        4.9803054545    -0.0581950380     2.2367984929
| 31>  H        0.7672787252    -1.0407108532    -0.7903350515
| 32>  H        0.7180622539     0.6422667408    -1.2594613210
| 33>  H        0.3342200147     0.1916955906     0.4038672630
| 34>  H        3.0933233834    -0.1409322152    -0.9803704686
| 35>  H        1.2217145186     0.9122042079     2.0974712535
| 36>  H        2.6524871931     1.8031877976     2.6433969614
| 37>  H        2.1638579258    -1.0787941577     3.0445486554
| 38>  H        2.2643215916     0.0930250342     4.2129473632
| 39>  H        3.6266051268    -0.3064684565     3.2740238442
| 40>  H        4.8060489579     1.6930576193     1.1411504193
| 41>  H        4.9977984227     0.2168363034     0.1688752586
| 42>  H        5.9216309921     0.0872089700     2.3693606348
| 43> *
| 44>
| 45>                          ****END OF INPUT****
 Total Charge           Charge          ....    1
 Multiplicity           Mult            ....    1
 Number of Electrons    NEL             ....   56
FINAL SINGLE POINT ENERGY      -327.222091290868
FINAL SINGLE POINT ENERGY      -327.222091676590
FINAL SINGLE POINT ENERGY      -327.222092552418

CARTESIAN COORDINATES (ANGSTROEM)
---------------------------------
  C     -0.753951    0.776035   -2.528824
  C     -1.108373    0.514349   -1.111728
  C     -0.424236   -0.154514   -0.180144
  C      0.924069   -0.756658   -0.414740
  N      1.944060   -0.000511    0.406122
  C     -0.991496   -0.383946    1.188220
  O     -0.000779   -0.000962    2.154939
  H     -0.785487    1.850846   -2.728987
  H     -1.503159    0.324478   -3.186069
  H      0.224077    0.400037   -2.828404
  H     -2.076623    0.907123   -0.806689
  H      1.240500   -0.728129   -1.454418
  H      0.970058   -1.789672   -0.061888
  H      2.070848    0.945580    0.046761
  H      2.851444   -0.465011    0.434330
  H      1.529178    0.070554    1.361954
  H     -1.234874   -1.445397    1.325658
  H     -1.903083    0.202477    1.323265
  H     -0.300151   -0.214807    3.043472

FINAL SINGLE POINT ENERGY      -327.222092824983
                    ***********************HURRAY********************
 Multiplicity           Mult            ....    1
 Number of Electrons    NEL             ....   56
 Basis Dimension        Dim             ....  289
FINAL SINGLE POINT ENERGY      -327.222092917948

VIBRATIONAL FREQUENCIES
-----------------------

   0:         0.00 cm**-1
   1:         0.00 cm**-1
   2:         0.00 cm**-1
   3:         0.00 cm**-1
   4:         0.00 cm**-1
   5:         0.00 cm**-1
   6:        95.08 cm**-1
   7:       107.09 cm**-1
   8:       159.72 cm**-1
   9:       259.76 cm**-1
  10:       277.10 cm**-1
  11:       301.52 cm**-1
  12:       313.08 cm**-1
  13:       328.45 cm**-1
  14:       378.03 cm**-1
  15:       417.16 cm**-1
  16:       513.94 cm**-1
  17:       641.37 cm**-1
  18:       791.97 cm**-1
  19:       851.88 cm**-1
  20:       889.68 cm**-1
  21:       922.08 cm**-1
  22:       979.98 cm**-1
  23:      1021.17 cm**-1
  24:      1037.62 cm**-1
  25:      1069.76 cm**-1
  26:      1084.48 cm**-1
  27:      1130.08 cm**-1
  28:      1152.20 cm**-1
  29:      1217.56 cm**-1
  30:      1257.07 cm**-1
  31:      1269.56 cm**-1
  32:      1335.58 cm**-1
  33:      1369.35 cm**-1
  34:      1407.30 cm**-1
  35:      1420.02 cm**-1
  36:      1436.29 cm**-1
  37:      1463.70 cm**-1
  38:      1473.11 cm**-1
  39:      1495.13 cm**-1
  40:      1498.48 cm**-1
  41:      1507.44 cm**-1
  42:      1637.86 cm**-1
  43:      1674.36 cm**-1
  44:      1752.09 cm**-1
  45:      3026.79 cm**-1
  46:      3053.81 cm**-1
  47:      3085.17 cm**-1
  48:      3094.61 cm**-1
  49:      3107.04 cm**-1
  50:      3110.59 cm**-1
  51:      3143.16 cm**-1
  52:      3162.85 cm**-1
  53:      3177.43 cm**-1
  54:      3472.58 cm**-1
  55:      3537.17 cm**-1
  56:      3859.31 cm**-1

IR SPECTRUM
-----------

 Mode    freq (cm**-1)   T**2         TX         TY         TZ
-------------------------------------------------------------------
   6:        95.08    4.364914  ( -0.559696   1.942699  -0.526856)
   7:       107.09    6.780893  ( -0.295476  -2.074291   1.546254)
   8:       159.72    0.647002  ( -0.086132  -0.442090  -0.666438)
   9:       259.76   16.078695  ( -1.143649   2.609509   2.821564)
  10:       277.10    8.829964  ( -0.777344  -2.810602  -0.571154)
  11:       301.52   36.085539  ( -4.949591   0.266678   3.393519)
  12:       313.08   69.280054  (  1.784438  -8.121265   0.375351)
  13:       328.45   54.536783  (  3.824253  -5.236501  -3.534251)
  14:       378.03    4.283358  ( -1.145155   1.707287  -0.239057)
  15:       417.16   12.450578  (  2.223396  -1.656551   2.182413)
  16:       513.94    1.484673  (  1.014933   0.650598   0.176934)
  17:       641.37    8.565235  ( -2.603569  -0.844903   1.035761)
  18:       791.97   16.068591  (  1.099480   0.954229  -3.734860)
  19:       851.88   15.078641  ( -1.764605  -2.499376   2.391219)
  20:       889.68   18.943500  (  1.100306  -1.899703  -3.758185)
  21:       922.08   44.129434  ( -5.556577  -0.319535  -3.626539)
  22:       979.98    9.193917  (  1.291730  -1.494806   2.300197)
  23:      1021.17   34.448209  (  2.460564   0.037493   5.328454)
  24:      1037.62   43.366250  (  5.225193   1.930584   3.512328)
  25:      1069.76    1.068168  (  0.398561   0.641813  -0.705262)
  26:      1084.48   16.542993  (  3.957679  -0.506508   0.789444)
  27:      1130.08   31.828460  (  2.317470  -3.907302  -3.345262)
  28:      1152.20    4.595591  (  0.990165  -1.171791  -1.497355)
  29:      1217.56   59.862929  ( -4.562233  -3.008369  -5.477104)
  30:      1257.07    4.728506  ( -0.546666  -1.551063   1.422627)
  31:      1269.56   11.840480  (  3.247896  -0.110221   1.131150)
  32:      1335.58   20.878319  ( -0.988738   0.983385  -4.351284)
  33:      1369.35    3.702858  ( -0.766743   0.778669  -1.583868)
  34:      1407.30    8.579109  (  0.699339  -1.211202   2.573524)
  35:      1420.02   10.069904  (  2.782010  -0.443845  -1.460591)
  36:      1436.29   18.294727  (  2.951732  -0.506642   3.053738)
  37:      1463.70   12.092133  ( -1.306580  -3.152963  -0.666187)
  38:      1473.11   30.520610  (  4.602841   0.866148   2.929889)
  39:      1495.13   20.883605  ( -1.032184   4.271132   1.255240)
  40:      1498.48  149.891671  ( 11.665315   2.921334   2.297369)
  41:      1507.44   34.842503  (  4.836486   3.381978  -0.114612)
  42:      1637.86   14.327303  ( -0.853661  -3.120346   1.965198)
  43:      1674.36   37.452713  (  5.017513  -3.495740  -0.238903)
  44:      1752.09   30.325301  ( -2.011688   1.412828  -4.927710)
  45:      3026.79   25.379657  (  3.522518   3.348128  -1.327240)
  46:      3053.81    1.323226  ( -1.111231   0.032430   0.295532)
  47:      3085.17  354.048959  (-11.419150   1.212011  14.905804)
  48:      3094.61   83.886244  (  4.768796   1.098242  -7.742009)
  49:      3107.04    8.038889  (  1.910659  -1.751185   1.149618)
  50:      3110.59    0.436725  (  0.341323   0.534085  -0.187020)
  51:      3143.16    5.674077  (  2.118146  -0.870973  -0.654936)
  52:      3162.85   12.618159  ( -2.762413   0.656448   2.134552)
  53:      3177.43    0.370789  ( -0.400636   0.453089   0.070642)
  54:      3472.58   75.767934  (  7.810227   2.394194  -3.006014)
  55:      3537.17   72.452470  (  3.834364  -7.425210   1.617521)
  56:      3859.31  111.323402  ( -1.535422  -1.322879  10.354510)

--------------------------
THERMOCHEMISTRY AT 298.15K
--------------------------

Temperature         ... 298.15 K
Pressure            ... 1.00 atm
Total Mass          ... 102.16 AMU

Throughout the following assumptions are being made:
  (1) The electronic state is orbitally nondegenerate
  (2) There are no thermally accessible electronically excited states
  (3) Hindered rotations indicated by low frequency modes) are not
      treated as such but are treated as vibrations and this may
      case some error
  (4) All equations used are the standard statistical mechanics
      equations for an ideal gas
  (5) All vibrations are strinctly harmonic

------------
INNER ENERGY
------------

The inner energy is: U= E(el) + E(ZPE) + E(vib) + E(rot) + E(trans)
    E(el)   - is the total energy from the electronic structure calculation
              = E(kin-el) + E(nuc-el) + E(el-el) + E(nuc-nuc)
    E(ZPE)  - the the zero temperature vibrational energy from the frequency calculation
    E(vib)  - the the finite temperature correction to E(ZPE) due to population
              of excietd vibrational states
    E(rot)  - is the rotational thermal energy
    E(trans)- is the translational thermal energy

Summary of contributions to the inner energy U:
Electronic energy                ...   -327.22209292 Eh
Zero point energy                ...      0.17489174 Eh     109.75 kcal/mol
Thermal vibrational correction   ...      0.00576647 Eh       3.62 kcal/mol
Thermal rotational correction    ...      0.00141627 Eh       0.89 kcal/mol
Thermal translational correction ...      0.00141627 Eh       0.89 kcal/mol
-----------------------------------------------------------------------
Total thermal energy                   -327.03860217 Eh

Summary of corrections to the electronic energy:
(perhaps to be used in another calculation)
Total thermal correction                  0.00859901 Eh       5.40 kcal/mol
Non-thermal (ZPE) correction              0.17489174 Eh     109.75 kcal/mol
-----------------------------------------------------------------------
Total correction                          0.18349075 Eh     115.14 kcal/mol

--------
ENTHALPY
--------

The enthalpy is H = U + kB*T
                kB is Boltzmann's constant
Total free energy                 ...   -327.03860217 Eh
Thermal Enthalpy correction       ...      0.00094421 Eh       0.59 kcal/mol
-----------------------------------------------------------------------
Total Enthalpy                    ...   -327.03765796 Eh

-------
ENTROPY
-------

The entropy contributions are T*S = T*(S(el)+S(vib)+S(rot)+S(trans)
     S(el)   - electronic entropy
     S(vib)  - vibrational entropy
     S(rot)  - rotational entropy
     S(trans)- translational entropy
The entropies will be listed as mutliplied by the temperature to get
units of energy

Electronic entropy                ...      0.00000000 Eh      0.00 kcal/mol
Vibrational entropy               ...      0.01000684 Eh      6.28 kcal/mol
Rotational entropy                ...      0.01224226 Eh      7.68 kcal/mol
Translational entropy             ...      0.01890147 Eh     11.86 kcal/mol
-----------------------------------------------------------------------
Final entropy term                ...      0.04115056 Eh     25.82 kcal/mol

CAUTION: The rotational entropy is not quite correctly treated here
         because it includes a symmetry number that is not yet correctly
         implemented in ORCA!
For a nonlinear molecule the correct rotational entropy is:
    S(rot) = R*(ln(qrot/sn)+1.5)
    R    = 8.31441 J/mol/K = 1.987191683e-3 kcal/mol/K
    qrot = 286249.7919609
    sn is the rotational symmetry number. We have assumed 3 here
       if it is different for your molecule then you should correct
       the printed rotational entropy by manually evaluating the equation
       as given above

For convenience we print out the resulting values for sn=1 - 12:
 sn= 1  qrot/sn=  286249.7920 T*S(rot)=     8.33 kcal/mol T*S(tot)=    26.47 kcal/mol
 sn= 2  qrot/sn=  143124.8960 T*S(rot)=     7.92 kcal/mol T*S(tot)=    26.06 kcal/mol
 sn= 3  qrot/sn=   95416.5973 T*S(rot)=     7.68 kcal/mol T*S(tot)=    25.82 kcal/mol
 sn= 4  qrot/sn=   71562.4480 T*S(rot)=     7.51 kcal/mol T*S(tot)=    25.65 kcal/mol
 sn= 5  qrot/sn=   57249.9584 T*S(rot)=     7.38 kcal/mol T*S(tot)=    25.52 kcal/mol
 sn= 6  qrot/sn=   47708.2987 T*S(rot)=     7.27 kcal/mol T*S(tot)=    25.41 kcal/mol
 sn= 7  qrot/sn=   40892.8274 T*S(rot)=     7.18 kcal/mol T*S(tot)=    25.32 kcal/mol
 sn= 8  qrot/sn=   35781.2240 T*S(rot)=     7.10 kcal/mol T*S(tot)=    25.24 kcal/mol
 sn= 9  qrot/sn=   31805.5324 T*S(rot)=     7.03 kcal/mol T*S(tot)=    25.17 kcal/mol
 sn=10  qrot/sn=   28624.9792 T*S(rot)=     6.97 kcal/mol T*S(tot)=    25.11 kcal/mol
 sn=11  qrot/sn=   26022.7084 T*S(rot)=     6.91 kcal/mol T*S(tot)=    25.05 kcal/mol
 sn=12  qrot/sn=   23854.1493 T*S(rot)=     6.86 kcal/mol T*S(tot)=    25.00 kcal/mol

-------------------
GIBBS FREE ENTHALPY
-------------------

The Gibbs free enthalpy is G = H - T*S

Total enthalpy                    ...   -327.03765796 Eh
Total entropy correction          ...     -0.04115056 Eh    -25.82 kcal/mol
-----------------------------------------------------------------------
Final Gibbs free enthalpy         ...   -327.07880853 Eh

For completeness - the Gibbs free enthalpy minus the electronic energy
G-E(el)                           ...      0.14328439 Eh     89.91 kcal/mol

                             ****ORCA TERMINATED NORMALLY****
TOTAL RUN TIME: 0 days 0 hours 45 minutes 45 seconds 958 msec
