                         Program Version 3.0.3 - RELEASE   -
|  1> ! NORI PBE0 def2-TZVP UseSym TightOPT Freq TightSCF Grid3 FinalGrid5 XYZFile
|  2> % pal
|  3>     nprocs 8
|  4> end
|  5> %method
|  6>     SymThresh 5.0e-2
|  7> end
|  8> % geom
|  9>     MaxIter 10
| 10> end
| 11> % maxcore 2000
| 12> % output
| 13>     printlevel mini
| 14>     print[ P_Basis ] 0
| 15>     print[ P_SCFInfo ] 1
| 16>     print[ P_SCFIterInfo ] 1
| 17>     print[ P_OrbEn ] 0
| 18>     print[ P_Cartesian ] 0
| 19> end
| 20> % elprop
| 21>     Dipole false
| 22> end
| 23> *xyz 1 1
| 24>  C        1.1784087621     0.6783724113    -1.5115292827
| 25>  C        1.9063436413    -0.1300736014    -0.5001112460
| 26>  C        3.0889614637     0.1030639640     0.0698515913
| 27>  C        3.9522734377     1.2892065395    -0.1958970848
| 28>  N        5.1534090531     0.8354585526    -1.0197423176
| 29>  C        4.5437041105     1.9066541832     1.0654612813
| 30>  O        5.4940817721     0.9752547543     1.5313896935
| 31>  H        0.9592193679     0.0668354362    -2.3915477633
| 32>  H        1.7067788728     1.5727383144    -1.8416140948
| 33>  H        0.2087680779     0.9868045254    -1.1106798756
| 34>  H        1.3888533884    -1.0296781119    -0.1750586743
| 35>  H        3.4659609958    -0.5910477065     0.8156699530
| 36>  H        3.4361587602     2.0459039122    -0.7856924550
| 37>  H        5.7900903988     0.3617795328    -0.3638856302
| 38>  H        5.6592823876     1.6154978703    -1.4423079488
| 39>  H        4.8666502671     0.1841271987    -1.7500641263
| 40>  H        3.7315283367     2.0702855922     1.7795645466
| 41>  H        5.0098306045     2.8757224579     0.8432716811
| 42>  H        5.8552763019     1.2442941748     2.3803417525
| 43> *
| 44>
| 45>                          ****END OF INPUT****
 Total Charge           Charge          ....    1
 Multiplicity           Mult            ....    1
 Number of Electrons    NEL             ....   56
FINAL SINGLE POINT ENERGY      -327.214152975483
FINAL SINGLE POINT ENERGY      -327.214153850452

CARTESIAN COORDINATES (ANGSTROEM)
---------------------------------
  C     -0.607731    0.009016   -2.851771
  C     -0.863819   -0.876164   -1.686799
  C     -0.502881   -0.714961   -0.413333
  C      0.253808    0.452146    0.123212
  N      1.675178   -0.000670    0.443076
  C     -0.299853    0.986494    1.438337
  O     -0.000616    0.001191    2.401515
  H     -0.091440   -0.548521   -3.638676
  H     -0.020811    0.899476   -2.624151
  H     -1.558145    0.332376   -3.286586
  H     -1.438530   -1.771748   -1.910768
  H     -0.796882   -1.458366    0.321772
  H      0.338501    1.254357   -0.608754
  H      1.617972   -0.527241    1.325491
  H      2.315757    0.782057    0.584381
  H      2.038096   -0.604415   -0.294336
  H     -1.375647    1.142635    1.318071
  H      0.163948    1.948561    1.693501
  H     -0.394488    0.216519    3.251290

FINAL SINGLE POINT ENERGY      -327.214154077462
                    ***********************HURRAY********************
 Multiplicity           Mult            ....    1
 Number of Electrons    NEL             ....   56
 Basis Dimension        Dim             ....  289
FINAL SINGLE POINT ENERGY      -327.214154142695

VIBRATIONAL FREQUENCIES
-----------------------

   0:         0.00 cm**-1
   1:         0.00 cm**-1
   2:         0.00 cm**-1
   3:         0.00 cm**-1
   4:         0.00 cm**-1
   5:         0.00 cm**-1
   6:        47.07 cm**-1
   7:       125.12 cm**-1
   8:       161.03 cm**-1
   9:       205.52 cm**-1
  10:       207.82 cm**-1
  11:       245.40 cm**-1
  12:       278.57 cm**-1
  13:       307.47 cm**-1
  14:       352.66 cm**-1
  15:       509.19 cm**-1
  16:       544.75 cm**-1
  17:       655.47 cm**-1
  18:       766.45 cm**-1
  19:       840.80 cm**-1
  20:       882.69 cm**-1
  21:       931.89 cm**-1
  22:       971.14 cm**-1
  23:      1010.77 cm**-1
  24:      1021.09 cm**-1
  25:      1070.90 cm**-1
  26:      1075.15 cm**-1
  27:      1076.83 cm**-1
  28:      1145.04 cm**-1
  29:      1186.62 cm**-1
  30:      1224.92 cm**-1
  31:      1256.19 cm**-1
  32:      1299.01 cm**-1
  33:      1345.66 cm**-1
  34:      1364.28 cm**-1
  35:      1406.73 cm**-1
  36:      1432.28 cm**-1
  37:      1442.45 cm**-1
  38:      1464.43 cm**-1
  39:      1472.12 cm**-1
  40:      1483.93 cm**-1
  41:      1514.09 cm**-1
  42:      1633.10 cm**-1
  43:      1660.12 cm**-1
  44:      1731.83 cm**-1
  45:      3023.63 cm**-1
  46:      3052.44 cm**-1
  47:      3097.91 cm**-1
  48:      3110.60 cm**-1
  49:      3136.40 cm**-1
  50:      3145.33 cm**-1
  51:      3168.65 cm**-1
  52:      3189.10 cm**-1
  53:      3357.17 cm**-1
  54:      3475.69 cm**-1
  55:      3531.88 cm**-1
  56:      3871.90 cm**-1

IR SPECTRUM
-----------

 Mode    freq (cm**-1)   T**2         TX         TY         TZ
-------------------------------------------------------------------
   6:        47.07    1.372312  ( -0.471576   0.200797  -1.053380)
   7:       125.12    7.358745  ( -2.347697  -1.359009   0.012552)
   8:       161.03    1.839670  ( -0.995586   0.871894   0.297120)
   9:       205.52   15.783148  ( -2.754778  -1.926672   2.117140)
  10:       207.82   20.339065  (  2.131061   2.652717   2.959854)
  11:       245.40    4.276446  ( -1.694702  -1.132877  -0.347877)
  12:       278.57  100.562897  ( -8.181586  -5.603666  -1.491133)
  13:       307.47   24.043742  ( -0.534865  -0.725289  -4.819919)
  14:       352.66    9.647504  ( -2.549662   0.814634   1.575786)
  15:       509.19    2.682903  ( -1.138209  -1.038471   0.555844)
  16:       544.75    1.913401  (  0.176077   0.817150   1.102118)
  17:       655.47   12.652443  ( -2.378289   1.632005  -2.081525)
  18:       766.45   40.467469  ( -5.516948   2.589538   1.823472)
  19:       840.80   26.506302  (  5.020481   0.494983   1.027650)
  20:       882.69   13.495073  (  2.808535   0.279282   2.351426)
  21:       931.89    3.188755  (  1.342296  -0.057342   1.176311)
  22:       971.14   13.490645  (  1.010713   1.463481   3.213616)
  23:      1010.77   18.763541  ( -0.787666   1.475075  -3.995907)
  24:      1021.09   50.923540  (  1.646930   1.259921  -6.828159)
  25:      1070.90    9.899637  ( -1.251075   2.830306  -0.569047)
  26:      1075.15   22.689342  ( -1.514337   1.782724  -4.149460)
  27:      1076.83   39.604885  (  2.236195  -3.193430   4.940276)
  28:      1145.04   14.482934  ( -1.561302   3.229165  -1.271914)
  29:      1186.62   17.282847  ( -0.315913  -4.129193  -0.364430)
  30:      1224.92   36.559071  (  1.932700  -5.398409   1.918574)
  31:      1256.19    8.295427  (  0.420812   2.677679   0.973847)
  32:      1299.01    8.040819  (  0.941138  -0.196631   2.667661)
  33:      1345.66    8.927638  (  1.222664  -0.271914   2.712710)
  34:      1364.28   10.610800  (  1.764361   2.149443  -1.696386)
  35:      1406.73   15.674649  ( -0.185783   1.697606  -3.571872)
  36:      1432.28   38.811365  ( -5.909260   1.256544  -1.520891)
  37:      1442.45   15.777513  (  3.863611  -0.849971  -0.357167)
  38:      1464.43   10.624048  (  2.416486  -2.014519  -0.852266)
  39:      1472.12  154.128891  ( 11.506407  -3.746149   2.774499)
  40:      1483.93   27.340839  ( -1.307719   4.345403   2.597726)
  41:      1514.09    9.119329  (  1.808135  -1.099543  -2.154294)
  42:      1633.10   31.076143  ( -2.874460  -4.677778   0.965411)
  43:      1660.12   39.415780  (  0.930232  -2.738601  -5.572299)
  44:      1731.83   34.033337  ( -1.725392   0.339547  -5.562470)
  45:      3023.63   25.144240  ( -0.884568  -4.933425   0.151989)
  46:      3052.44    3.022851  (  1.107027   1.340377   0.027077)
  47:      3097.91    7.649098  ( -1.980028  -0.520037  -1.859610)
  48:      3110.60    0.409987  ( -0.482551   0.278388   0.315645)
  49:      3136.40    3.176754  ( -1.044317  -1.275336  -0.677993)
  50:      3145.33   10.498636  ( -1.505841  -2.835295  -0.438387)
  51:      3168.65    2.759635  (  0.771529   1.396875  -0.461648)
  52:      3189.10    0.993486  ( -0.380700  -0.871591  -0.298132)
  53:      3357.17   91.384098  ( -0.631251   3.093883  -9.022944)
  54:      3475.69   94.347807  ( -6.743588  -3.140520   6.245715)
  55:      3531.88   77.250804  (  0.101663  -7.012614  -5.297519)
  56:      3871.90  145.348445  (  3.447119  -0.442775 -11.544253)

--------------------------
THERMOCHEMISTRY AT 298.15K
--------------------------

Temperature         ... 298.15 K
Pressure            ... 1.00 atm
Total Mass          ... 102.16 AMU

Throughout the following assumptions are being made:
  (1) The electronic state is orbitally nondegenerate
  (2) There are no thermally accessible electronically excited states
  (3) Hindered rotations indicated by low frequency modes) are not
      treated as such but are treated as vibrations and this may
      case some error
  (4) All equations used are the standard statistical mechanics
      equations for an ideal gas
  (5) All vibrations are strinctly harmonic

------------
INNER ENERGY
------------

The inner energy is: U= E(el) + E(ZPE) + E(vib) + E(rot) + E(trans)
    E(el)   - is the total energy from the electronic structure calculation
              = E(kin-el) + E(nuc-el) + E(el-el) + E(nuc-nuc)
    E(ZPE)  - the the zero temperature vibrational energy from the frequency calculation
    E(vib)  - the the finite temperature correction to E(ZPE) due to population
              of excietd vibrational states
    E(rot)  - is the rotational thermal energy
    E(trans)- is the translational thermal energy

Summary of contributions to the inner energy U:
Electronic energy                ...   -327.21415414 Eh
Zero point energy                ...      0.17430556 Eh     109.38 kcal/mol
Thermal vibrational correction   ...      0.00610551 Eh       3.83 kcal/mol
Thermal rotational correction    ...      0.00141627 Eh       0.89 kcal/mol
Thermal translational correction ...      0.00141627 Eh       0.89 kcal/mol
-----------------------------------------------------------------------
Total thermal energy                   -327.03091053 Eh

Summary of corrections to the electronic energy:
(perhaps to be used in another calculation)
Total thermal correction                  0.00893806 Eh       5.61 kcal/mol
Non-thermal (ZPE) correction              0.17430556 Eh     109.38 kcal/mol
-----------------------------------------------------------------------
Total correction                          0.18324361 Eh     114.99 kcal/mol

--------
ENTHALPY
--------

The enthalpy is H = U + kB*T
                kB is Boltzmann's constant
Total free energy                 ...   -327.03091053 Eh
Thermal Enthalpy correction       ...      0.00094421 Eh       0.59 kcal/mol
-----------------------------------------------------------------------
Total Enthalpy                    ...   -327.02996632 Eh

-------
ENTROPY
-------

The entropy contributions are T*S = T*(S(el)+S(vib)+S(rot)+S(trans)
     S(el)   - electronic entropy
     S(vib)  - vibrational entropy
     S(rot)  - rotational entropy
     S(trans)- translational entropy
The entropies will be listed as mutliplied by the temperature to get
units of energy

Electronic entropy                ...      0.00000000 Eh      0.00 kcal/mol
Vibrational entropy               ...      0.01119253 Eh      7.02 kcal/mol
Rotational entropy                ...      0.01225477 Eh      7.69 kcal/mol
Translational entropy             ...      0.01890147 Eh     11.86 kcal/mol
-----------------------------------------------------------------------
Final entropy term                ...      0.04234877 Eh     26.57 kcal/mol

CAUTION: The rotational entropy is not quite correctly treated here
         because it includes a symmetry number that is not yet correctly
         implemented in ORCA!
For a nonlinear molecule the correct rotational entropy is:
    S(rot) = R*(ln(qrot/sn)+1.5)
    R    = 8.31441 J/mol/K = 1.987191683e-3 kcal/mol/K
    qrot = 290069.0454910
    sn is the rotational symmetry number. We have assumed 3 here
       if it is different for your molecule then you should correct
       the printed rotational entropy by manually evaluating the equation
       as given above

For convenience we print out the resulting values for sn=1 - 12:
 sn= 1  qrot/sn=  290069.0455 T*S(rot)=     8.34 kcal/mol T*S(tot)=    27.23 kcal/mol
 sn= 2  qrot/sn=  145034.5227 T*S(rot)=     7.93 kcal/mol T*S(tot)=    26.81 kcal/mol
 sn= 3  qrot/sn=   96689.6818 T*S(rot)=     7.69 kcal/mol T*S(tot)=    26.57 kcal/mol
 sn= 4  qrot/sn=   72517.2614 T*S(rot)=     7.52 kcal/mol T*S(tot)=    26.40 kcal/mol
 sn= 5  qrot/sn=   58013.8091 T*S(rot)=     7.39 kcal/mol T*S(tot)=    26.27 kcal/mol
 sn= 6  qrot/sn=   48344.8409 T*S(rot)=     7.28 kcal/mol T*S(tot)=    26.16 kcal/mol
 sn= 7  qrot/sn=   41438.4351 T*S(rot)=     7.19 kcal/mol T*S(tot)=    26.07 kcal/mol
 sn= 8  qrot/sn=   36258.6307 T*S(rot)=     7.11 kcal/mol T*S(tot)=    25.99 kcal/mol
 sn= 9  qrot/sn=   32229.8939 T*S(rot)=     7.04 kcal/mol T*S(tot)=    25.92 kcal/mol
 sn=10  qrot/sn=   29006.9045 T*S(rot)=     6.98 kcal/mol T*S(tot)=    25.86 kcal/mol
 sn=11  qrot/sn=   26369.9132 T*S(rot)=     6.92 kcal/mol T*S(tot)=    25.80 kcal/mol
 sn=12  qrot/sn=   24172.4205 T*S(rot)=     6.87 kcal/mol T*S(tot)=    25.75 kcal/mol

-------------------
GIBBS FREE ENTHALPY
-------------------

The Gibbs free enthalpy is G = H - T*S

Total enthalpy                    ...   -327.02996632 Eh
Total entropy correction          ...     -0.04234877 Eh    -26.57 kcal/mol
-----------------------------------------------------------------------
Final Gibbs free enthalpy         ...   -327.07231509 Eh

For completeness - the Gibbs free enthalpy minus the electronic energy
G-E(el)                           ...      0.14183905 Eh     89.01 kcal/mol

                             ****ORCA TERMINATED NORMALLY****
TOTAL RUN TIME: 0 days 0 hours 43 minutes 4 seconds 739 msec
