                         Program Version 3.0.3 - RELEASE   -
|  1> ! NORI PBE0 def2-TZVP UseSym TightOPT Freq TightSCF Grid3 FinalGrid5 XYZFile
|  2> % pal
|  3>     nprocs 8
|  4> end
|  5> %method
|  6>     SymThresh 5.0e-2
|  7> end
|  8> % geom
|  9>     MaxIter 10
| 10> end
| 11> % maxcore 2000
| 12> % output
| 13>     printlevel mini
| 14>     print[ P_Basis ] 0
| 15>     print[ P_SCFInfo ] 1
| 16>     print[ P_SCFIterInfo ] 1
| 17>     print[ P_OrbEn ] 0
| 18>     print[ P_Cartesian ] 0
| 19> end
| 20> % elprop
| 21>     Dipole false
| 22> end
| 23> *xyz 1 1
| 24>  C        2.8519771062    -0.8371645887    -1.3324935070
| 25>  C        2.6743659001    -0.7184619023     0.1486954383
| 26>  C        2.1599269436    -1.6939815098     0.8894444190
| 27>  C        3.1034677894     0.6020996913     0.7195893912
| 28>  N        2.8808193231     0.6904004596     2.2004099321
| 29>  C        4.5727036191     0.9489544817     0.5027776470
| 30>  O        4.7994750309     2.0991475951     1.2859758605
| 31>  H        2.4129780714    -1.7639890082    -1.6979948727
| 32>  H        3.9085953939    -0.8346880573    -1.6143811296
| 33>  H        2.3747358082    -0.0038654236    -1.8569450341
| 34>  H        1.8565643497    -2.6279028782     0.4331590813
| 35>  H        1.9950883615    -1.6379645991     1.9608441247
| 36>  H        2.5008534256     1.4120158547     0.2944674360
| 37>  H        3.2676766158    -0.1292686875     2.6734212351
| 38>  H        1.8919900886     0.7598264198     2.4387131542
| 39>  H        3.3908746537     1.5255496542     2.5223259309
| 40>  H        4.7362078462     1.1365753481    -0.5614665845
| 41>  H        5.2122711170     0.1116339835     0.8124095211
| 42>  H        5.6942885561     2.4300131669     1.1671779564
| 43> *
| 44>
| 45>                          ****END OF INPUT****
 Total Charge           Charge          ....    1
 Multiplicity           Mult            ....    1
 Number of Electrons    NEL             ....   56
FINAL SINGLE POINT ENERGY      -327.212917654758
FINAL SINGLE POINT ENERGY      -327.212919409295
FINAL SINGLE POINT ENERGY      -327.212921026268

CARTESIAN COORDINATES (ANGSTROEM)
---------------------------------
  C     -1.629165   -0.431770   -1.603267
  C     -0.228621   -0.038937   -1.250557
  C      0.593382    0.541938   -2.117513
  C      0.172873   -0.378458    0.155779
  N      1.593275   -0.000794    0.458469
  C     -0.669498    0.281217    1.241971
  O     -0.004204   -0.008243    2.451133
  H     -1.813076   -0.281532   -2.665740
  H     -2.366124    0.158875   -1.051225
  H     -1.816985   -1.484325   -1.369756
  H      0.263342    0.759489   -3.125761
  H      1.619334    0.824795   -1.904562
  H      0.130257   -1.462143    0.309593
  H      1.775644    0.966539    0.182574
  H      2.262767   -0.602251   -0.020781
  H      1.703880   -0.076652    1.479816
  H     -1.675749   -0.143512    1.213165
  H     -0.740182    1.362552    1.063589
  H     -0.493761    0.329100    3.206678

FINAL SINGLE POINT ENERGY      -327.212921692305
                    ***********************HURRAY********************
 Multiplicity           Mult            ....    1
 Number of Electrons    NEL             ....   56
 Basis Dimension        Dim             ....  289
FINAL SINGLE POINT ENERGY      -327.212922075273

VIBRATIONAL FREQUENCIES
-----------------------

   0:         0.00 cm**-1
   1:         0.00 cm**-1
   2:         0.00 cm**-1
   3:         0.00 cm**-1
   4:         0.00 cm**-1
   5:         0.00 cm**-1
   6:        58.69 cm**-1
   7:       131.66 cm**-1
   8:       178.00 cm**-1
   9:       210.14 cm**-1
  10:       247.25 cm**-1
  11:       287.27 cm**-1
  12:       322.05 cm**-1
  13:       351.85 cm**-1
  14:       380.76 cm**-1
  15:       477.73 cm**-1
  16:       511.10 cm**-1
  17:       554.25 cm**-1
  18:       707.15 cm**-1
  19:       813.39 cm**-1
  20:       901.82 cm**-1
  21:       949.29 cm**-1
  22:       953.91 cm**-1
  23:       975.11 cm**-1
  24:      1006.10 cm**-1
  25:      1040.66 cm**-1
  26:      1064.93 cm**-1
  27:      1108.42 cm**-1
  28:      1123.99 cm**-1
  29:      1181.53 cm**-1
  30:      1226.34 cm**-1
  31:      1259.38 cm**-1
  32:      1289.18 cm**-1
  33:      1341.95 cm**-1
  34:      1413.71 cm**-1
  35:      1417.16 cm**-1
  36:      1430.80 cm**-1
  37:      1452.96 cm**-1
  38:      1472.27 cm**-1
  39:      1473.79 cm**-1
  40:      1493.55 cm**-1
  41:      1516.43 cm**-1
  42:      1633.04 cm**-1
  43:      1661.55 cm**-1
  44:      1734.40 cm**-1
  45:      3025.84 cm**-1
  46:      3049.98 cm**-1
  47:      3073.58 cm**-1
  48:      3106.77 cm**-1
  49:      3111.90 cm**-1
  50:      3161.80 cm**-1
  51:      3163.37 cm**-1
  52:      3245.92 cm**-1
  53:      3343.32 cm**-1
  54:      3464.75 cm**-1
  55:      3527.03 cm**-1
  56:      3867.12 cm**-1

IR SPECTRUM
-----------

 Mode    freq (cm**-1)   T**2         TX         TY         TZ
-------------------------------------------------------------------
   6:        58.69    2.580859  ( -0.594121   1.451518   0.347813)
   7:       131.66    9.434212  ( -1.702658  -2.509259   0.488660)
   8:       178.00    0.395201  ( -0.193446   0.549347   0.236639)
   9:       210.14    7.822647  ( -2.391933  -1.161424   0.867407)
  10:       247.25   28.926419  (  1.302793   5.141131   0.893266)
  11:       287.27   95.699265  (  3.933692   8.279854  -3.416043)
  12:       322.05   23.593751  ( -2.528742  -3.377567  -2.406503)
  13:       351.85   28.870255  (  2.791741  -1.530456  -4.328296)
  14:       380.76    4.600434  (  1.309808   0.519709   1.617016)
  15:       477.73    6.028831  (  1.936674  -1.442060   0.445634)
  16:       511.10   15.532309  ( -1.724202  -1.458639  -3.229831)
  17:       554.25    3.717696  (  0.823491  -1.715922  -0.308498)
  18:       707.15    0.830773  (  0.494941   0.070351   0.762140)
  19:       813.39    1.385275  (  1.165164  -0.155972   0.057797)
  20:       901.82   14.546637  (  0.824545   0.656895  -3.665413)
  21:       949.29   30.141017  (  1.691275  -5.077104  -1.226223)
  22:       953.91   24.268547  (  1.008544  -3.372786  -3.446114)
  23:       975.11    6.353928  ( -0.162988   0.933370  -2.335847)
  24:      1006.10    5.133604  (  2.217936  -0.434837   0.159004)
  25:      1040.66   41.748146  (  2.638892  -1.900239   5.583322)
  26:      1064.93   33.461579  ( -1.989958   1.030535  -5.332883)
  27:      1108.42   62.128855  ( -2.498626   0.908125  -7.420312)
  28:      1123.99   12.852490  ( -0.478256  -0.563362   3.508046)
  29:      1181.53    7.788165  ( -2.116199   1.190105   1.376050)
  30:      1226.34   31.558798  ( -3.074634   2.164063  -4.173998)
  31:      1259.38    6.375621  ( -0.349368   0.333723   2.478345)
  32:      1289.18    0.954942  ( -0.112955  -0.620265  -0.746629)
  33:      1341.95    4.871963  (  1.267147  -1.289303   1.266492)
  34:      1413.71    7.207915  (  2.292037  -0.372919   1.347373)
  35:      1417.16    2.912744  ( -0.287430   1.422534  -0.898068)
  36:      1430.80   35.776620  (  5.810882   0.743293   1.207386)
  37:      1452.96    1.767916  ( -1.277025   0.333927  -0.160050)
  38:      1472.27  145.324498  ( 11.412832   0.106378   3.880778)
  39:      1473.79   22.943484  (  1.995091   3.619199   2.421672)
  40:      1493.55   59.893349  ( -6.549688  -2.354239   3.384154)
  41:      1516.43    4.519579  ( -1.628667   0.591543   1.231705)
  42:      1633.04   44.468588  (  1.850203  -6.365018   0.729300)
  43:      1661.55   32.425153  ( -0.401236   2.668060   5.014541)
  44:      1734.40   11.267274  (  2.482081   1.687611  -1.502837)
  45:      3025.84   15.670695  (  1.335126  -2.876226   2.369696)
  46:      3049.98    3.593322  ( -1.398311  -0.573744   1.144057)
  47:      3073.58    1.972488  ( -0.181574   0.784369  -1.150775)
  48:      3106.77    7.059872  (  0.666466   2.430849   0.840635)
  49:      3111.90    2.526972  (  1.514457  -0.076830   0.476959)
  50:      3161.80    9.316298  ( -2.339523  -0.192730  -1.950843)
  51:      3163.37    2.346966  ( -0.189466   0.265096  -1.496928)
  52:      3245.92    3.178049  (  1.674817   0.592840   0.146894)
  53:      3343.32  119.797279  (  1.227562   0.084481  10.875810)
  54:      3464.75   80.163402  (  3.907979   3.703037  -7.153923)
  55:      3527.03   96.217939  ( -5.598488   7.448882   3.064153)
  56:      3867.12  146.318570  ( -3.913232   2.692344  11.124589)

--------------------------
THERMOCHEMISTRY AT 298.15K
--------------------------

Temperature         ... 298.15 K
Pressure            ... 1.00 atm
Total Mass          ... 102.16 AMU

Throughout the following assumptions are being made:
  (1) The electronic state is orbitally nondegenerate
  (2) There are no thermally accessible electronically excited states
  (3) Hindered rotations indicated by low frequency modes) are not
      treated as such but are treated as vibrations and this may
      case some error
  (4) All equations used are the standard statistical mechanics
      equations for an ideal gas
  (5) All vibrations are strinctly harmonic

------------
INNER ENERGY
------------

The inner energy is: U= E(el) + E(ZPE) + E(vib) + E(rot) + E(trans)
    E(el)   - is the total energy from the electronic structure calculation
              = E(kin-el) + E(nuc-el) + E(el-el) + E(nuc-nuc)
    E(ZPE)  - the the zero temperature vibrational energy from the frequency calculation
    E(vib)  - the the finite temperature correction to E(ZPE) due to population
              of excietd vibrational states
    E(rot)  - is the rotational thermal energy
    E(trans)- is the translational thermal energy

Summary of contributions to the inner energy U:
Electronic energy                ...   -327.21292208 Eh
Zero point energy                ...      0.17426827 Eh     109.35 kcal/mol
Thermal vibrational correction   ...      0.00591771 Eh       3.71 kcal/mol
Thermal rotational correction    ...      0.00141627 Eh       0.89 kcal/mol
Thermal translational correction ...      0.00141627 Eh       0.89 kcal/mol
-----------------------------------------------------------------------
Total thermal energy                   -327.02990355 Eh

Summary of corrections to the electronic energy:
(perhaps to be used in another calculation)
Total thermal correction                  0.00875026 Eh       5.49 kcal/mol
Non-thermal (ZPE) correction              0.17426827 Eh     109.35 kcal/mol
-----------------------------------------------------------------------
Total correction                          0.18301853 Eh     114.85 kcal/mol

--------
ENTHALPY
--------

The enthalpy is H = U + kB*T
                kB is Boltzmann's constant
Total free energy                 ...   -327.02990355 Eh
Thermal Enthalpy correction       ...      0.00094421 Eh       0.59 kcal/mol
-----------------------------------------------------------------------
Total Enthalpy                    ...   -327.02895934 Eh

-------
ENTROPY
-------

The entropy contributions are T*S = T*(S(el)+S(vib)+S(rot)+S(trans)
     S(el)   - electronic entropy
     S(vib)  - vibrational entropy
     S(rot)  - rotational entropy
     S(trans)- translational entropy
The entropies will be listed as mutliplied by the temperature to get
units of energy

Electronic entropy                ...      0.00000000 Eh      0.00 kcal/mol
Vibrational entropy               ...      0.01047650 Eh      6.57 kcal/mol
Rotational entropy                ...      0.01219117 Eh      7.65 kcal/mol
Translational entropy             ...      0.01890147 Eh     11.86 kcal/mol
-----------------------------------------------------------------------
Final entropy term                ...      0.04156914 Eh     26.08 kcal/mol

CAUTION: The rotational entropy is not quite correctly treated here
         because it includes a symmetry number that is not yet correctly
         implemented in ORCA!
For a nonlinear molecule the correct rotational entropy is:
    S(rot) = R*(ln(qrot/sn)+1.5)
    R    = 8.31441 J/mol/K = 1.987191683e-3 kcal/mol/K
    qrot = 271172.8049390
    sn is the rotational symmetry number. We have assumed 3 here
       if it is different for your molecule then you should correct
       the printed rotational entropy by manually evaluating the equation
       as given above

For convenience we print out the resulting values for sn=1 - 12:
 sn= 1  qrot/sn=  271172.8049 T*S(rot)=     8.30 kcal/mol T*S(tot)=    26.74 kcal/mol
 sn= 2  qrot/sn=  135586.4025 T*S(rot)=     7.89 kcal/mol T*S(tot)=    26.33 kcal/mol
 sn= 3  qrot/sn=   90390.9350 T*S(rot)=     7.65 kcal/mol T*S(tot)=    26.08 kcal/mol
 sn= 4  qrot/sn=   67793.2012 T*S(rot)=     7.48 kcal/mol T*S(tot)=    25.91 kcal/mol
 sn= 5  qrot/sn=   54234.5610 T*S(rot)=     7.35 kcal/mol T*S(tot)=    25.78 kcal/mol
 sn= 6  qrot/sn=   45195.4675 T*S(rot)=     7.24 kcal/mol T*S(tot)=    25.67 kcal/mol
 sn= 7  qrot/sn=   38738.9721 T*S(rot)=     7.15 kcal/mol T*S(tot)=    25.58 kcal/mol
 sn= 8  qrot/sn=   33896.6006 T*S(rot)=     7.07 kcal/mol T*S(tot)=    25.50 kcal/mol
 sn= 9  qrot/sn=   30130.3117 T*S(rot)=     7.00 kcal/mol T*S(tot)=    25.43 kcal/mol
 sn=10  qrot/sn=   27117.2805 T*S(rot)=     6.94 kcal/mol T*S(tot)=    25.37 kcal/mol
 sn=11  qrot/sn=   24652.0732 T*S(rot)=     6.88 kcal/mol T*S(tot)=    25.32 kcal/mol
 sn=12  qrot/sn=   22597.7337 T*S(rot)=     6.83 kcal/mol T*S(tot)=    25.26 kcal/mol

-------------------
GIBBS FREE ENTHALPY
-------------------

The Gibbs free enthalpy is G = H - T*S

Total enthalpy                    ...   -327.02895934 Eh
Total entropy correction          ...     -0.04156914 Eh    -26.08 kcal/mol
-----------------------------------------------------------------------
Final Gibbs free enthalpy         ...   -327.07052848 Eh

For completeness - the Gibbs free enthalpy minus the electronic energy
G-E(el)                           ...      0.14239360 Eh     89.35 kcal/mol

                             ****ORCA TERMINATED NORMALLY****
TOTAL RUN TIME: 0 days 0 hours 47 minutes 27 seconds 21 msec
