                         Program Version 3.0.3 - RELEASE   -
|  1> ! NORI PBE0 def2-TZVP UseSym TightOPT Freq TightSCF Grid3 FinalGrid5 XYZFile
|  2> % pal
|  3>     nprocs 8
|  4> end
|  5> %method
|  6>     SymThresh 5.0e-2
|  7> end
|  8> % geom
|  9>     MaxIter 10
| 10> end
| 11> % maxcore 2000
| 12> % output
| 13>     printlevel mini
| 14>     print[ P_Basis ] 0
| 15>     print[ P_SCFInfo ] 1
| 16>     print[ P_SCFIterInfo ] 1
| 17>     print[ P_OrbEn ] 0
| 18>     print[ P_Cartesian ] 0
| 19> end
| 20> % elprop
| 21>     Dipole false
| 22> end
| 23> *xyz 1 1
| 24>  C        1.0165572790     0.1597876246    -0.0061251752
| 25>  C        2.5429298716     0.0806717913    -0.0068687503
| 26>  C        3.1317954125     1.3638430883    -0.5903511793
| 27>  C        3.0824642511    -0.0492762661     1.4184440497
| 28>  N        2.4938734585    -1.2403129668     2.1203536609
| 29>  C        3.0265686767    -1.0909805567    -0.8611784345
| 30>  O        2.6420545581    -2.3188844293    -0.2374028061
| 31>  H        0.6561113614     0.3932998623    -1.0093771283
| 32>  H        0.6620759444     0.9543450331     0.6562503804
| 33>  H        0.5394552638    -0.7814667473     0.2802599611
| 34>  H        2.8317761521     1.4775422464    -1.6338859616
| 35>  H        4.2242736962     1.3645730503    -0.5527459074
| 36>  H        2.7700415460     2.2398905963    -0.0482534601
| 37>  H        2.8507510110     0.8353700468     2.0131573865
| 38>  H        4.1644256524    -0.1947081568     1.4171348770
| 39>  H        1.5100831727    -1.0884030947     2.3410708622
| 40>  H        2.9855184283    -1.4616763244     2.9846781491
| 41>  H        2.5532043745    -2.0320636441     1.4402360670
| 42>  H        2.5796331034    -1.0189525712    -1.8565899357
| 43>  H        4.1169294329    -1.0520933278    -0.9673932055
| 44>  H        2.8570073533    -3.0678652542    -0.8002334498
| 45> *
| 46>
| 47>                          ****END OF INPUT****
 Total Charge           Charge          ....    1
 Multiplicity           Mult            ....    1
 Number of Electrons    NEL             ....   58
FINAL SINGLE POINT ENERGY      -328.450256750803
FINAL SINGLE POINT ENERGY      -328.450258113988
FINAL SINGLE POINT ENERGY      -328.450259672195
FINAL SINGLE POINT ENERGY      -328.450260726652

CARTESIAN COORDINATES (ANGSTROEM)
---------------------------------
  C     -0.405330    1.532215   -0.623123
  C     -0.441579    0.010528   -0.480017
  C     -1.379635   -0.590292   -1.525163
  C      0.942368   -0.592847   -0.725045
  N      1.969663   -0.000129    0.197254
  C     -0.953999   -0.392831    0.902355
  O     -0.000419    0.002094    1.892415
  H     -1.420171    1.932611   -0.597241
  H      0.034380    1.829391   -1.579284
  H      0.140461    2.023346    0.187086
  H     -2.402196   -0.246720   -1.357877
  H     -1.382969   -1.682738   -1.490799
  H     -1.090113   -0.281605   -2.531735
  H      1.274944   -0.419009   -1.749205
  H      0.940695   -1.667909   -0.536879
  H      2.173905    0.967316   -0.051863
  H      2.843388   -0.524135    0.189542
  H      1.537947   -0.003038    1.148575
  H     -1.913628    0.098591    1.087920
  H     -1.106226   -1.477512    0.943821
  H     -0.341431   -0.161716    2.776028

FINAL SINGLE POINT ENERGY      -328.450261046065
                    ***********************HURRAY********************
 Multiplicity           Mult            ....    1
 Number of Electrons    NEL             ....   58
 Basis Dimension        Dim             ....  301
FINAL SINGLE POINT ENERGY      -328.450261203633

VIBRATIONAL FREQUENCIES
-----------------------

   0:         0.00 cm**-1
   1:         0.00 cm**-1
   2:         0.00 cm**-1
   3:         0.00 cm**-1
   4:         0.00 cm**-1
   5:         0.00 cm**-1
   6:       122.42 cm**-1
   7:       183.78 cm**-1
   8:       226.53 cm**-1
   9:       255.93 cm**-1
  10:       257.20 cm**-1
  11:       301.75 cm**-1
  12:       311.91 cm**-1
  13:       320.95 cm**-1
  14:       350.42 cm**-1
  15:       375.94 cm**-1
  16:       402.17 cm**-1
  17:       437.10 cm**-1
  18:       556.19 cm**-1
  19:       741.19 cm**-1
  20:       858.91 cm**-1
  21:       900.97 cm**-1
  22:       932.12 cm**-1
  23:       961.84 cm**-1
  24:       984.42 cm**-1
  25:       986.92 cm**-1
  26:      1028.69 cm**-1
  27:      1059.83 cm**-1
  28:      1086.52 cm**-1
  29:      1123.81 cm**-1
  30:      1192.44 cm**-1
  31:      1234.76 cm**-1
  32:      1258.73 cm**-1
  33:      1297.72 cm**-1
  34:      1319.39 cm**-1
  35:      1362.77 cm**-1
  36:      1398.56 cm**-1
  37:      1403.64 cm**-1
  38:      1416.79 cm**-1
  39:      1450.24 cm**-1
  40:      1474.81 cm**-1
  41:      1483.67 cm**-1
  42:      1486.86 cm**-1
  43:      1498.75 cm**-1
  44:      1507.20 cm**-1
  45:      1513.59 cm**-1
  46:      1516.72 cm**-1
  47:      1637.78 cm**-1
  48:      1676.42 cm**-1
  49:      3037.91 cm**-1
  50:      3048.92 cm**-1
  51:      3055.59 cm**-1
  52:      3076.49 cm**-1
  53:      3095.00 cm**-1
  54:      3096.47 cm**-1
  55:      3121.08 cm**-1
  56:      3132.21 cm**-1
  57:      3136.98 cm**-1
  58:      3141.30 cm**-1
  59:      3152.16 cm**-1
  60:      3481.52 cm**-1
  61:      3541.93 cm**-1
  62:      3866.17 cm**-1

IR SPECTRUM
-----------

 Mode    freq (cm**-1)   T**2         TX         TY         TZ
-------------------------------------------------------------------
   6:       122.42   10.873690  (  0.616171  -3.121636   0.865685)
   7:       183.78    3.121322  ( -0.864013  -0.390976   1.490618)
   8:       226.53    0.271311  ( -0.134289   0.388846  -0.319493)
   9:       255.93    4.852533  ( -0.885914  -2.016518  -0.036698)
  10:       257.20    1.222798  ( -1.051541   0.007591   0.342056)
  11:       301.75   59.904724  (  0.744466  -7.499247   1.764026)
  12:       311.91   77.491466  (  4.657389  -6.491498  -3.696031)
  13:       320.95    6.635448  (  1.589005   1.961667  -0.512225)
  14:       350.42   20.370493  (  3.479898   0.333854  -2.854706)
  15:       375.94   12.577875  ( -3.023317   1.764347  -0.569657)
  16:       402.17    3.669263  (  1.757225  -0.704516  -0.291685)
  17:       437.10   10.077906  ( -2.644050   0.997143  -1.446586)
  18:       556.19    9.632246  (  1.123481  -0.685008  -2.810836)
  19:       741.19    7.033814  (  0.877602  -0.825996  -2.362490)
  20:       858.91   21.203876  (  0.649870   1.590013  -4.272400)
  21:       900.97    2.921513  (  1.598794  -0.522479   0.303951)
  22:       932.12    1.791280  (  0.075154  -0.754335  -1.103000)
  23:       961.84    2.712326  ( -1.188410  -0.937003  -0.649641)
  24:       984.42    8.138528  (  2.785501   0.597824   0.148717)
  25:       986.92    8.441839  (  0.314446   0.167269   2.883571)
  26:      1028.69   16.613473  ( -3.697296   1.443898   0.926625)
  27:      1059.83   62.072107  (  5.466813   2.179342   5.237989)
  28:      1086.52    9.319571  (  2.311116  -1.380457   1.439671)
  29:      1123.81   36.017284  (  2.988634  -1.490751  -4.986283)
  30:      1192.44   34.476955  ( -5.365060  -0.634387  -2.300139)
  31:      1234.76    2.431500  ( -0.981699   1.062922   0.581347)
  32:      1258.73   30.604538  ( -2.904835  -2.430143  -4.032478)
  33:      1297.72    2.927835  (  1.339073   1.049749   0.180962)
  34:      1319.39    1.340445  ( -0.600273  -0.194266   0.970761)
  35:      1362.77   10.384101  ( -0.336496   0.943138  -3.062901)
  36:      1398.56    2.034575  (  0.695797  -1.198316   0.338353)
  37:      1403.64    9.756596  ( -0.477057  -3.081032  -0.190409)
  38:      1416.79    4.015996  ( -0.391251   1.081311  -1.641245)
  39:      1450.24   15.555608  ( -3.469689   0.295582  -1.851891)
  40:      1474.81    3.682546  ( -1.494018  -0.532901  -1.080034)
  41:      1483.67    4.182220  ( -0.988458  -1.683827  -0.608193)
  42:      1486.86   20.699569  (  3.050294   2.060436   2.673925)
  43:      1498.75   10.315919  (  1.984210  -2.518232   0.193226)
  44:      1507.20  125.418857  (-10.439669  -1.725694  -3.667991)
  45:      1513.59   50.300267  (  6.270209   0.581286  -3.262952)
  46:      1516.72   36.880567  (  5.046865   3.119107   1.296492)
  47:      1637.78   16.758715  (  0.702305   3.742088  -1.504081)
  48:      1676.42   37.273318  ( -5.040994   3.394282   0.583568)
  49:      3037.91   37.876970  (  4.888322   3.361853  -1.636833)
  50:      3048.92    8.500046  (  1.143010   2.458885   1.071196)
  51:      3055.59    5.069449  (  1.499449   1.563210   0.614393)
  52:      3076.49  377.800458  ( 11.730295  -0.404929 -15.493117)
  53:      3095.00   39.621965  (  3.826522   1.467276  -4.777740)
  54:      3096.47   12.223946  (  2.391185  -2.522223  -0.380223)
  55:      3121.08   12.096064  (  1.048467   0.906092   3.189950)
  56:      3132.21   10.467091  ( -0.225416  -2.884595   1.447546)
  57:      3136.98    4.416215  ( -2.085439   0.075902   0.247782)
  58:      3141.30   13.064134  (  2.759496  -0.594194  -2.257487)
  59:      3152.16    1.619332  (  0.470826  -1.157045   0.242697)
  60:      3481.52   77.087855  (  7.891509   2.824729  -2.613971)
  61:      3541.93   87.485271  (  5.107694  -7.771612   0.999396)
  62:      3866.17  123.653331  (  2.054196   0.982181 -10.884343)

--------------------------
THERMOCHEMISTRY AT 298.15K
--------------------------

Temperature         ... 298.15 K
Pressure            ... 1.00 atm
Total Mass          ... 104.17 AMU

Throughout the following assumptions are being made:
  (1) The electronic state is orbitally nondegenerate
  (2) There are no thermally accessible electronically excited states
  (3) Hindered rotations indicated by low frequency modes) are not
      treated as such but are treated as vibrations and this may
      case some error
  (4) All equations used are the standard statistical mechanics
      equations for an ideal gas
  (5) All vibrations are strinctly harmonic

------------
INNER ENERGY
------------

The inner energy is: U= E(el) + E(ZPE) + E(vib) + E(rot) + E(trans)
    E(el)   - is the total energy from the electronic structure calculation
              = E(kin-el) + E(nuc-el) + E(el-el) + E(nuc-nuc)
    E(ZPE)  - the the zero temperature vibrational energy from the frequency calculation
    E(vib)  - the the finite temperature correction to E(ZPE) due to population
              of excietd vibrational states
    E(rot)  - is the rotational thermal energy
    E(trans)- is the translational thermal energy

Summary of contributions to the inner energy U:
Electronic energy                ...   -328.45026120 Eh
Zero point energy                ...      0.19793202 Eh     124.20 kcal/mol
Thermal vibrational correction   ...      0.00607145 Eh       3.81 kcal/mol
Thermal rotational correction    ...      0.00141627 Eh       0.89 kcal/mol
Thermal translational correction ...      0.00141627 Eh       0.89 kcal/mol
-----------------------------------------------------------------------
Total thermal energy                   -328.24342519 Eh

Summary of corrections to the electronic energy:
(perhaps to be used in another calculation)
Total thermal correction                  0.00890399 Eh       5.59 kcal/mol
Non-thermal (ZPE) correction              0.19793202 Eh     124.20 kcal/mol
-----------------------------------------------------------------------
Total correction                          0.20683602 Eh     129.79 kcal/mol

--------
ENTHALPY
--------

The enthalpy is H = U + kB*T
                kB is Boltzmann's constant
Total free energy                 ...   -328.24342519 Eh
Thermal Enthalpy correction       ...      0.00094421 Eh       0.59 kcal/mol
-----------------------------------------------------------------------
Total Enthalpy                    ...   -328.24248098 Eh

-------
ENTROPY
-------

The entropy contributions are T*S = T*(S(el)+S(vib)+S(rot)+S(trans)
     S(el)   - electronic entropy
     S(vib)  - vibrational entropy
     S(rot)  - rotational entropy
     S(trans)- translational entropy
The entropies will be listed as mutliplied by the temperature to get
units of energy

Electronic entropy                ...      0.00000000 Eh      0.00 kcal/mol
Vibrational entropy               ...      0.00990921 Eh      6.22 kcal/mol
Rotational entropy                ...      0.01210246 Eh      7.59 kcal/mol
Translational entropy             ...      0.01892914 Eh     11.88 kcal/mol
-----------------------------------------------------------------------
Final entropy term                ...      0.04094081 Eh     25.69 kcal/mol

CAUTION: The rotational entropy is not quite correctly treated here
         because it includes a symmetry number that is not yet correctly
         implemented in ORCA!
For a nonlinear molecule the correct rotational entropy is:
    S(rot) = R*(ln(qrot/sn)+1.5)
    R    = 8.31441 J/mol/K = 1.987191683e-3 kcal/mol/K
    qrot = 246855.0572063
    sn is the rotational symmetry number. We have assumed 3 here
       if it is different for your molecule then you should correct
       the printed rotational entropy by manually evaluating the equation
       as given above

For convenience we print out the resulting values for sn=1 - 12:
 sn= 1  qrot/sn=  246855.0572 T*S(rot)=     8.25 kcal/mol T*S(tot)=    26.34 kcal/mol
 sn= 2  qrot/sn=  123427.5286 T*S(rot)=     7.83 kcal/mol T*S(tot)=    25.93 kcal/mol
 sn= 3  qrot/sn=   82285.0191 T*S(rot)=     7.59 kcal/mol T*S(tot)=    25.69 kcal/mol
 sn= 4  qrot/sn=   61713.7643 T*S(rot)=     7.42 kcal/mol T*S(tot)=    25.52 kcal/mol
 sn= 5  qrot/sn=   49371.0114 T*S(rot)=     7.29 kcal/mol T*S(tot)=    25.39 kcal/mol
 sn= 6  qrot/sn=   41142.5095 T*S(rot)=     7.18 kcal/mol T*S(tot)=    25.28 kcal/mol
 sn= 7  qrot/sn=   35265.0082 T*S(rot)=     7.09 kcal/mol T*S(tot)=    25.19 kcal/mol
 sn= 8  qrot/sn=   30856.8822 T*S(rot)=     7.01 kcal/mol T*S(tot)=    25.11 kcal/mol
 sn= 9  qrot/sn=   27428.3397 T*S(rot)=     6.94 kcal/mol T*S(tot)=    25.04 kcal/mol
 sn=10  qrot/sn=   24685.5057 T*S(rot)=     6.88 kcal/mol T*S(tot)=    24.98 kcal/mol
 sn=11  qrot/sn=   22441.3688 T*S(rot)=     6.82 kcal/mol T*S(tot)=    24.92 kcal/mol
 sn=12  qrot/sn=   20571.2548 T*S(rot)=     6.77 kcal/mol T*S(tot)=    24.87 kcal/mol

-------------------
GIBBS FREE ENTHALPY
-------------------

The Gibbs free enthalpy is G = H - T*S

Total enthalpy                    ...   -328.24248098 Eh
Total entropy correction          ...     -0.04094081 Eh    -25.69 kcal/mol
-----------------------------------------------------------------------
Final Gibbs free enthalpy         ...   -328.28342179 Eh

For completeness - the Gibbs free enthalpy minus the electronic energy
G-E(el)                           ...      0.16683942 Eh    104.69 kcal/mol

                             ****ORCA TERMINATED NORMALLY****
TOTAL RUN TIME: 0 days 0 hours 59 minutes 56 seconds 103 msec
