                         Program Version 3.0.3 - RELEASE   -
|  1> ! NORI PBE0 def2-TZVP UseSym TightOPT Freq TightSCF Grid3 FinalGrid5 XYZFile
|  2> % pal
|  3>     nprocs 8
|  4> end
|  5> %method
|  6>     SymThresh 5.0e-2
|  7> end
|  8> % geom
|  9>     MaxIter 10
| 10> end
| 11> % maxcore 2000
| 12> % output
| 13>     printlevel mini
| 14>     print[ P_Basis ] 0
| 15>     print[ P_SCFInfo ] 1
| 16>     print[ P_SCFIterInfo ] 1
| 17>     print[ P_OrbEn ] 0
| 18>     print[ P_Cartesian ] 0
| 19> end
| 20> % elprop
| 21>     Dipole false
| 22> end
| 23> *xyz 1 1
| 24>  C        1.5328315935     0.4207804268     0.8409359877
| 25>  C        2.4497779817    -0.4708282655     0.0125134290
| 26>  C        1.6694533816    -1.5584383337    -0.7164419254
| 27>  C        3.3465829399     0.3048068702    -0.9499376676
| 28>  N        2.4923835677     1.0735775187    -1.9295819118
| 29>  C        4.3145162525     1.2878994777    -0.3062485788
| 30>  O        5.1042909384     0.5273468231     0.5535795907
| 31>  H        2.0771294224     1.1836693194     1.4003997430
| 32>  H        0.9963628686    -0.1858598058     1.5716229724
| 33>  H        0.7579225808     0.9107174528     0.2380727977
| 34>  H        3.1588731718    -0.9545966856     0.6903219260
| 35>  H        0.8760910304    -1.1560927978    -1.3601921420
| 36>  H        1.1616293202    -2.2035373405     0.0017908025
| 37>  H        2.3198986335    -2.1940243684    -1.3225989322
| 38>  H        3.9205656768    -0.4003184544    -1.5568887628
| 39>  H        1.9212421941     1.7648656197    -1.4378468635
| 40>  H        1.8559013477     0.4365225939    -2.4135901214
| 41>  H        3.0537995520     1.5605390249    -2.6300751887
| 42>  H        3.7607701968     2.0767019005     0.2257643903
| 43>  H        4.9134305626     1.7737412753    -1.0922766430
| 44>  H        5.7909367869     1.0737877488     0.9461870980
| 45> *
| 46>
| 47>                          ****END OF INPUT****
 Total Charge           Charge          ....    1
 Multiplicity           Mult            ....    1
 Number of Electrons    NEL             ....   58
FINAL SINGLE POINT ENERGY      -328.432672370507
FINAL SINGLE POINT ENERGY      -328.432677731828
FINAL SINGLE POINT ENERGY      -328.432684954949
FINAL SINGLE POINT ENERGY      -328.432687391515
FINAL SINGLE POINT ENERGY      -328.432691399359

CARTESIAN COORDINATES (ANGSTROEM)
---------------------------------
  C     -1.203615    1.239225   -0.807153
  C     -0.871373   -0.201273   -0.437743
  C     -1.167656   -1.162155   -1.584237
  C      0.552008   -0.385434    0.083421
  N      1.539454   -0.024999   -1.001738
  C      0.912916    0.421888    1.322485
  O     -0.005038    0.042456    2.299547
  H     -1.070157    1.929073    0.027652
  H     -2.248918    1.305976   -1.111426
  H     -0.622370    1.607183   -1.662250
  H     -1.495090   -0.485151    0.414549
  H     -0.643417   -0.895609   -2.511150
  H     -2.229471   -1.135782   -1.831356
  H     -0.919010   -2.195449   -1.328492
  H      0.725851   -1.444389    0.292118
  H      1.446235    0.961461   -1.254929
  H      1.352462   -0.577977   -1.840786
  H      2.504643   -0.192105   -0.713006
  H      0.863997    1.499110    1.100821
  H      1.947845    0.189164    1.618152
  H      0.203780    0.468739    3.135540

FINAL SINGLE POINT ENERGY      -328.432692141257
                    ***********************HURRAY********************
 Multiplicity           Mult            ....    1
 Number of Electrons    NEL             ....   58
 Basis Dimension        Dim             ....  301
FINAL SINGLE POINT ENERGY      -328.432692786541

VIBRATIONAL FREQUENCIES
-----------------------

   0:         0.00 cm**-1
   1:         0.00 cm**-1
   2:         0.00 cm**-1
   3:         0.00 cm**-1
   4:         0.00 cm**-1
   5:         0.00 cm**-1
   6:        42.55 cm**-1
   7:       108.34 cm**-1
   8:       176.14 cm**-1
   9:       211.47 cm**-1
  10:       232.95 cm**-1
  11:       236.81 cm**-1
  12:       256.32 cm**-1
  13:       271.99 cm**-1
  14:       286.08 cm**-1
  15:       374.16 cm**-1
  16:       435.74 cm**-1
  17:       503.38 cm**-1
  18:       560.08 cm**-1
  19:       742.28 cm**-1
  20:       888.53 cm**-1
  21:       927.96 cm**-1
  22:       940.63 cm**-1
  23:       950.44 cm**-1
  24:       969.43 cm**-1
  25:       976.16 cm**-1
  26:      1055.20 cm**-1
  27:      1115.20 cm**-1
  28:      1156.73 cm**-1
  29:      1165.41 cm**-1
  30:      1178.05 cm**-1
  31:      1206.17 cm**-1
  32:      1255.43 cm**-1
  33:      1280.77 cm**-1
  34:      1329.47 cm**-1
  35:      1358.67 cm**-1
  36:      1390.04 cm**-1
  37:      1392.52 cm**-1
  38:      1406.54 cm**-1
  39:      1428.48 cm**-1
  40:      1467.25 cm**-1
  41:      1469.19 cm**-1
  42:      1481.74 cm**-1
  43:      1494.05 cm**-1
  44:      1496.11 cm**-1
  45:      1510.91 cm**-1
  46:      1522.58 cm**-1
  47:      1645.42 cm**-1
  48:      1657.32 cm**-1
  49:      2980.97 cm**-1
  50:      3012.58 cm**-1
  51:      3022.23 cm**-1
  52:      3028.00 cm**-1
  53:      3088.41 cm**-1
  54:      3098.36 cm**-1
  55:      3105.66 cm**-1
  56:      3117.90 cm**-1
  57:      3144.17 cm**-1
  58:      3148.93 cm**-1
  59:      3419.34 cm**-1
  60:      3496.50 cm**-1
  61:      3512.26 cm**-1
  62:      3866.43 cm**-1

IR SPECTRUM
-----------

 Mode    freq (cm**-1)   T**2         TX         TY         TZ
-------------------------------------------------------------------
   6:        42.55    5.197570  ( -0.661513   2.181061   0.054240)
   7:       108.34    6.330177  ( -2.062435   0.672120  -1.274673)
   8:       176.14    2.021656  ( -0.759475   1.172606  -0.264288)
   9:       211.47    0.680417  (  0.307807   0.759269   0.095821)
  10:       232.95    7.315160  (  0.534750  -2.593180   0.551921)
  11:       236.81    4.007107  (  1.050767  -1.684271   0.257342)
  12:       256.32   86.326260  ( -4.775758   7.598896  -2.403159)
  13:       271.99   43.926243  ( -5.899287   2.056905  -2.212193)
  14:       286.08   12.031660  ( -2.278325   2.438393  -0.946117)
  15:       374.16    0.302637  (  0.398715   0.158831   0.344146)
  16:       435.74    9.249565  ( -0.825288   0.349577   2.906245)
  17:       503.38   12.580036  (  1.346362   0.596163  -3.226753)
  18:       560.08   12.283390  (  3.002721  -0.146562  -1.801548)
  19:       742.28    0.654903  (  0.431375  -0.484650  -0.483666)
  20:       888.53   15.969658  (  1.199456  -1.198058  -3.618787)
  21:       927.96    3.231698  (  0.654592   1.553981   0.623177)
  22:       940.63    5.515381  ( -1.373087  -0.728203  -1.760606)
  23:       950.44   10.848577  (  3.142492  -0.615364   0.771133)
  24:       969.43    1.953617  ( -0.326993  -0.389404  -1.301944)
  25:       976.16   11.277507  (  1.380151   2.754910  -1.335351)
  26:      1055.20    5.164787  ( -2.228882   0.443130   0.022506)
  27:      1115.20   65.663024  ( -5.360645  -3.007961   5.280026)
  28:      1156.73   32.630962  ( -4.775943  -0.485202  -3.096112)
  29:      1165.41   20.892879  ( -2.026633  -0.074316   4.096354)
  30:      1178.05    3.963478  (  1.822419   0.088356  -0.796530)
  31:      1206.17    6.450139  ( -1.470227  -0.741451   1.933603)
  32:      1255.43   17.897982  ( -2.340491  -0.809439   3.429999)
  33:      1280.77   24.923977  ( -2.676090  -1.522924   3.929787)
  34:      1329.47    0.713038  ( -0.197026   0.272837  -0.774454)
  35:      1358.67    2.150652  (  0.283379  -1.423647   0.208753)
  36:      1390.04    2.658304  (  0.157171   1.387489   0.841709)
  37:      1392.52    2.528807  ( -0.294953   1.216815   0.980393)
  38:      1406.54   10.816230  (  0.284992  -3.242255  -0.472005)
  39:      1428.48   10.291531  (  2.616058  -1.195681   1.420605)
  40:      1467.25    4.979222  (  1.391488   0.982583  -1.441358)
  41:      1469.19   70.149913  (  7.065772   1.056417  -4.371358)
  42:      1481.74   75.265008  (  6.904172   1.279138  -5.095216)
  43:      1494.05    9.944863  ( -0.988274   1.712862   2.456478)
  44:      1496.11    4.265531  (  1.881584  -0.453718   0.720634)
  45:      1510.91   62.540020  (  3.720690   2.679174  -6.443486)
  46:      1522.58    4.845405  (  0.769469   1.555971   1.353617)
  47:      1645.42   39.892054  ( -0.587163   5.875861   2.240881)
  48:      1657.32   43.721283  (  6.005486  -1.202449   2.491895)
  49:      2980.97   41.554980  ( -5.448838  -2.760373   2.060457)
  50:      3012.58   26.509067  ( -3.222248   3.389553  -2.153396)
  51:      3022.23   16.179010  (  2.435470  -1.167749  -2.980580)
  52:      3028.00   33.597003  (  3.477462   2.682889  -3.782376)
  53:      3088.41    2.733161  (  0.830723   0.944007  -1.073271)
  54:      3098.36    2.200409  ( -1.247937   0.756605   0.265731)
  55:      3105.66   11.918841  (  0.115837   3.321982  -0.932663)
  56:      3117.90    9.820248  (  1.544250  -0.210249  -2.718701)
  57:      3144.17    3.456971  ( -1.266746   1.358894  -0.075703)
  58:      3148.93    5.454724  ( -1.104472  -1.052086  -1.768610)
  59:      3419.34   25.274398  ( -2.320724  -0.886043   4.370763)
  60:      3496.50   83.309443  ( -0.112617   8.522871   3.264573)
  61:      3512.26   99.248281  (  8.467238  -1.208436   5.108213)
  62:      3866.43  115.136955  ( -0.017344  -2.956002 -10.314975)

--------------------------
THERMOCHEMISTRY AT 298.15K
--------------------------

Temperature         ... 298.15 K
Pressure            ... 1.00 atm
Total Mass          ... 104.17 AMU

Throughout the following assumptions are being made:
  (1) The electronic state is orbitally nondegenerate
  (2) There are no thermally accessible electronically excited states
  (3) Hindered rotations indicated by low frequency modes) are not
      treated as such but are treated as vibrations and this may
      case some error
  (4) All equations used are the standard statistical mechanics
      equations for an ideal gas
  (5) All vibrations are strinctly harmonic

------------
INNER ENERGY
------------

The inner energy is: U= E(el) + E(ZPE) + E(vib) + E(rot) + E(trans)
    E(el)   - is the total energy from the electronic structure calculation
              = E(kin-el) + E(nuc-el) + E(el-el) + E(nuc-nuc)
    E(ZPE)  - the the zero temperature vibrational energy from the frequency calculation
    E(vib)  - the the finite temperature correction to E(ZPE) due to population
              of excietd vibrational states
    E(rot)  - is the rotational thermal energy
    E(trans)- is the translational thermal energy

Summary of contributions to the inner energy U:
Electronic energy                ...   -328.43269279 Eh
Zero point energy                ...      0.19728124 Eh     123.80 kcal/mol
Thermal vibrational correction   ...      0.00673215 Eh       4.22 kcal/mol
Thermal rotational correction    ...      0.00141627 Eh       0.89 kcal/mol
Thermal translational correction ...      0.00141627 Eh       0.89 kcal/mol
-----------------------------------------------------------------------
Total thermal energy                   -328.22584685 Eh

Summary of corrections to the electronic energy:
(perhaps to be used in another calculation)
Total thermal correction                  0.00956470 Eh       6.00 kcal/mol
Non-thermal (ZPE) correction              0.19728124 Eh     123.80 kcal/mol
-----------------------------------------------------------------------
Total correction                          0.20684594 Eh     129.80 kcal/mol

--------
ENTHALPY
--------

The enthalpy is H = U + kB*T
                kB is Boltzmann's constant
Total free energy                 ...   -328.22584685 Eh
Thermal Enthalpy correction       ...      0.00094421 Eh       0.59 kcal/mol
-----------------------------------------------------------------------
Total Enthalpy                    ...   -328.22490264 Eh

-------
ENTROPY
-------

The entropy contributions are T*S = T*(S(el)+S(vib)+S(rot)+S(trans)
     S(el)   - electronic entropy
     S(vib)  - vibrational entropy
     S(rot)  - rotational entropy
     S(trans)- translational entropy
The entropies will be listed as mutliplied by the temperature to get
units of energy

Electronic entropy                ...      0.00000000 Eh      0.00 kcal/mol
Vibrational entropy               ...      0.01231891 Eh      7.73 kcal/mol
Rotational entropy                ...      0.01223595 Eh      7.68 kcal/mol
Translational entropy             ...      0.01892914 Eh     11.88 kcal/mol
-----------------------------------------------------------------------
Final entropy term                ...      0.04348400 Eh     27.29 kcal/mol

CAUTION: The rotational entropy is not quite correctly treated here
         because it includes a symmetry number that is not yet correctly
         implemented in ORCA!
For a nonlinear molecule the correct rotational entropy is:
    S(rot) = R*(ln(qrot/sn)+1.5)
    R    = 8.31441 J/mol/K = 1.987191683e-3 kcal/mol/K
    qrot = 284344.1011651
    sn is the rotational symmetry number. We have assumed 3 here
       if it is different for your molecule then you should correct
       the printed rotational entropy by manually evaluating the equation
       as given above

For convenience we print out the resulting values for sn=1 - 12:
 sn= 1  qrot/sn=  284344.1012 T*S(rot)=     8.33 kcal/mol T*S(tot)=    27.94 kcal/mol
 sn= 2  qrot/sn=  142172.0506 T*S(rot)=     7.92 kcal/mol T*S(tot)=    27.53 kcal/mol
 sn= 3  qrot/sn=   94781.3671 T*S(rot)=     7.68 kcal/mol T*S(tot)=    27.29 kcal/mol
 sn= 4  qrot/sn=   71086.0253 T*S(rot)=     7.51 kcal/mol T*S(tot)=    27.12 kcal/mol
 sn= 5  qrot/sn=   56868.8202 T*S(rot)=     7.38 kcal/mol T*S(tot)=    26.98 kcal/mol
 sn= 6  qrot/sn=   47390.6835 T*S(rot)=     7.27 kcal/mol T*S(tot)=    26.88 kcal/mol
 sn= 7  qrot/sn=   40620.5859 T*S(rot)=     7.18 kcal/mol T*S(tot)=    26.78 kcal/mol
 sn= 8  qrot/sn=   35543.0126 T*S(rot)=     7.10 kcal/mol T*S(tot)=    26.71 kcal/mol
 sn= 9  qrot/sn=   31593.7890 T*S(rot)=     7.03 kcal/mol T*S(tot)=    26.64 kcal/mol
 sn=10  qrot/sn=   28434.4101 T*S(rot)=     6.96 kcal/mol T*S(tot)=    26.57 kcal/mol
 sn=11  qrot/sn=   25849.4637 T*S(rot)=     6.91 kcal/mol T*S(tot)=    26.52 kcal/mol
 sn=12  qrot/sn=   23695.3418 T*S(rot)=     6.86 kcal/mol T*S(tot)=    26.47 kcal/mol

-------------------
GIBBS FREE ENTHALPY
-------------------

The Gibbs free enthalpy is G = H - T*S

Total enthalpy                    ...   -328.22490264 Eh
Total entropy correction          ...     -0.04348400 Eh    -27.29 kcal/mol
-----------------------------------------------------------------------
Final Gibbs free enthalpy         ...   -328.26838664 Eh

For completeness - the Gibbs free enthalpy minus the electronic energy
G-E(el)                           ...      0.16430615 Eh    103.10 kcal/mol

                             ****ORCA TERMINATED NORMALLY****
TOTAL RUN TIME: 0 days 0 hours 59 minutes 29 seconds 911 msec
