                         Program Version 3.0.3 - RELEASE   -
|  1> ! NORI PBE0 def2-TZVP UseSym TightOPT Freq TightSCF Grid3 FinalGrid5 XYZFile
|  2> % pal
|  3>     nprocs 8
|  4> end
|  5> %method
|  6>     SymThresh 5.0e-2
|  7> end
|  8> % geom
|  9>     MaxIter 10
| 10> end
| 11> % maxcore 2000
| 12> % output
| 13>     printlevel mini
| 14>     print[ P_Basis ] 0
| 15>     print[ P_SCFInfo ] 1
| 16>     print[ P_SCFIterInfo ] 1
| 17>     print[ P_OrbEn ] 0
| 18>     print[ P_Cartesian ] 0
| 19> end
| 20> % elprop
| 21>     Dipole false
| 22> end
| 23> *xyz 1 1
| 24>  C        1.0331487067    -0.2058620077    -0.1299328348
| 25>  C        2.5298740343    -0.0493749343     0.0903029765
| 26>  C        3.1454156128    -0.9135091499     1.1933565686
| 27>  C        2.5885878606    -0.6331422872     2.5727275106
| 28>  N        2.8649663005    -2.3662542464     0.8388155956
| 29>  C        4.6701358996    -0.8117617793     1.1762003963
| 30>  O        5.1006502801    -1.4344363094    -0.0137868997
| 31>  H        0.7062454874     0.4876012261    -0.9054222314
| 32>  H        0.4477200886     0.0130428949     0.7642480279
| 33>  H        0.7470947272    -1.2005971081    -0.4920427047
| 34>  H        2.7501659406     0.9866924439     0.3610347532
| 35>  H        3.0703640244    -0.2387833707    -0.8417344281
| 36>  H        1.5057565333    -0.7634177677     2.6130999094
| 37>  H        2.8032767417     0.4010833459     2.8463522218
| 38>  H        3.0443633939    -1.2748800629     3.3315441606
| 39>  H        3.5119618004    -2.6179836738     0.0784440866
| 40>  H        1.8990291319    -2.4874969321     0.5326016420
| 41>  H        3.0383740101    -2.9893809604     1.6281998623
| 42>  H        4.9442024773     0.2474235667     1.2122163881
| 43>  H        5.0941949166    -1.3069780438     2.0595206493
| 44>  H        6.0542220319    -1.3678148437    -0.1137456501
| 45> *
| 46>
| 47>                          ****END OF INPUT****
 Total Charge           Charge          ....    1
 Multiplicity           Mult            ....    1
 Number of Electrons    NEL             ....   58
FINAL SINGLE POINT ENERGY      -328.448191334379
FINAL SINGLE POINT ENERGY      -328.448193444554
FINAL SINGLE POINT ENERGY      -328.448194495177

CARTESIAN COORDINATES (ANGSTROEM)
---------------------------------
  C     -0.280674    1.705652   -1.727900
  C     -0.765182    0.946668   -0.501924
  C     -0.025249   -0.352190   -0.172295
  C     -0.127560   -1.404191   -1.256511
  N      1.440928   -0.000615    0.031504
  C     -0.470670   -0.902348    1.182224
  O      0.003187   -0.001401    2.158065
  H     -0.913737    2.579131   -1.886976
  H     -0.323450    1.108779   -2.640330
  H      0.736362    2.101793   -1.622733
  H     -1.813239    0.667671   -0.639862
  H     -0.738565    1.595573    0.378114
  H      0.242966   -1.041352   -2.216123
  H     -1.174200   -1.680910   -1.392701
  H      0.421494   -2.312021   -0.992174
  H      1.515431    0.441983    0.958083
  H      1.766368    0.641501   -0.691803
  H      2.034118   -0.830965    0.022741
  H     -1.562794   -0.975996    1.180955
  H     -0.059677   -1.908764    1.337864
  H     -0.273738   -0.268865    3.038669

FINAL SINGLE POINT ENERGY      -328.448195327958
                    ***********************HURRAY********************
 Multiplicity           Mult            ....    1
 Number of Electrons    NEL             ....   58
 Basis Dimension        Dim             ....  301
FINAL SINGLE POINT ENERGY      -328.448196014411

VIBRATIONAL FREQUENCIES
-----------------------

   0:         0.00 cm**-1
   1:         0.00 cm**-1
   2:         0.00 cm**-1
   3:         0.00 cm**-1
   4:         0.00 cm**-1
   5:         0.00 cm**-1
   6:        67.81 cm**-1
   7:       144.78 cm**-1
   8:       216.88 cm**-1
   9:       220.33 cm**-1
  10:       227.94 cm**-1
  11:       258.47 cm**-1
  12:       285.85 cm**-1
  13:       295.34 cm**-1
  14:       348.84 cm**-1
  15:       362.85 cm**-1
  16:       405.48 cm**-1
  17:       460.56 cm**-1
  18:       576.26 cm**-1
  19:       712.89 cm**-1
  20:       781.05 cm**-1
  21:       857.16 cm**-1
  22:       906.53 cm**-1
  23:       957.13 cm**-1
  24:       992.39 cm**-1
  25:      1003.10 cm**-1
  26:      1039.72 cm**-1
  27:      1046.33 cm**-1
  28:      1099.04 cm**-1
  29:      1114.66 cm**-1
  30:      1171.24 cm**-1
  31:      1216.74 cm**-1
  32:      1248.32 cm**-1
  33:      1269.63 cm**-1
  34:      1317.65 cm**-1
  35:      1352.52 cm**-1
  36:      1382.59 cm**-1
  37:      1418.10 cm**-1
  38:      1422.15 cm**-1
  39:      1434.88 cm**-1
  40:      1466.22 cm**-1
  41:      1475.02 cm**-1
  42:      1487.54 cm**-1
  43:      1489.52 cm**-1
  44:      1495.60 cm**-1
  45:      1506.56 cm**-1
  46:      1515.05 cm**-1
  47:      1635.41 cm**-1
  48:      1659.74 cm**-1
  49:      3022.60 cm**-1
  50:      3035.84 cm**-1
  51:      3060.41 cm**-1
  52:      3070.39 cm**-1
  53:      3088.11 cm**-1
  54:      3106.21 cm**-1
  55:      3124.23 cm**-1
  56:      3137.13 cm**-1
  57:      3149.95 cm**-1
  58:      3155.51 cm**-1
  59:      3346.15 cm**-1
  60:      3474.18 cm**-1
  61:      3522.26 cm**-1
  62:      3871.09 cm**-1

IR SPECTRUM
-----------

 Mode    freq (cm**-1)   T**2         TX         TY         TZ
-------------------------------------------------------------------
   6:        67.81    0.842038  ( -0.574730   0.363378  -0.616181)
   7:       144.78   13.077232  (  2.893986  -2.104554  -0.522424)
   8:       216.88    0.628884  (  0.516195  -0.601203   0.031318)
   9:       220.33   17.878232  ( -3.666572   1.943817   0.809972)
  10:       227.94   10.680465  (  0.987387  -2.159230   2.245720)
  11:       258.47    1.945184  ( -0.646510   1.022425  -0.694158)
  12:       285.85  105.230957  ( -8.028735   6.297313  -1.055566)
  13:       295.34    9.355167  (  0.780545   0.646705  -2.885774)
  14:       348.84    2.294125  ( -0.015597   0.766183  -1.306463)
  15:       362.85   21.749821  ( -0.986525   0.696169   4.504657)
  16:       405.48    6.388866  ( -2.319621  -0.901797   0.441572)
  17:       460.56    2.766866  ( -1.235213   1.050941  -0.369644)
  18:       576.26    8.648163  ( -0.983397  -2.121710  -1.783098)
  19:       712.89    1.941404  (  1.106131   0.070276   0.844358)
  20:       781.05    2.054700  (  0.720712   0.983373   0.753824)
  21:       857.16    5.348349  (  2.158080   0.561330   0.613145)
  22:       906.53   18.235576  ( -1.010351   0.754843  -4.079826)
  23:       957.13   17.250185  ( -0.737347   0.082764   4.086521)
  24:       992.39    2.237832  (  0.894494  -0.990474   0.675777)
  25:      1003.10    4.207140  (  0.499423   1.821570  -0.799750)
  26:      1039.72    9.600428  ( -2.152430   2.217436  -0.224621)
  27:      1046.33   33.571967  (  2.386819   2.304385   4.750250)
  28:      1099.04    4.930438  (  1.687848  -1.027272  -1.013074)
  29:      1114.66   59.340819  ( -1.249416  -4.420762  -6.183579)
  30:      1171.24   41.580299  (  3.850032   4.470339   2.602618)
  31:      1216.74   29.408166  (  0.812386   4.966948   2.019313)
  32:      1248.32    6.626467  ( -0.169257   1.656992   1.962701)
  33:      1269.63   10.880069  ( -1.329080  -1.211085   2.765301)
  34:      1317.65    6.147831  ( -1.382419   1.065493  -1.761100)
  35:      1352.52    0.206769  ( -0.011435  -0.409945  -0.196428)
  36:      1382.59    6.811177  (  1.256367  -1.375677   1.827630)
  37:      1418.10   41.985523  (  4.662207   3.849662   2.330119)
  38:      1422.15   12.529337  ( -2.546676  -0.097730  -2.456467)
  39:      1434.88   43.232944  ( -6.402046   0.041329   1.498345)
  40:      1466.22  108.627995  (-10.378815  -0.931629   0.200673)
  41:      1475.02    3.694748  (  1.682188   0.378011   0.849764)
  42:      1487.54   29.718948  (  5.395175   0.780889  -0.035336)
  43:      1489.52   11.678927  (  1.268290   2.826406  -1.442844)
  44:      1495.60    1.802034  (  0.433407   1.213560   0.376116)
  45:      1506.56   22.179624  (  2.628394   2.692305   2.832431)
  46:      1515.05   11.175673  ( -2.035641  -1.942493   1.805148)
  47:      1635.41   35.975470  (  3.236193  -5.048936  -0.103771)
  48:      1659.74   34.375980  ( -0.438037  -2.494786   5.287735)
  49:      3022.60   23.664773  (  0.072516   4.785576   0.870503)
  50:      3035.84   19.080340  (  4.325026   0.485766  -0.372183)
  51:      3060.41    5.031499  ( -1.742314   1.381495   0.295488)
  52:      3070.39    3.703403  (  0.906623   0.475686  -1.629466)
  53:      3088.11    8.538215  ( -2.590933   0.850693  -1.049572)
  54:      3106.21    1.830054  (  0.530565  -0.283457   1.211695)
  55:      3124.23   11.194998  (  2.308442   1.691834   1.733144)
  56:      3137.13    6.918748  (  1.157265  -1.936095   1.353152)
  57:      3149.95    2.678749  ( -0.395786  -1.330005  -0.867865)
  58:      3155.51    3.737933  (  0.509351  -0.380150  -1.825919)
  59:      3346.15   92.261531  ( -0.886230  -2.836702  -9.133961)
  60:      3474.18   86.875267  ( -4.390060  -0.005672   8.222081)
  61:      3522.26   89.989335  (  2.940535  -8.268635   3.601704)
  62:      3871.09  139.429912  (  2.005484   1.077749 -11.586475)

--------------------------
THERMOCHEMISTRY AT 298.15K
--------------------------

Temperature         ... 298.15 K
Pressure            ... 1.00 atm
Total Mass          ... 104.17 AMU

Throughout the following assumptions are being made:
  (1) The electronic state is orbitally nondegenerate
  (2) There are no thermally accessible electronically excited states
  (3) Hindered rotations indicated by low frequency modes) are not
      treated as such but are treated as vibrations and this may
      case some error
  (4) All equations used are the standard statistical mechanics
      equations for an ideal gas
  (5) All vibrations are strinctly harmonic

------------
INNER ENERGY
------------

The inner energy is: U= E(el) + E(ZPE) + E(vib) + E(rot) + E(trans)
    E(el)   - is the total energy from the electronic structure calculation
              = E(kin-el) + E(nuc-el) + E(el-el) + E(nuc-nuc)
    E(ZPE)  - the the zero temperature vibrational energy from the frequency calculation
    E(vib)  - the the finite temperature correction to E(ZPE) due to population
              of excietd vibrational states
    E(rot)  - is the rotational thermal energy
    E(trans)- is the translational thermal energy

Summary of contributions to the inner energy U:
Electronic energy                ...   -328.44819601 Eh
Zero point energy                ...      0.19708409 Eh     123.67 kcal/mol
Thermal vibrational correction   ...      0.00650079 Eh       4.08 kcal/mol
Thermal rotational correction    ...      0.00141627 Eh       0.89 kcal/mol
Thermal translational correction ...      0.00141627 Eh       0.89 kcal/mol
-----------------------------------------------------------------------
Total thermal energy                   -328.24177860 Eh

Summary of corrections to the electronic energy:
(perhaps to be used in another calculation)
Total thermal correction                  0.00933333 Eh       5.86 kcal/mol
Non-thermal (ZPE) correction              0.19708409 Eh     123.67 kcal/mol
-----------------------------------------------------------------------
Total correction                          0.20641742 Eh     129.53 kcal/mol

--------
ENTHALPY
--------

The enthalpy is H = U + kB*T
                kB is Boltzmann's constant
Total free energy                 ...   -328.24177860 Eh
Thermal Enthalpy correction       ...      0.00094421 Eh       0.59 kcal/mol
-----------------------------------------------------------------------
Total Enthalpy                    ...   -328.24083439 Eh

-------
ENTROPY
-------

The entropy contributions are T*S = T*(S(el)+S(vib)+S(rot)+S(trans)
     S(el)   - electronic entropy
     S(vib)  - vibrational entropy
     S(rot)  - rotational entropy
     S(trans)- translational entropy
The entropies will be listed as mutliplied by the temperature to get
units of energy

Electronic entropy                ...      0.00000000 Eh      0.00 kcal/mol
Vibrational entropy               ...      0.01123476 Eh      7.05 kcal/mol
Rotational entropy                ...      0.01216132 Eh      7.63 kcal/mol
Translational entropy             ...      0.01892914 Eh     11.88 kcal/mol
-----------------------------------------------------------------------
Final entropy term                ...      0.04232522 Eh     26.56 kcal/mol

CAUTION: The rotational entropy is not quite correctly treated here
         because it includes a symmetry number that is not yet correctly
         implemented in ORCA!
For a nonlinear molecule the correct rotational entropy is:
    S(rot) = R*(ln(qrot/sn)+1.5)
    R    = 8.31441 J/mol/K = 1.987191683e-3 kcal/mol/K
    qrot = 262734.4605842
    sn is the rotational symmetry number. We have assumed 3 here
       if it is different for your molecule then you should correct
       the printed rotational entropy by manually evaluating the equation
       as given above

For convenience we print out the resulting values for sn=1 - 12:
 sn= 1  qrot/sn=  262734.4606 T*S(rot)=     8.28 kcal/mol T*S(tot)=    27.21 kcal/mol
 sn= 2  qrot/sn=  131367.2303 T*S(rot)=     7.87 kcal/mol T*S(tot)=    26.80 kcal/mol
 sn= 3  qrot/sn=   87578.1535 T*S(rot)=     7.63 kcal/mol T*S(tot)=    26.56 kcal/mol
 sn= 4  qrot/sn=   65683.6151 T*S(rot)=     7.46 kcal/mol T*S(tot)=    26.39 kcal/mol
 sn= 5  qrot/sn=   52546.8921 T*S(rot)=     7.33 kcal/mol T*S(tot)=    26.26 kcal/mol
 sn= 6  qrot/sn=   43789.0768 T*S(rot)=     7.22 kcal/mol T*S(tot)=    26.15 kcal/mol
 sn= 7  qrot/sn=   37533.4944 T*S(rot)=     7.13 kcal/mol T*S(tot)=    26.06 kcal/mol
 sn= 8  qrot/sn=   32841.8076 T*S(rot)=     7.05 kcal/mol T*S(tot)=    25.98 kcal/mol
 sn= 9  qrot/sn=   29192.7178 T*S(rot)=     6.98 kcal/mol T*S(tot)=    25.91 kcal/mol
 sn=10  qrot/sn=   26273.4461 T*S(rot)=     6.92 kcal/mol T*S(tot)=    25.85 kcal/mol
 sn=11  qrot/sn=   23884.9510 T*S(rot)=     6.86 kcal/mol T*S(tot)=    25.79 kcal/mol
 sn=12  qrot/sn=   21894.5384 T*S(rot)=     6.81 kcal/mol T*S(tot)=    25.74 kcal/mol

-------------------
GIBBS FREE ENTHALPY
-------------------

The Gibbs free enthalpy is G = H - T*S

Total enthalpy                    ...   -328.24083439 Eh
Total entropy correction          ...     -0.04232522 Eh    -26.56 kcal/mol
-----------------------------------------------------------------------
Final Gibbs free enthalpy         ...   -328.28315961 Eh

For completeness - the Gibbs free enthalpy minus the electronic energy
G-E(el)                           ...      0.16503641 Eh    103.56 kcal/mol

                             ****ORCA TERMINATED NORMALLY****
TOTAL RUN TIME: 0 days 0 hours 57 minutes 18 seconds 130 msec
