                         Program Version 3.0.3 - RELEASE   -
|  1> ! NORI PBE0 def2-TZVP UseSym TightOPT Freq TightSCF Grid3 FinalGrid5 XYZFile
|  2> % pal
|  3>     nprocs 8
|  4> end
|  5> %method
|  6>     SymThresh 5.0e-2
|  7> end
|  8> % geom
|  9>     MaxIter 10
| 10> end
| 11> % maxcore 2000
| 12> % output
| 13>     printlevel mini
| 14>     print[ P_Basis ] 0
| 15>     print[ P_SCFInfo ] 1
| 16>     print[ P_SCFIterInfo ] 1
| 17>     print[ P_OrbEn ] 0
| 18>     print[ P_Cartesian ] 0
| 19> end
| 20> % elprop
| 21>     Dipole false
| 22> end
| 23> *xyz 1 1
| 24>  C        1.1918320863     0.0451520661    -0.7202940025
| 25>  C        2.7046534007     0.0460541265    -0.5705909889
| 26>  C        3.3005611079    -1.2816022562    -0.0899927796
| 27>  C        2.9168494260    -2.4718844174    -0.9598571110
| 28>  N        3.3758503810    -2.2521925028    -2.3749853028
| 29>  C        4.8100810683    -1.2050409935     0.0925820920
| 30>  O        5.4154437498    -1.1252846530    -1.2021830627
| 31>  H        0.8303995834     1.0475666388    -0.9522187626
| 32>  H        0.7007016734    -0.2751064151     0.2021095994
| 33>  H        0.8353744701    -0.6079528404    -1.5240130779
| 34>  H        2.9902723181     0.8090516703     0.1583305598
| 35>  H        3.1849391296     0.3617147346    -1.5045198278
| 36>  H        2.8798209421    -1.5033568653     0.8978522061
| 37>  H        3.4042575003    -3.3854790154    -0.6162870697
| 38>  H        1.8409856941    -2.6396356858    -0.9819026924
| 39>  H        4.3621679424    -1.9151931857    -2.3093331574
| 40>  H        2.8244592374    -1.5249986539    -2.8306051689
| 41>  H        3.3149464705    -3.0999122747    -2.9371849073
| 42>  H        5.0653510260    -0.3202789781     0.6830795800
| 43>  H        5.1778898362    -2.0921519209     0.6205735367
| 44>  H        6.3608729565    -0.9691985780    -1.1263996623
| 45> *
| 46>
| 47>                          ****END OF INPUT****
 Total Charge           Charge          ....    1
 Multiplicity           Mult            ....    1
 Number of Electrons    NEL             ....   58
FINAL SINGLE POINT ENERGY      -328.447442552397
FINAL SINGLE POINT ENERGY      -328.447446643988
FINAL SINGLE POINT ENERGY      -328.447448121379
FINAL SINGLE POINT ENERGY      -328.447451374798

CARTESIAN COORDINATES (ANGSTROEM)
---------------------------------
  C     -0.595587    1.180805   -2.190468
  C     -0.897635    0.912965   -0.724410
  C     -0.574556   -0.509057   -0.254499
  C      0.862126   -0.931704   -0.535459
  N      1.822150    0.005718    0.141892
  C     -0.931329   -0.730056    1.209289
  O      0.003055   -0.003612    2.014432
  H     -0.947563    2.172145   -2.477855
  H     -1.092198    0.454821   -2.838958
  H      0.473877    1.149301   -2.424769
  H     -1.963244    1.077103   -0.543449
  H     -0.392205    1.648318   -0.086958
  H     -1.194448   -1.204973   -0.831701
  H      1.067094   -1.925765   -0.135407
  H      1.092761   -0.932004   -1.599859
  H      1.468645    0.124498    1.117037
  H      1.820783    0.920910   -0.308452
  H      2.776796   -0.350355    0.139817
  H     -1.947986   -0.374515    1.399172
  H     -0.884707   -1.796261    1.457333
  H     -0.240474   -0.050138    2.943072

FINAL SINGLE POINT ENERGY      -328.447451997129
                    ***********************HURRAY********************
 Multiplicity           Mult            ....    1
 Number of Electrons    NEL             ....   58
 Basis Dimension        Dim             ....  301
FINAL SINGLE POINT ENERGY      -328.447452226756

VIBRATIONAL FREQUENCIES
-----------------------

   0:         0.00 cm**-1
   1:         0.00 cm**-1
   2:         0.00 cm**-1
   3:         0.00 cm**-1
   4:         0.00 cm**-1
   5:         0.00 cm**-1
   6:        86.57 cm**-1
   7:       117.64 cm**-1
   8:       168.48 cm**-1
   9:       237.46 cm**-1
  10:       258.95 cm**-1
  11:       305.57 cm**-1
  12:       314.00 cm**-1
  13:       324.45 cm**-1
  14:       355.32 cm**-1
  15:       373.40 cm**-1
  16:       486.21 cm**-1
  17:       664.64 cm**-1
  18:       754.55 cm**-1
  19:       822.42 cm**-1
  20:       864.63 cm**-1
  21:       897.22 cm**-1
  22:       943.38 cm**-1
  23:       987.90 cm**-1
  24:      1019.40 cm**-1
  25:      1047.17 cm**-1
  26:      1059.94 cm**-1
  27:      1072.56 cm**-1
  28:      1146.04 cm**-1
  29:      1161.75 cm**-1
  30:      1198.16 cm**-1
  31:      1222.33 cm**-1
  32:      1263.61 cm**-1
  33:      1294.63 cm**-1
  34:      1324.19 cm**-1
  35:      1349.94 cm**-1
  36:      1379.81 cm**-1
  37:      1391.84 cm**-1
  38:      1412.29 cm**-1
  39:      1420.14 cm**-1
  40:      1442.92 cm**-1
  41:      1481.52 cm**-1
  42:      1492.44 cm**-1
  43:      1496.57 cm**-1
  44:      1503.43 cm**-1
  45:      1510.63 cm**-1
  46:      1517.97 cm**-1
  47:      1639.44 cm**-1
  48:      1675.28 cm**-1
  49:      3040.21 cm**-1
  50:      3040.55 cm**-1
  51:      3043.51 cm**-1
  52:      3065.37 cm**-1
  53:      3088.71 cm**-1
  54:      3090.15 cm**-1
  55:      3099.14 cm**-1
  56:      3106.37 cm**-1
  57:      3114.12 cm**-1
  58:      3144.32 cm**-1
  59:      3163.64 cm**-1
  60:      3479.32 cm**-1
  61:      3540.31 cm**-1
  62:      3866.49 cm**-1

IR SPECTRUM
-----------

 Mode    freq (cm**-1)   T**2         TX         TY         TZ
-------------------------------------------------------------------
   6:        86.57    6.918072  (  1.338834  -1.408571   1.772434)
   7:       117.64    6.369963  (  1.099853  -2.157080   0.712244)
   8:       168.48    3.519944  (  0.102628   0.962048  -1.607443)
   9:       237.46    5.601542  ( -0.437101   1.785511   1.490784)
  10:       258.95    7.028475  (  1.309064   1.580684  -1.678173)
  11:       305.57   73.576599  (  2.917024  -7.735777   2.285898)
  12:       314.00    8.869007  ( -1.451525  -2.538875   0.562314)
  13:       324.45   81.069063  ( -6.784239   4.216453   4.155080)
  14:       355.32   16.587484  (  2.328347  -2.568029   2.138110)
  15:       373.40    0.126382  ( -0.073320   0.311693   0.154446)
  16:       486.21    7.900124  (  2.543221   0.162266   1.185674)
  17:       664.64    8.928535  ( -1.461728   1.292221   2.263195)
  18:       754.55    2.218264  (  0.490559  -0.048280   1.405448)
  19:       822.42    3.300056  (  1.051173   1.304194   0.702972)
  20:       864.63   30.046240  ( -0.236219  -0.757477   5.423714)
  21:       897.22    8.488994  (  2.197897  -1.492563  -1.196034)
  22:       943.38    3.964970  ( -0.710024   0.837463  -1.661172)
  23:       987.90   22.080451  ( -2.219109  -1.011860  -4.016484)
  24:      1019.40    9.185234  (  2.109590   2.170713   0.151219)
  25:      1047.17    3.621729  (  1.303890  -1.036233  -0.920773)
  26:      1059.94   37.776087  (  5.715787   1.267057   1.870945)
  27:      1072.56    5.613018  ( -2.195612  -0.355935   0.815854)
  28:      1146.04   20.661253  ( -1.638191   2.627355   3.327850)
  29:      1161.75    5.858926  ( -2.300197  -0.645003   0.389861)
  30:      1198.16    4.795613  ( -1.981724   0.691529  -0.624637)
  31:      1222.33   64.074296  ( -4.131949  -4.880209  -4.815066)
  32:      1263.61    3.691827  ( -0.145595   1.813755   0.617188)
  33:      1294.63    0.495637  ( -0.334986  -0.465042  -0.408848)
  34:      1324.19   11.852888  ( -2.626183  -1.732636   1.397863)
  35:      1349.94   13.424750  ( -1.407062   0.856495  -3.272819)
  36:      1379.81    4.076471  (  1.931677   0.396460  -0.433491)
  37:      1391.84    3.282132  (  0.476011   0.485382   1.679270)
  38:      1412.29    0.833394  ( -0.773168  -0.483662  -0.040943)
  39:      1420.14    4.331183  ( -0.368201  -0.412336   2.006387)
  40:      1442.92    7.604985  (  2.056791   0.932851   1.582524)
  41:      1481.52   17.991426  ( -1.516969  -3.946105  -0.344218)
  42:      1492.44   11.799346  (  0.968457   2.071102   2.563586)
  43:      1496.57   32.488833  (  4.240984   3.392623   1.730027)
  44:      1503.43   24.436383  (  4.458647  -1.889877  -0.992579)
  45:      1510.63  134.388054  (-10.896803  -3.729889  -1.317448)
  46:      1517.97   32.738710  ( -4.347980  -3.502455   1.251633)
  47:      1639.44   13.608380  (  0.177204   3.197709  -1.830747)
  48:      1675.28   31.785507  ( -5.085119   2.424433   0.221790)
  49:      3040.21   28.182928  (  3.771874   3.735379  -0.053230)
  50:      3040.55    8.830918  (  2.232204  -1.632231  -1.088121)
  51:      3043.51   24.250054  (  2.520946   1.127814  -4.077121)
  52:      3065.37    6.194898  ( -1.308581  -2.116431   0.056852)
  53:      3088.71  372.400364  ( -9.977691   1.352308  16.462603)
  54:      3090.15    1.458710  (  0.096543   0.641974  -1.018459)
  55:      3099.14   17.854259  ( -3.184909   2.395131   1.404975)
  56:      3106.37   37.614280  (  2.503309   1.540519  -5.382799)
  57:      3114.12   39.735769  (  6.279037   0.531820  -0.163177)
  58:      3144.32    6.512525  ( -0.504177   2.477780   0.344874)
  59:      3163.64    0.521446  ( -0.509649   0.437419   0.265271)
  60:      3479.32   70.737672  ( -6.420428  -3.411451   4.228212)
  61:      3540.31   93.925991  ( -7.092876   6.290268  -2.012370)
  62:      3866.49  123.258754  (  1.137946  -0.581458 -11.028406)

--------------------------
THERMOCHEMISTRY AT 298.15K
--------------------------

Temperature         ... 298.15 K
Pressure            ... 1.00 atm
Total Mass          ... 104.17 AMU

Throughout the following assumptions are being made:
  (1) The electronic state is orbitally nondegenerate
  (2) There are no thermally accessible electronically excited states
  (3) Hindered rotations indicated by low frequency modes) are not
      treated as such but are treated as vibrations and this may
      case some error
  (4) All equations used are the standard statistical mechanics
      equations for an ideal gas
  (5) All vibrations are strinctly harmonic

------------
INNER ENERGY
------------

The inner energy is: U= E(el) + E(ZPE) + E(vib) + E(rot) + E(trans)
    E(el)   - is the total energy from the electronic structure calculation
              = E(kin-el) + E(nuc-el) + E(el-el) + E(nuc-nuc)
    E(ZPE)  - the the zero temperature vibrational energy from the frequency calculation
    E(vib)  - the the finite temperature correction to E(ZPE) due to population
              of excietd vibrational states
    E(rot)  - is the rotational thermal energy
    E(trans)- is the translational thermal energy

Summary of contributions to the inner energy U:
Electronic energy                ...   -328.44745223 Eh
Zero point energy                ...      0.19904119 Eh     124.90 kcal/mol
Thermal vibrational correction   ...      0.00598691 Eh       3.76 kcal/mol
Thermal rotational correction    ...      0.00141627 Eh       0.89 kcal/mol
Thermal translational correction ...      0.00141627 Eh       0.89 kcal/mol
-----------------------------------------------------------------------
Total thermal energy                   -328.23959159 Eh

Summary of corrections to the electronic energy:
(perhaps to be used in another calculation)
Total thermal correction                  0.00881945 Eh       5.53 kcal/mol
Non-thermal (ZPE) correction              0.19904119 Eh     124.90 kcal/mol
-----------------------------------------------------------------------
Total correction                          0.20786064 Eh     130.43 kcal/mol

--------
ENTHALPY
--------

The enthalpy is H = U + kB*T
                kB is Boltzmann's constant
Total free energy                 ...   -328.23959159 Eh
Thermal Enthalpy correction       ...      0.00094421 Eh       0.59 kcal/mol
-----------------------------------------------------------------------
Total Enthalpy                    ...   -328.23864738 Eh

-------
ENTROPY
-------

The entropy contributions are T*S = T*(S(el)+S(vib)+S(rot)+S(trans)
     S(el)   - electronic entropy
     S(vib)  - vibrational entropy
     S(rot)  - rotational entropy
     S(trans)- translational entropy
The entropies will be listed as mutliplied by the temperature to get
units of energy

Electronic entropy                ...      0.00000000 Eh      0.00 kcal/mol
Vibrational entropy               ...      0.01035955 Eh      6.50 kcal/mol
Rotational entropy                ...      0.01220471 Eh      7.66 kcal/mol
Translational entropy             ...      0.01892914 Eh     11.88 kcal/mol
-----------------------------------------------------------------------
Final entropy term                ...      0.04149340 Eh     26.04 kcal/mol

CAUTION: The rotational entropy is not quite correctly treated here
         because it includes a symmetry number that is not yet correctly
         implemented in ORCA!
For a nonlinear molecule the correct rotational entropy is:
    S(rot) = R*(ln(qrot/sn)+1.5)
    R    = 8.31441 J/mol/K = 1.987191683e-3 kcal/mol/K
    qrot = 275090.3772022
    sn is the rotational symmetry number. We have assumed 3 here
       if it is different for your molecule then you should correct
       the printed rotational entropy by manually evaluating the equation
       as given above

For convenience we print out the resulting values for sn=1 - 12:
 sn= 1  qrot/sn=  275090.3772 T*S(rot)=     8.31 kcal/mol T*S(tot)=    26.69 kcal/mol
 sn= 2  qrot/sn=  137545.1886 T*S(rot)=     7.90 kcal/mol T*S(tot)=    26.28 kcal/mol
 sn= 3  qrot/sn=   91696.7924 T*S(rot)=     7.66 kcal/mol T*S(tot)=    26.04 kcal/mol
 sn= 4  qrot/sn=   68772.5943 T*S(rot)=     7.49 kcal/mol T*S(tot)=    25.87 kcal/mol
 sn= 5  qrot/sn=   55018.0754 T*S(rot)=     7.36 kcal/mol T*S(tot)=    25.73 kcal/mol
 sn= 6  qrot/sn=   45848.3962 T*S(rot)=     7.25 kcal/mol T*S(tot)=    25.63 kcal/mol
 sn= 7  qrot/sn=   39298.6253 T*S(rot)=     7.16 kcal/mol T*S(tot)=    25.54 kcal/mol
 sn= 8  qrot/sn=   34386.2972 T*S(rot)=     7.08 kcal/mol T*S(tot)=    25.46 kcal/mol
 sn= 9  qrot/sn=   30565.5975 T*S(rot)=     7.01 kcal/mol T*S(tot)=    25.39 kcal/mol
 sn=10  qrot/sn=   27509.0377 T*S(rot)=     6.95 kcal/mol T*S(tot)=    25.32 kcal/mol
 sn=11  qrot/sn=   25008.2161 T*S(rot)=     6.89 kcal/mol T*S(tot)=    25.27 kcal/mol
 sn=12  qrot/sn=   22924.1981 T*S(rot)=     6.84 kcal/mol T*S(tot)=    25.22 kcal/mol

-------------------
GIBBS FREE ENTHALPY
-------------------

The Gibbs free enthalpy is G = H - T*S

Total enthalpy                    ...   -328.23864738 Eh
Total entropy correction          ...     -0.04149340 Eh    -26.04 kcal/mol
-----------------------------------------------------------------------
Final Gibbs free enthalpy         ...   -328.28014078 Eh

For completeness - the Gibbs free enthalpy minus the electronic energy
G-E(el)                           ...      0.16731145 Eh    104.99 kcal/mol

                             ****ORCA TERMINATED NORMALLY****
TOTAL RUN TIME: 0 days 0 hours 58 minutes 15 seconds 407 msec
