                         Program Version 3.0.3 - RELEASE   -
|  1> ! NORI PBE0 def2-TZVP UseSym TightOPT Freq TightSCF Grid3 FinalGrid5 XYZFile
|  2> % pal
|  3>     nprocs 8
|  4> end
|  5> %method
|  6>     SymThresh 5.0e-2
|  7> end
|  8> % geom
|  9>     MaxIter 10
| 10> end
| 11> % maxcore 2000
| 12> % output
| 13>     printlevel mini
| 14>     print[ P_Basis ] 0
| 15>     print[ P_SCFInfo ] 1
| 16>     print[ P_SCFIterInfo ] 1
| 17>     print[ P_OrbEn ] 0
| 18>     print[ P_Cartesian ] 0
| 19> end
| 20> % elprop
| 21>     Dipole false
| 22> end
| 23> *xyz 1 1
| 24>  C        1.9552153714    -0.0280838027     2.4115920711
| 25>  C        2.4835576783     0.1998447062     1.0033592120
| 26>  C        4.0068653139     0.0763313199     0.8656349885
| 27>  C        4.5016384343    -1.3098292460     0.4861427070
| 28>  N        6.0128073486    -1.2350396650     0.3646196235
| 29>  C        4.1644675856    -2.4736815801     1.4253309988
| 30>  O        2.9178623404    -3.0060970655     1.1076555596
| 31>  H        0.8667353606     0.0448766345     2.4312482964
| 32>  H        2.3469400708     0.7230986589     3.1014562611
| 33>  H        2.2240845626    -1.0030503294     2.8288536980
| 34>  H        1.9937773583    -0.4693785103     0.2898228757
| 35>  H        2.2048561783     1.2097607705     0.6962178751
| 36>  H        4.3478641389     0.7766647756     0.0941119306
| 37>  H        4.4816637351     0.3877765319     1.8057582525
| 38>  H        4.1476836153    -1.5858548177    -0.5111246780
| 39>  H        6.4412199066    -1.0277555699     1.2701064209
| 40>  H        6.2893311595    -0.4915311224    -0.2797484361
| 41>  H        6.4074152769    -2.1149889745     0.0256272930
| 42>  H        4.2397129480    -2.1536811719     2.4721802347
| 43>  H        4.8980563400    -3.2784077761     1.2802742426
| 44>  H        2.2377752766    -2.6455537660     1.6831205729
| 45> *
| 46>
| 47>                          ****END OF INPUT****
 Total Charge           Charge          ....    1
 Multiplicity           Mult            ....    1
 Number of Electrons    NEL             ....   58
FINAL SINGLE POINT ENERGY      -328.424277433365
FINAL SINGLE POINT ENERGY      -328.424280351801
FINAL SINGLE POINT ENERGY      -328.424281227360

CARTESIAN COORDINATES (ANGSTROEM)
---------------------------------
  C     -2.403890    0.559965   -0.294237
  C     -1.573573   -0.643781   -0.714745
  C     -0.167403   -0.301555   -1.225373
  C      0.919093   -0.330890   -0.163296
  N      2.232740    0.002920   -0.846941
  C      0.766127    0.602880    1.043168
  O     -0.003557   -0.007720    2.029702
  H     -3.378356    0.243425    0.080135
  H     -2.579265    1.227599   -1.141051
  H     -1.936526    1.165997    0.488243
  H     -1.502501   -1.371765    0.098503
  H     -2.103131   -1.154761   -1.521391
  H      0.108410   -1.019806   -2.006413
  H     -0.186435    0.688383   -1.700887
  H      1.049635   -1.344021    0.226675
  H      2.224265    0.961206   -1.204497
  H      2.396375   -0.617057   -1.642661
  H      3.023663   -0.085251   -0.205337
  H      0.365648    1.573769    0.726919
  H      1.755240    0.789151    1.483196
  H     -0.916907    0.286436    1.976904

FINAL SINGLE POINT ENERGY      -328.424281545632
                    ***********************HURRAY********************
 Multiplicity           Mult            ....    1
 Number of Electrons    NEL             ....   58
 Basis Dimension        Dim             ....  301
FINAL SINGLE POINT ENERGY      -328.424281709555

VIBRATIONAL FREQUENCIES
-----------------------

   0:         0.00 cm**-1
   1:         0.00 cm**-1
   2:         0.00 cm**-1
   3:         0.00 cm**-1
   4:         0.00 cm**-1
   5:         0.00 cm**-1
   6:        95.40 cm**-1
   7:       107.22 cm**-1
   8:       128.77 cm**-1
   9:       162.71 cm**-1
  10:       198.06 cm**-1
  11:       207.81 cm**-1
  12:       226.77 cm**-1
  13:       310.16 cm**-1
  14:       321.87 cm**-1
  15:       376.03 cm**-1
  16:       418.39 cm**-1
  17:       507.22 cm**-1
  18:       751.78 cm**-1
  19:       840.05 cm**-1
  20:       868.78 cm**-1
  21:       886.89 cm**-1
  22:       913.30 cm**-1
  23:       959.49 cm**-1
  24:      1004.90 cm**-1
  25:      1026.84 cm**-1
  26:      1090.74 cm**-1
  27:      1107.78 cm**-1
  28:      1117.86 cm**-1
  29:      1156.46 cm**-1
  30:      1208.05 cm**-1
  31:      1209.00 cm**-1
  32:      1291.06 cm**-1
  33:      1312.62 cm**-1
  34:      1359.18 cm**-1
  35:      1372.29 cm**-1
  36:      1385.77 cm**-1
  37:      1390.46 cm**-1
  38:      1408.03 cm**-1
  39:      1420.81 cm**-1
  40:      1431.65 cm**-1
  41:      1477.95 cm**-1
  42:      1481.71 cm**-1
  43:      1489.72 cm**-1
  44:      1493.54 cm**-1
  45:      1502.87 cm**-1
  46:      1505.38 cm**-1
  47:      1650.11 cm**-1
  48:      1659.33 cm**-1
  49:      3012.76 cm**-1
  50:      3018.93 cm**-1
  51:      3048.20 cm**-1
  52:      3059.50 cm**-1
  53:      3061.09 cm**-1
  54:      3073.90 cm**-1
  55:      3100.41 cm**-1
  56:      3102.73 cm**-1
  57:      3123.65 cm**-1
  58:      3143.31 cm**-1
  59:      3416.74 cm**-1
  60:      3500.21 cm**-1
  61:      3507.90 cm**-1
  62:      3860.93 cm**-1

IR SPECTRUM
-----------

 Mode    freq (cm**-1)   T**2         TX         TY         TZ
-------------------------------------------------------------------
   6:        95.40    6.550686  ( -0.039317   2.559028   0.022689)
   7:       107.22    7.995208  (  1.899825  -0.506016  -2.032196)
   8:       128.77   42.325858  ( -1.034498  -3.899665  -5.103752)
   9:       162.71   51.106212  ( -1.748899  -3.836916  -5.772837)
  10:       198.06    7.733714  (  0.221501   0.957431   2.601534)
  11:       207.81   31.175654  ( -0.905555  -4.325281  -3.412853)
  12:       226.77    5.306052  ( -1.005972   1.546183   1.379634)
  13:       310.16    3.258716  (  0.223540  -0.828802  -1.588028)
  14:       321.87    3.221736  ( -1.028608  -0.566018  -1.357691)
  15:       376.03    2.194896  (  1.067194  -0.363946   0.961008)
  16:       418.39    1.524636  ( -0.451412   0.364036   1.090111)
  17:       507.22    9.922536  ( -2.909349  -0.118042   1.201786)
  18:       751.78    3.219922  ( -0.403535  -0.731480  -1.588087)
  19:       840.05    9.642957  (  1.629987  -2.498358  -0.862732)
  20:       868.78    6.420796  (  0.592770   0.831648  -2.319004)
  21:       886.89    9.718131  (  1.949446  -0.752481  -2.313345)
  22:       913.30   10.401547  ( -3.154136  -0.623177  -0.254214)
  23:       959.49   16.797475  (  1.911109   2.055221   2.986839)
  24:      1004.90    1.371937  (  1.123627   0.044910   0.327694)
  25:      1026.84   11.175620  ( -1.703577   1.549103  -2.423577)
  26:      1090.74    0.786752  (  0.646896   0.606737  -0.012155)
  27:      1107.78    4.868114  ( -1.816057   0.321055  -1.211188)
  28:      1117.86   88.951888  (  4.521436   3.439398  -7.528548)
  29:      1156.46   10.155694  ( -2.154413   0.276822   2.331860)
  30:      1208.05    4.491475  (  0.135848   0.128652  -2.111035)
  31:      1209.00   21.148640  ( -0.584583   0.418923  -4.542181)
  32:      1291.06    7.623649  (  1.695475   1.477661  -1.601728)
  33:      1312.62    8.239010  (  0.797964   1.765172  -2.118120)
  34:      1359.18    2.163720  (  1.174547  -0.875661   0.131824)
  35:      1372.29    3.246410  ( -1.429812   1.094567  -0.063006)
  36:      1385.77   10.778371  ( -2.704572  -0.680695   1.732142)
  37:      1390.46    8.833445  (  1.438111   1.006118  -2.398543)
  38:      1408.03   10.238356  ( -2.177665   1.977461  -1.259279)
  39:      1420.81    3.635684  ( -1.056528   1.136907   1.107644)
  40:      1431.65    1.704761  (  1.239743  -0.408367   0.032164)
  41:      1477.95    8.553045  ( -2.797035  -0.641941   0.563515)
  42:      1481.71    9.213923  (  3.007664  -0.210712   0.351400)
  43:      1489.72   42.880719  ( -5.632487   1.284403   3.083198)
  44:      1493.54   55.552898  (  4.945187   2.094238  -5.168384)
  45:      1502.87    6.641183  (  1.358802   1.470503   1.622486)
  46:      1505.38   84.734358  ( -7.928359  -3.543025   3.053271)
  47:      1650.11   53.239133  (  2.041668  -6.865212  -1.392690)
  48:      1659.33   38.796630  (  3.243863  -0.919574   5.237210)
  49:      3012.76   27.103729  ( -4.330299  -2.889527   0.053647)
  50:      3018.93   26.198637  ( -3.438225  -1.745006   3.366333)
  51:      3048.20   22.019626  ( -1.280164  -3.191555  -3.192927)
  52:      3059.50    7.059596  (  2.197049  -1.280726  -0.769619)
  53:      3061.09   12.077334  (  2.304389  -1.900876   1.775893)
  54:      3073.90   16.806987  ( -0.040946   4.042420   0.681286)
  55:      3100.41    5.625721  (  1.745175  -0.685011   1.452874)
  56:      3102.73    4.003766  ( -0.830857   1.819381  -0.057397)
  57:      3123.65   30.741517  ( -3.039025  -0.645091  -4.592353)
  58:      3143.31    7.240399  (  1.770177   1.748065  -1.025251)
  59:      3416.74   39.803745  ( -5.697063  -1.069667   2.490589)
  60:      3500.21   78.358423  ( -3.459823   7.873656  -2.096089)
  61:      3507.90   80.028620  (  2.700963   3.415231   7.814705)
  62:      3860.93   85.118072  ( -9.107960   1.222586   0.817572)

--------------------------
THERMOCHEMISTRY AT 298.15K
--------------------------

Temperature         ... 298.15 K
Pressure            ... 1.00 atm
Total Mass          ... 104.17 AMU

Throughout the following assumptions are being made:
  (1) The electronic state is orbitally nondegenerate
  (2) There are no thermally accessible electronically excited states
  (3) Hindered rotations indicated by low frequency modes) are not
      treated as such but are treated as vibrations and this may
      case some error
  (4) All equations used are the standard statistical mechanics
      equations for an ideal gas
  (5) All vibrations are strinctly harmonic

------------
INNER ENERGY
------------

The inner energy is: U= E(el) + E(ZPE) + E(vib) + E(rot) + E(trans)
    E(el)   - is the total energy from the electronic structure calculation
              = E(kin-el) + E(nuc-el) + E(el-el) + E(nuc-nuc)
    E(ZPE)  - the the zero temperature vibrational energy from the frequency calculation
    E(vib)  - the the finite temperature correction to E(ZPE) due to population
              of excietd vibrational states
    E(rot)  - is the rotational thermal energy
    E(trans)- is the translational thermal energy

Summary of contributions to the inner energy U:
Electronic energy                ...   -328.42428171 Eh
Zero point energy                ...      0.19789331 Eh     124.18 kcal/mol
Thermal vibrational correction   ...      0.00672395 Eh       4.22 kcal/mol
Thermal rotational correction    ...      0.00141627 Eh       0.89 kcal/mol
Thermal translational correction ...      0.00141627 Eh       0.89 kcal/mol
-----------------------------------------------------------------------
Total thermal energy                   -328.21683191 Eh

Summary of corrections to the electronic energy:
(perhaps to be used in another calculation)
Total thermal correction                  0.00955649 Eh       6.00 kcal/mol
Non-thermal (ZPE) correction              0.19789331 Eh     124.18 kcal/mol
-----------------------------------------------------------------------
Total correction                          0.20744980 Eh     130.18 kcal/mol

--------
ENTHALPY
--------

The enthalpy is H = U + kB*T
                kB is Boltzmann's constant
Total free energy                 ...   -328.21683191 Eh
Thermal Enthalpy correction       ...      0.00094421 Eh       0.59 kcal/mol
-----------------------------------------------------------------------
Total Enthalpy                    ...   -328.21588770 Eh

-------
ENTROPY
-------

The entropy contributions are T*S = T*(S(el)+S(vib)+S(rot)+S(trans)
     S(el)   - electronic entropy
     S(vib)  - vibrational entropy
     S(rot)  - rotational entropy
     S(trans)- translational entropy
The entropies will be listed as mutliplied by the temperature to get
units of energy

Electronic entropy                ...      0.00000000 Eh      0.00 kcal/mol
Vibrational entropy               ...      0.01209334 Eh      7.59 kcal/mol
Rotational entropy                ...      0.01232752 Eh      7.74 kcal/mol
Translational entropy             ...      0.01892914 Eh     11.88 kcal/mol
-----------------------------------------------------------------------
Final entropy term                ...      0.04335000 Eh     27.20 kcal/mol

CAUTION: The rotational entropy is not quite correctly treated here
         because it includes a symmetry number that is not yet correctly
         implemented in ORCA!
For a nonlinear molecule the correct rotational entropy is:
    S(rot) = R*(ln(qrot/sn)+1.5)
    R    = 8.31441 J/mol/K = 1.987191683e-3 kcal/mol/K
    qrot = 313300.9962077
    sn is the rotational symmetry number. We have assumed 3 here
       if it is different for your molecule then you should correct
       the printed rotational entropy by manually evaluating the equation
       as given above

For convenience we print out the resulting values for sn=1 - 12:
 sn= 1  qrot/sn=  313300.9962 T*S(rot)=     8.39 kcal/mol T*S(tot)=    27.85 kcal/mol
 sn= 2  qrot/sn=  156650.4981 T*S(rot)=     7.98 kcal/mol T*S(tot)=    27.44 kcal/mol
 sn= 3  qrot/sn=  104433.6654 T*S(rot)=     7.74 kcal/mol T*S(tot)=    27.20 kcal/mol
 sn= 4  qrot/sn=   78325.2491 T*S(rot)=     7.57 kcal/mol T*S(tot)=    27.03 kcal/mol
 sn= 5  qrot/sn=   62660.1992 T*S(rot)=     7.43 kcal/mol T*S(tot)=    26.90 kcal/mol
 sn= 6  qrot/sn=   52216.8327 T*S(rot)=     7.32 kcal/mol T*S(tot)=    26.79 kcal/mol
 sn= 7  qrot/sn=   44757.2852 T*S(rot)=     7.23 kcal/mol T*S(tot)=    26.70 kcal/mol
 sn= 8  qrot/sn=   39162.6245 T*S(rot)=     7.15 kcal/mol T*S(tot)=    26.62 kcal/mol
 sn= 9  qrot/sn=   34811.2218 T*S(rot)=     7.08 kcal/mol T*S(tot)=    26.55 kcal/mol
 sn=10  qrot/sn=   31330.0996 T*S(rot)=     7.02 kcal/mol T*S(tot)=    26.49 kcal/mol
 sn=11  qrot/sn=   28481.9087 T*S(rot)=     6.97 kcal/mol T*S(tot)=    26.43 kcal/mol
 sn=12  qrot/sn=   26108.4164 T*S(rot)=     6.91 kcal/mol T*S(tot)=    26.38 kcal/mol

-------------------
GIBBS FREE ENTHALPY
-------------------

The Gibbs free enthalpy is G = H - T*S

Total enthalpy                    ...   -328.21588770 Eh
Total entropy correction          ...     -0.04335000 Eh    -27.20 kcal/mol
-----------------------------------------------------------------------
Final Gibbs free enthalpy         ...   -328.25923770 Eh

For completeness - the Gibbs free enthalpy minus the electronic energy
G-E(el)                           ...      0.16504401 Eh    103.57 kcal/mol

                             ****ORCA TERMINATED NORMALLY****
TOTAL RUN TIME: 0 days 0 hours 53 minutes 38 seconds 528 msec
