                         Program Version 3.0.3 - RELEASE   -
|  1> ! NORI PBE0 def2-TZVP UseSym TightOPT Freq TightSCF Grid3 FinalGrid5 XYZFile
|  2> % pal
|  3>     nprocs 8
|  4> end
|  5> %method
|  6>     SymThresh 5.0e-2
|  7> end
|  8> % geom
|  9>     MaxIter 10
| 10> end
| 11> % maxcore 2000
| 12> % output
| 13>     printlevel mini
| 14>     print[ P_Basis ] 0
| 15>     print[ P_SCFInfo ] 1
| 16>     print[ P_SCFIterInfo ] 1
| 17>     print[ P_OrbEn ] 0
| 18>     print[ P_Cartesian ] 0
| 19> end
| 20> % elprop
| 21>     Dipole false
| 22> end
| 23> *xyz 1 1
| 24>  C        0.9265098879    -0.6990206214     1.2341074411
| 25>  C        1.5855374525     0.3228079026     0.3767822438
| 26>  C        2.8525174127     0.9961723805     0.8466126175
| 27>  C        2.5683938130     2.4366239785     1.2257562755
| 28>  N        3.8584820197     3.1802059031     1.4684113102
| 29>  N        1.0611611731     0.5929406153    -0.7496673500
| 30>  O        1.7714871927     1.5544235524    -1.4487315828
| 31>  H        0.0233984269    -1.0682912160     0.7521847626
| 32>  H        0.6601534390    -0.2827511122     2.2106168239
| 33>  H        1.6018969525    -1.5406270100     1.4147253837
| 34>  H        3.5730760077     0.9696903576     0.0208572079
| 35>  H        3.2705764161     0.4473172339     1.6943431752
| 36>  H        1.9837540686     2.5206876930     2.1421090329
| 37>  H        2.0591945894     2.9605786150     0.4181980742
| 38>  H        4.4067413604     2.7418594917     2.2117605305
| 39>  H        3.6909139889     4.1529494319     1.7339424944
| 40>  H        4.4326528734     3.1810546356     0.6220685356
| 41>  H        1.3043129254     1.6027881687    -2.2893869763
| 42> *
| 43>
| 44>                          ****END OF INPUT****
 Total Charge           Charge          ....    1
 Multiplicity           Mult            ....    1
 Number of Electrons    NEL             ....   56
FINAL SINGLE POINT ENERGY      -343.215055859109

CARTESIAN COORDINATES (ANGSTROEM)
---------------------------------
  C     -2.283495   -0.019340   -0.874215
  C     -1.080392    0.119004   -0.010074
  C      0.218499    0.612589   -0.600620
  C      1.214896   -0.526414   -0.695812
  N      2.581014   -0.000004   -1.060972
  N     -1.187378   -0.174632    1.222508
  O     -0.000884    0.000658    1.914792
  H     -3.122011   -0.399414   -0.293464
  H     -2.093826   -0.701999   -1.708584
  H     -2.559494    0.948105   -1.304360
  H      0.614213    1.391166    0.061400
  H      0.034533    1.050061   -1.585263
  H      0.946875   -1.254174   -1.461985
  H      1.326128   -1.029970    0.263320
  H      2.561183    0.501058   -1.951893
  H      3.268400   -0.752354   -1.139243
  H      2.912236    0.653716   -0.347736
  H     -0.248936   -0.191507    2.825215

FINAL SINGLE POINT ENERGY      -343.215056265492
                    ***********************HURRAY********************
 Multiplicity           Mult            ....    1
 Number of Electrons    NEL             ....   56
 Basis Dimension        Dim             ....  283
FINAL SINGLE POINT ENERGY      -343.215056407337

VIBRATIONAL FREQUENCIES
-----------------------

   0:         0.00 cm**-1
   1:         0.00 cm**-1
   2:         0.00 cm**-1
   3:         0.00 cm**-1
   4:         0.00 cm**-1
   5:         0.00 cm**-1
   6:        61.49 cm**-1
   7:       111.43 cm**-1
   8:       173.34 cm**-1
   9:       199.51 cm**-1
  10:       233.53 cm**-1
  11:       286.53 cm**-1
  12:       318.34 cm**-1
  13:       346.21 cm**-1
  14:       409.33 cm**-1
  15:       479.61 cm**-1
  16:       589.30 cm**-1
  17:       621.44 cm**-1
  18:       771.74 cm**-1
  19:       854.83 cm**-1
  20:       897.66 cm**-1
  21:       915.80 cm**-1
  22:       982.08 cm**-1
  23:       998.88 cm**-1
  24:      1038.08 cm**-1
  25:      1046.77 cm**-1
  26:      1116.33 cm**-1
  27:      1149.02 cm**-1
  28:      1257.51 cm**-1
  29:      1300.19 cm**-1
  30:      1346.85 cm**-1
  31:      1358.34 cm**-1
  32:      1396.91 cm**-1
  33:      1407.84 cm**-1
  34:      1434.04 cm**-1
  35:      1462.16 cm**-1
  36:      1469.34 cm**-1
  37:      1471.69 cm**-1
  38:      1500.04 cm**-1
  39:      1505.96 cm**-1
  40:      1658.69 cm**-1
  41:      1662.85 cm**-1
  42:      1752.51 cm**-1
  43:      3045.99 cm**-1
  44:      3048.63 cm**-1
  45:      3104.94 cm**-1
  46:      3108.01 cm**-1
  47:      3111.69 cm**-1
  48:      3170.51 cm**-1
  49:      3176.99 cm**-1
  50:      3420.56 cm**-1
  51:      3502.50 cm**-1
  52:      3507.93 cm**-1
  53:      3843.99 cm**-1

IR SPECTRUM
-----------

 Mode    freq (cm**-1)   T**2         TX         TY         TZ
-------------------------------------------------------------------
   6:        61.49    9.187979  ( -0.169022   0.274260   3.013999)
   7:       111.43    1.597261  ( -0.054143  -1.243816  -0.217371)
   8:       173.34    3.625615  (  1.122194   1.345994  -0.744712)
   9:       199.51    1.421430  ( -0.574683  -0.963853   0.402688)
  10:       233.53    0.393376  (  0.583161   0.161797  -0.164684)
  11:       286.53   10.625075  ( -2.943414   1.394651  -0.127824)
  12:       318.34    0.511625  (  0.353745  -0.618986  -0.057843)
  13:       346.21    2.212014  (  1.104088   0.500702   0.861570)
  14:       409.33    5.404503  (  1.764243   1.139723  -0.996485)
  15:       479.61  116.049567  ( -3.386122  10.065397   1.808736)
  16:       589.30   14.562293  ( -1.300530  -3.576327  -0.284251)
  17:       621.44   13.100566  ( -3.068417   0.532479  -1.844410)
  18:       771.74    8.095419  (  0.565104   0.377658   2.762870)
  19:       854.83    3.788438  ( -0.714106   1.720030   0.565675)
  20:       897.66   18.992121  (  3.817383  -1.952995  -0.778150)
  21:       915.80   10.014683  (  1.072360   0.001858  -2.977369)
  22:       982.08   22.038974  ( -2.194885  -0.719235  -4.087071)
  23:       998.88   20.145963  (  0.109993  -1.809817   4.105902)
  24:      1038.08   44.520389  ( -2.970858   0.674831  -5.936244)
  25:      1046.77   31.202650  (  0.666108  -0.007358   5.546070)
  26:      1116.33   38.149710  ( -2.118678  -0.872127  -5.735879)
  27:      1149.02   22.950753  ( -3.941578   2.644529  -0.648986)
  28:      1257.51   22.553389  (  4.655783   0.474018   0.807702)
  29:      1300.19    8.674874  (  2.788971   0.130302   0.937835)
  30:      1346.85   41.678342  ( -6.245041  -1.444112  -0.769641)
  31:      1358.34   13.908098  (  0.973414   1.337069   3.342575)
  32:      1396.91   39.997144  ( -5.321571  -0.738180  -3.336632)
  33:      1407.84    8.097282  (  2.352376   0.829476  -1.369518)
  34:      1434.04    3.077798  (  0.540195  -0.057538  -1.668136)
  35:      1462.16   14.380183  (  1.341142   2.322474  -2.680976)
  36:      1469.34   13.473123  ( -0.691470   3.217441   1.625751)
  37:      1471.69    1.234942  (  0.097743  -0.266651   1.074377)
  38:      1500.04   20.561689  ( -2.832325   3.537348  -0.163679)
  39:      1505.96  149.249640  ( 11.070951   4.316897  -2.836913)
  40:      1658.69   50.835025  (  1.485424   1.130558   6.881161)
  41:      1662.85   36.974746  (  2.631491  -5.469681   0.364128)
  42:      1752.51    1.797263  ( -0.245794  -0.059893   1.316534)
  43:      3045.99    3.270359  ( -0.725646  -0.819369  -1.439594)
  44:      3048.63   11.509652  (  1.534035   1.502261  -2.626710)
  45:      3104.94    4.704189  ( -0.539627   1.957862   0.761424)
  46:      3108.01    2.652308  ( -0.572396   0.807653  -1.293201)
  47:      3111.69    3.737287  (  0.828949  -0.876816  -1.510405)
  48:      3170.51    0.494958  ( -0.557413  -0.083942   0.420954)
  49:      3176.99    1.387914  (  0.787346   0.192744  -0.854898)
  50:      3420.56   46.161793  (  6.365967   1.672556  -1.684878)
  51:      3502.50   90.433769  (  1.265312   2.443031   9.102986)
  52:      3507.93   99.362809  (  4.235883  -8.895894   1.511018)
  53:      3843.99  178.951531  (  0.682115   1.975083 -13.213073)

--------------------------
THERMOCHEMISTRY AT 298.15K
--------------------------

Temperature         ... 298.15 K
Pressure            ... 1.00 atm
Total Mass          ... 103.14 AMU

Throughout the following assumptions are being made:
  (1) The electronic state is orbitally nondegenerate
  (2) There are no thermally accessible electronically excited states
  (3) Hindered rotations indicated by low frequency modes) are not
      treated as such but are treated as vibrations and this may
      case some error
  (4) All equations used are the standard statistical mechanics
      equations for an ideal gas
  (5) All vibrations are strinctly harmonic

------------
INNER ENERGY
------------

The inner energy is: U= E(el) + E(ZPE) + E(vib) + E(rot) + E(trans)
    E(el)   - is the total energy from the electronic structure calculation
              = E(kin-el) + E(nuc-el) + E(el-el) + E(nuc-nuc)
    E(ZPE)  - the the zero temperature vibrational energy from the frequency calculation
    E(vib)  - the the finite temperature correction to E(ZPE) due to population
              of excietd vibrational states
    E(rot)  - is the rotational thermal energy
    E(trans)- is the translational thermal energy

Summary of contributions to the inner energy U:
Electronic energy                ...   -343.21505641 Eh
Zero point energy                ...      0.16318043 Eh     102.40 kcal/mol
Thermal vibrational correction   ...      0.00579070 Eh       3.63 kcal/mol
Thermal rotational correction    ...      0.00141627 Eh       0.89 kcal/mol
Thermal translational correction ...      0.00141627 Eh       0.89 kcal/mol
-----------------------------------------------------------------------
Total thermal energy                   -343.04325274 Eh

Summary of corrections to the electronic energy:
(perhaps to be used in another calculation)
Total thermal correction                  0.00862324 Eh       5.41 kcal/mol
Non-thermal (ZPE) correction              0.16318043 Eh     102.40 kcal/mol
-----------------------------------------------------------------------
Total correction                          0.17180367 Eh     107.81 kcal/mol

--------
ENTHALPY
--------

The enthalpy is H = U + kB*T
                kB is Boltzmann's constant
Total free energy                 ...   -343.04325274 Eh
Thermal Enthalpy correction       ...      0.00094421 Eh       0.59 kcal/mol
-----------------------------------------------------------------------
Total Enthalpy                    ...   -343.04230853 Eh

-------
ENTROPY
-------

The entropy contributions are T*S = T*(S(el)+S(vib)+S(rot)+S(trans)
     S(el)   - electronic entropy
     S(vib)  - vibrational entropy
     S(rot)  - rotational entropy
     S(trans)- translational entropy
The entropies will be listed as mutliplied by the temperature to get
units of energy

Electronic entropy                ...      0.00000000 Eh      0.00 kcal/mol
Vibrational entropy               ...      0.01041819 Eh      6.54 kcal/mol
Rotational entropy                ...      0.01229805 Eh      7.72 kcal/mol
Translational entropy             ...      0.01891510 Eh     11.87 kcal/mol
-----------------------------------------------------------------------
Final entropy term                ...      0.04163134 Eh     26.12 kcal/mol

CAUTION: The rotational entropy is not quite correctly treated here
         because it includes a symmetry number that is not yet correctly
         implemented in ORCA!
For a nonlinear molecule the correct rotational entropy is:
    S(rot) = R*(ln(qrot/sn)+1.5)
    R    = 8.31441 J/mol/K = 1.987191683e-3 kcal/mol/K
    qrot = 303674.6167011
    sn is the rotational symmetry number. We have assumed 3 here
       if it is different for your molecule then you should correct
       the printed rotational entropy by manually evaluating the equation
       as given above

For convenience we print out the resulting values for sn=1 - 12:
 sn= 1  qrot/sn=  303674.6167 T*S(rot)=     8.37 kcal/mol T*S(tot)=    26.77 kcal/mol
 sn= 2  qrot/sn=  151837.3084 T*S(rot)=     7.96 kcal/mol T*S(tot)=    26.36 kcal/mol
 sn= 3  qrot/sn=  101224.8722 T*S(rot)=     7.72 kcal/mol T*S(tot)=    26.12 kcal/mol
 sn= 4  qrot/sn=   75918.6542 T*S(rot)=     7.55 kcal/mol T*S(tot)=    25.95 kcal/mol
 sn= 5  qrot/sn=   60734.9233 T*S(rot)=     7.41 kcal/mol T*S(tot)=    25.82 kcal/mol
 sn= 6  qrot/sn=   50612.4361 T*S(rot)=     7.31 kcal/mol T*S(tot)=    25.71 kcal/mol
 sn= 7  qrot/sn=   43382.0881 T*S(rot)=     7.22 kcal/mol T*S(tot)=    25.62 kcal/mol
 sn= 8  qrot/sn=   37959.3271 T*S(rot)=     7.14 kcal/mol T*S(tot)=    25.54 kcal/mol
 sn= 9  qrot/sn=   33741.6241 T*S(rot)=     7.07 kcal/mol T*S(tot)=    25.47 kcal/mol
 sn=10  qrot/sn=   30367.4617 T*S(rot)=     7.00 kcal/mol T*S(tot)=    25.41 kcal/mol
 sn=11  qrot/sn=   27606.7833 T*S(rot)=     6.95 kcal/mol T*S(tot)=    25.35 kcal/mol
 sn=12  qrot/sn=   25306.2181 T*S(rot)=     6.90 kcal/mol T*S(tot)=    25.30 kcal/mol

-------------------
GIBBS FREE ENTHALPY
-------------------

The Gibbs free enthalpy is G = H - T*S

Total enthalpy                    ...   -343.04230853 Eh
Total entropy correction          ...     -0.04163134 Eh    -26.12 kcal/mol
-----------------------------------------------------------------------
Final Gibbs free enthalpy         ...   -343.08393986 Eh

For completeness - the Gibbs free enthalpy minus the electronic energy
G-E(el)                           ...      0.13111655 Eh     82.28 kcal/mol

                             ****ORCA TERMINATED NORMALLY****
TOTAL RUN TIME: 0 days 0 hours 37 minutes 38 seconds 492 msec
