                         Program Version 3.0.3 - RELEASE   -
|  1> ! NORI PBE0 def2-TZVP UseSym TightOPT Freq TightSCF Grid3 FinalGrid5 XYZFile
|  2> % pal
|  3>     nprocs 8
|  4> end
|  5> %method
|  6>     SymThresh 5.0e-2
|  7> end
|  8> % geom
|  9>     MaxIter 10
| 10> end
| 11> % maxcore 2000
| 12> % output
| 13>     printlevel mini
| 14>     print[ P_Basis ] 0
| 15>     print[ P_SCFInfo ] 1
| 16>     print[ P_SCFIterInfo ] 1
| 17>     print[ P_OrbEn ] 0
| 18>     print[ P_Cartesian ] 0
| 19> end
| 20> % elprop
| 21>     Dipole false
| 22> end
| 23> *xyz 1 1
| 24>  C        2.1471959110     0.7594131729     1.5166871427
| 25>  C        2.5242794549     0.0447058270     0.2210889658
| 26>  C        2.9604073081     0.9898146296    -0.8491136112
| 27>  C        1.9820373547     2.0016332932    -1.3883070961
| 28>  N        1.9487110973     1.9357057293    -2.8874953622
| 29>  N        4.1672880366     0.9358905013    -1.2492371589
| 30>  O        4.4536056988     1.9002988472    -2.2134717025
| 31>  H        1.8359353872     0.0290014727     2.2638176151
| 32>  H        1.3169351966     1.4585232175     1.3838839620
| 33>  H        2.9982693038     1.3114704180     1.9195008045
| 34>  H        3.3394587598    -0.6586448571     0.3960878705
| 35>  H        1.6682974300    -0.5358213249    -0.1453520199
| 36>  H        0.9731761689     1.8316608537    -1.0162811760
| 37>  H        2.2930299639     3.0156909723    -1.1283391487
| 38>  H        1.5783725798     1.0438598463    -3.2181050895
| 39>  H        2.9332162006     2.0203576196    -3.1986526094
| 40>  H        1.3893668592     2.6866791534    -3.2928865174
| 41>  H        5.3909972887     1.7717906280    -2.3993548688
| 42> *
| 43>
| 44>                          ****END OF INPUT****
 Total Charge           Charge          ....    1
 Multiplicity           Mult            ....    1
 Number of Electrons    NEL             ....   56
FINAL SINGLE POINT ENERGY      -343.216775248318
FINAL SINGLE POINT ENERGY      -343.216776674354
FINAL SINGLE POINT ENERGY      -343.216776908683
FINAL SINGLE POINT ENERGY      -343.216777425562

CARTESIAN COORDINATES (ANGSTROEM)
---------------------------------
  C     -1.507608    0.583135   -2.180651
  C     -0.979575   -0.604952   -1.379541
  C     -0.253047   -0.184846   -0.144788
  C      1.010447    0.627571   -0.270934
  N      2.108152    0.001600    0.539764
  N     -0.748758   -0.495347    0.985321
  O      0.001135   -0.001726    2.051563
  H     -2.019340    0.227365   -3.075194
  H     -0.709394    1.253462   -2.511307
  H     -2.219754    1.164627   -1.592867
  H     -1.799267   -1.258207   -1.077878
  H     -0.302204   -1.200745   -2.003557
  H      1.346833    0.698714   -1.303630
  H      0.864098    1.633577    0.127908
  H      2.372704   -0.913739    0.173820
  H      1.723129   -0.122829    1.493530
  H      2.942276    0.588386    0.574036
  H     -0.496923   -0.273801    2.831094

FINAL SINGLE POINT ENERGY      -343.216777675028
                    ***********************HURRAY********************
 Multiplicity           Mult            ....    1
 Number of Electrons    NEL             ....   56
 Basis Dimension        Dim             ....  283
FINAL SINGLE POINT ENERGY      -343.216777735676

VIBRATIONAL FREQUENCIES
-----------------------

   0:         0.00 cm**-1
   1:         0.00 cm**-1
   2:         0.00 cm**-1
   3:         0.00 cm**-1
   4:         0.00 cm**-1
   5:         0.00 cm**-1
   6:        84.37 cm**-1
   7:       117.38 cm**-1
   8:       191.56 cm**-1
   9:       216.88 cm**-1
  10:       285.38 cm**-1
  11:       290.46 cm**-1
  12:       339.95 cm**-1
  13:       370.25 cm**-1
  14:       407.06 cm**-1
  15:       510.09 cm**-1
  16:       569.93 cm**-1
  17:       660.79 cm**-1
  18:       789.81 cm**-1
  19:       800.72 cm**-1
  20:       859.50 cm**-1
  21:       954.74 cm**-1
  22:       969.33 cm**-1
  23:      1017.12 cm**-1
  24:      1061.56 cm**-1
  25:      1072.61 cm**-1
  26:      1123.96 cm**-1
  27:      1129.98 cm**-1
  28:      1253.55 cm**-1
  29:      1290.45 cm**-1
  30:      1334.45 cm**-1
  31:      1344.98 cm**-1
  32:      1384.80 cm**-1
  33:      1413.25 cm**-1
  34:      1427.30 cm**-1
  35:      1465.72 cm**-1
  36:      1477.38 cm**-1
  37:      1485.95 cm**-1
  38:      1492.52 cm**-1
  39:      1497.15 cm**-1
  40:      1641.29 cm**-1
  41:      1675.84 cm**-1
  42:      1743.92 cm**-1
  43:      3041.64 cm**-1
  44:      3056.57 cm**-1
  45:      3100.33 cm**-1
  46:      3120.94 cm**-1
  47:      3140.19 cm**-1
  48:      3153.75 cm**-1
  49:      3170.41 cm**-1
  50:      3229.40 cm**-1
  51:      3471.31 cm**-1
  52:      3527.81 cm**-1
  53:      3831.27 cm**-1

IR SPECTRUM
-----------

 Mode    freq (cm**-1)   T**2         TX         TY         TZ
-------------------------------------------------------------------
   6:        84.37    2.131520  (  0.500400  -0.634654   1.215868)
   7:       117.38    4.493348  (  0.447941  -1.863262  -0.906064)
   8:       191.56    4.543297  ( -0.003801  -0.886096   1.938586)
   9:       216.88    0.245446  ( -0.233247  -0.207991  -0.384423)
  10:       285.38   15.599262  ( -3.825100  -0.346229   0.920867)
  11:       290.46   19.419695  (  4.141499   1.492266   0.202044)
  12:       339.95    7.577485  ( -0.987573  -2.048470  -1.551114)
  13:       370.25    4.260735  (  1.428230  -1.381503   0.558876)
  14:       407.06    9.349934  ( -2.174548   1.097359   1.848534)
  15:       510.09  120.955192  (  5.926859  -9.246465   0.574816)
  16:       569.93   11.602324  ( -1.619254  -2.489524  -1.668117)
  17:       660.79    3.136595  ( -0.794739  -0.492363   1.504182)
  18:       789.81    0.515690  (  0.496788   0.493703   0.158585)
  19:       800.72    1.166702  (  1.035634   0.170679  -0.255016)
  20:       859.50   13.863335  ( -3.010464   1.688124   1.396667)
  21:       954.74   10.908129  ( -3.073192  -0.967547   0.726275)
  22:       969.33  101.787953  ( -0.369988  -1.224414 -10.007591)
  23:      1017.12   49.637582  ( -2.071516   0.350410  -6.724851)
  24:      1061.56   13.641885  (  1.136997  -0.892254  -3.398971)
  25:      1072.61   24.632484  ( -0.917228   0.248650   4.871278)
  26:      1123.96   36.301872  ( -4.473581  -3.707574   1.594628)
  27:      1129.98   16.824268  ( -3.558397  -0.247242  -2.025080)
  28:      1253.55   16.877652  ( -3.345657  -1.782782  -1.583009)
  29:      1290.45    1.954856  ( -0.766070  -0.575040   1.018490)
  30:      1334.45   33.332483  (  1.022800   2.457564   5.123157)
  31:      1344.98    0.674737  (  0.500471  -0.373662  -0.533519)
  32:      1384.80   22.564124  (  0.712313   1.979887   4.258730)
  33:      1413.25    3.054080  ( -0.252661   1.658575   0.489256)
  34:      1427.30    3.488024  (  0.429857  -1.816171  -0.069061)
  35:      1465.72   15.452429  ( -0.279266  -3.494602   1.778257)
  36:      1477.38   37.287341  (  3.279656  -3.008323   4.181051)
  37:      1485.95  180.595897  ( 12.230732  -2.230364   5.102016)
  38:      1492.52   12.129746  (  0.761970   1.117530   3.209404)
  39:      1497.15    6.667357  (  0.084162  -2.348081   1.070882)
  40:      1641.29   31.647541  ( -3.163194   2.520959   3.909797)
  41:      1675.84   34.030086  ( -3.441654  -4.668427  -0.625213)
  42:      1743.92    1.242202  (  0.142490   0.125282  -1.098273)
  43:      3041.64    7.651115  ( -1.984099   1.819210   0.636350)
  44:      3056.57   12.940250  (  0.870206   3.220480  -1.345920)
  45:      3100.33    1.795893  ( -0.241708   0.526022   1.208623)
  46:      3120.94    5.515946  (  2.303611   0.329648  -0.317262)
  47:      3140.19    7.661849  (  2.632989   0.788699  -0.327370)
  48:      3153.75    4.111201  ( -0.311855   1.221884   1.587749)
  49:      3170.41    2.897513  (  1.165247   0.946688  -0.802181)
  50:      3229.40  168.678655  ( -8.885540  -1.468332   9.357875)
  51:      3471.31  101.357932  (  9.472009  -1.730318  -2.940235)
  52:      3527.81   96.779767  (  3.709860   8.842906   2.195386)
  53:      3831.27  233.999734  ( -5.204042  -2.790262  14.111418)

--------------------------
THERMOCHEMISTRY AT 298.15K
--------------------------

Temperature         ... 298.15 K
Pressure            ... 1.00 atm
Total Mass          ... 103.14 AMU

Throughout the following assumptions are being made:
  (1) The electronic state is orbitally nondegenerate
  (2) There are no thermally accessible electronically excited states
  (3) Hindered rotations indicated by low frequency modes) are not
      treated as such but are treated as vibrations and this may
      case some error
  (4) All equations used are the standard statistical mechanics
      equations for an ideal gas
  (5) All vibrations are strinctly harmonic

------------
INNER ENERGY
------------

The inner energy is: U= E(el) + E(ZPE) + E(vib) + E(rot) + E(trans)
    E(el)   - is the total energy from the electronic structure calculation
              = E(kin-el) + E(nuc-el) + E(el-el) + E(nuc-nuc)
    E(ZPE)  - the the zero temperature vibrational energy from the frequency calculation
    E(vib)  - the the finite temperature correction to E(ZPE) due to population
              of excietd vibrational states
    E(rot)  - is the rotational thermal energy
    E(trans)- is the translational thermal energy

Summary of contributions to the inner energy U:
Electronic energy                ...   -343.21677774 Eh
Zero point energy                ...      0.16310672 Eh     102.35 kcal/mol
Thermal vibrational correction   ...      0.00552781 Eh       3.47 kcal/mol
Thermal rotational correction    ...      0.00141627 Eh       0.89 kcal/mol
Thermal translational correction ...      0.00141627 Eh       0.89 kcal/mol
-----------------------------------------------------------------------
Total thermal energy                   -343.04531067 Eh

Summary of corrections to the electronic energy:
(perhaps to be used in another calculation)
Total thermal correction                  0.00836035 Eh       5.25 kcal/mol
Non-thermal (ZPE) correction              0.16310672 Eh     102.35 kcal/mol
-----------------------------------------------------------------------
Total correction                          0.17146707 Eh     107.60 kcal/mol

--------
ENTHALPY
--------

The enthalpy is H = U + kB*T
                kB is Boltzmann's constant
Total free energy                 ...   -343.04531067 Eh
Thermal Enthalpy correction       ...      0.00094421 Eh       0.59 kcal/mol
-----------------------------------------------------------------------
Total Enthalpy                    ...   -343.04436646 Eh

-------
ENTROPY
-------

The entropy contributions are T*S = T*(S(el)+S(vib)+S(rot)+S(trans)
     S(el)   - electronic entropy
     S(vib)  - vibrational entropy
     S(rot)  - rotational entropy
     S(trans)- translational entropy
The entropies will be listed as mutliplied by the temperature to get
units of energy

Electronic entropy                ...      0.00000000 Eh      0.00 kcal/mol
Vibrational entropy               ...      0.00960138 Eh      6.02 kcal/mol
Rotational entropy                ...      0.01220467 Eh      7.66 kcal/mol
Translational entropy             ...      0.01891510 Eh     11.87 kcal/mol
-----------------------------------------------------------------------
Final entropy term                ...      0.04072115 Eh     25.55 kcal/mol

CAUTION: The rotational entropy is not quite correctly treated here
         because it includes a symmetry number that is not yet correctly
         implemented in ORCA!
For a nonlinear molecule the correct rotational entropy is:
    S(rot) = R*(ln(qrot/sn)+1.5)
    R    = 8.31441 J/mol/K = 1.987191683e-3 kcal/mol/K
    qrot = 275078.4869624
    sn is the rotational symmetry number. We have assumed 3 here
       if it is different for your molecule then you should correct
       the printed rotational entropy by manually evaluating the equation
       as given above

For convenience we print out the resulting values for sn=1 - 12:
 sn= 1  qrot/sn=  275078.4870 T*S(rot)=     8.31 kcal/mol T*S(tot)=    26.20 kcal/mol
 sn= 2  qrot/sn=  137539.2435 T*S(rot)=     7.90 kcal/mol T*S(tot)=    25.79 kcal/mol
 sn= 3  qrot/sn=   91692.8290 T*S(rot)=     7.66 kcal/mol T*S(tot)=    25.55 kcal/mol
 sn= 4  qrot/sn=   68769.6217 T*S(rot)=     7.49 kcal/mol T*S(tot)=    25.38 kcal/mol
 sn= 5  qrot/sn=   55015.6974 T*S(rot)=     7.36 kcal/mol T*S(tot)=    25.25 kcal/mol
 sn= 6  qrot/sn=   45846.4145 T*S(rot)=     7.25 kcal/mol T*S(tot)=    25.14 kcal/mol
 sn= 7  qrot/sn=   39296.9267 T*S(rot)=     7.16 kcal/mol T*S(tot)=    25.05 kcal/mol
 sn= 8  qrot/sn=   34384.8109 T*S(rot)=     7.08 kcal/mol T*S(tot)=    24.97 kcal/mol
 sn= 9  qrot/sn=   30564.2763 T*S(rot)=     7.01 kcal/mol T*S(tot)=    24.90 kcal/mol
 sn=10  qrot/sn=   27507.8487 T*S(rot)=     6.95 kcal/mol T*S(tot)=    24.84 kcal/mol
 sn=11  qrot/sn=   25007.1352 T*S(rot)=     6.89 kcal/mol T*S(tot)=    24.78 kcal/mol
 sn=12  qrot/sn=   22923.2072 T*S(rot)=     6.84 kcal/mol T*S(tot)=    24.73 kcal/mol

-------------------
GIBBS FREE ENTHALPY
-------------------

The Gibbs free enthalpy is G = H - T*S

Total enthalpy                    ...   -343.04436646 Eh
Total entropy correction          ...     -0.04072115 Eh    -25.55 kcal/mol
-----------------------------------------------------------------------
Final Gibbs free enthalpy         ...   -343.08508761 Eh

For completeness - the Gibbs free enthalpy minus the electronic energy
G-E(el)                           ...      0.13169013 Eh     82.64 kcal/mol

                             ****ORCA TERMINATED NORMALLY****
TOTAL RUN TIME: 0 days 0 hours 42 minutes 50 seconds 447 msec
