                         Program Version 3.0.3 - RELEASE   -
|  1> ! NORI PBE0 def2-TZVP UseSym TightOPT Freq TightSCF Grid3 FinalGrid5 XYZFile
|  2> % pal
|  3>     nprocs 8
|  4> end
|  5> %method
|  6>     SymThresh 5.0e-2
|  7> end
|  8> % geom
|  9>     MaxIter 10
| 10> end
| 11> % maxcore 2000
| 12> % output
| 13>     printlevel mini
| 14>     print[ P_Basis ] 0
| 15>     print[ P_SCFInfo ] 1
| 16>     print[ P_SCFIterInfo ] 1
| 17>     print[ P_OrbEn ] 0
| 18>     print[ P_Cartesian ] 0
| 19> end
| 20> % elprop
| 21>     Dipole false
| 22> end
| 23> *xyz 1 1
| 24>  C        2.9461046568    -0.4724019656     0.6231978487
| 25>  C        1.8673242979     0.5756677471     0.4103516077
| 26>  C        2.3628391915     1.7735699552    -0.3842709449
| 27>  C        1.2637131472     2.8089262350    -0.6369901815
| 28>  N        0.1630502016     2.2555463412    -1.5013106305
| 29>  O        3.3527224914     2.4235773452     0.3522027782
| 30>  C        4.3732279113     3.0410557678    -0.4084668557
| 31>  H        2.5597907475    -1.3084084116     1.2068561091
| 32>  H        3.7916419388    -0.0458198903     1.1627033121
| 33>  H        3.3096589467    -0.8692468206    -0.3277942827
| 34>  H        1.0170932601     0.1038978389    -0.1036372773
| 35>  H        1.4963071650     0.9384723266     1.3750671599
| 36>  H        2.7665870244     1.4294479568    -1.3525205745
| 37>  H        0.8083118804     3.1158851893     0.3050493283
| 38>  H        1.6537668880     3.6876034135    -1.1494842020
| 39>  H       -0.2606215405     1.4366263791    -1.0592920564
| 40>  H        0.5224588987     1.9606301026    -2.4118098696
| 41>  H       -0.5743192690     2.9439670757    -1.6646209111
| 42>  H        5.0711102777     3.4788871007     0.3026796661
| 43>  H        3.9876612999     3.8410961384    -1.0523748652
| 44>  H        4.9018005846     2.3058701750    -1.0248851588
| 45> *
| 46>
| 47>                          ****END OF INPUT****
 Total Charge           Charge          ....    1
 Multiplicity           Mult            ....    1
 Number of Electrons    NEL             ....   58
FINAL SINGLE POINT ENERGY      -328.414679639956
FINAL SINGLE POINT ENERGY      -328.414681135564
FINAL SINGLE POINT ENERGY      -328.414682561214

CARTESIAN COORDINATES (ANGSTROEM)
---------------------------------
  C     -2.459942    0.431519   -0.186808
  C     -1.048085    0.788786   -0.618731
  C     -0.000238   -0.142100   -0.029408
  C      1.417091    0.194917   -0.498903
  N      1.576924    0.004090   -1.983003
  O      0.002560    0.001461    1.357935
  C      0.311548   -1.169516    2.090584
  H     -3.180382    1.129432   -0.614029
  H     -2.549806    0.475840    0.898451
  H     -2.734892   -0.574294   -0.514122
  H     -1.001431    0.764243   -1.717621
  H     -0.805609    1.811841   -0.310425
  H     -0.236826   -1.184136   -0.307830
  H      1.647639    1.238901   -0.284184
  H      2.159160   -0.442050   -0.017664
  H      0.918214    0.597760   -2.492289
  H      1.389366   -0.963958   -2.253407
  H      2.521004    0.238621   -2.295572
  H      0.263712   -0.900607    3.143891
  H      1.320132   -1.542102    1.873053
  H     -0.416325   -1.961923    1.887226

FINAL SINGLE POINT ENERGY      -328.414683169822
                    ***********************HURRAY********************
 Multiplicity           Mult            ....    1
 Number of Electrons    NEL             ....   58
 Basis Dimension        Dim             ....  301
FINAL SINGLE POINT ENERGY      -328.414683760679

VIBRATIONAL FREQUENCIES
-----------------------

   0:         0.00 cm**-1
   1:         0.00 cm**-1
   2:         0.00 cm**-1
   3:         0.00 cm**-1
   4:         0.00 cm**-1
   5:         0.00 cm**-1
   6:        61.82 cm**-1
   7:        82.18 cm**-1
   8:       111.83 cm**-1
   9:       158.57 cm**-1
  10:       183.31 cm**-1
  11:       199.74 cm**-1
  12:       242.51 cm**-1
  13:       260.84 cm**-1
  14:       300.42 cm**-1
  15:       452.00 cm**-1
  16:       472.10 cm**-1
  17:       485.61 cm**-1
  18:       764.91 cm**-1
  19:       799.17 cm**-1
  20:       894.06 cm**-1
  21:       928.17 cm**-1
  22:       965.72 cm**-1
  23:       983.75 cm**-1
  24:      1020.41 cm**-1
  25:      1060.89 cm**-1
  26:      1125.41 cm**-1
  27:      1144.47 cm**-1
  28:      1161.98 cm**-1
  29:      1174.50 cm**-1
  30:      1209.25 cm**-1
  31:      1231.27 cm**-1
  32:      1303.65 cm**-1
  33:      1327.05 cm**-1
  34:      1348.83 cm**-1
  35:      1359.91 cm**-1
  36:      1396.88 cm**-1
  37:      1407.21 cm**-1
  38:      1415.22 cm**-1
  39:      1458.72 cm**-1
  40:      1473.83 cm**-1
  41:      1484.48 cm**-1
  42:      1489.56 cm**-1
  43:      1491.54 cm**-1
  44:      1496.65 cm**-1
  45:      1500.26 cm**-1
  46:      1500.52 cm**-1
  47:      1653.46 cm**-1
  48:      1663.27 cm**-1
  49:      2962.11 cm**-1
  50:      3000.84 cm**-1
  51:      3015.83 cm**-1
  52:      3063.19 cm**-1
  53:      3074.60 cm**-1
  54:      3083.60 cm**-1
  55:      3105.77 cm**-1
  56:      3140.55 cm**-1
  57:      3159.61 cm**-1
  58:      3168.69 cm**-1
  59:      3169.64 cm**-1
  60:      3420.02 cm**-1
  61:      3497.47 cm**-1
  62:      3507.79 cm**-1

IR SPECTRUM
-----------

 Mode    freq (cm**-1)   T**2         TX         TY         TZ
-------------------------------------------------------------------
   6:        61.82    3.503792  (  1.059182  -1.482518   0.429027)
   7:        82.18    3.822290  (  1.146372   1.442050   0.654685)
   8:       111.83    5.134441  (  1.994271  -1.034418   0.295474)
   9:       158.57    1.266230  (  0.923695   0.366387   0.527994)
  10:       183.31    2.079649  (  1.297742  -0.468859  -0.419151)
  11:       199.74    7.226623  (  2.686329   0.051542  -0.087191)
  12:       242.51    1.036039  (  0.967590  -0.019669  -0.315314)
  13:       260.84    1.764781  (  0.316017  -0.101972  -1.286280)
  14:       300.42    6.127044  (  2.276675   0.963555  -0.123928)
  15:       452.00   25.877444  ( -3.713926   0.379061   3.455504)
  16:       472.10    2.183803  ( -0.657143   0.481857   1.232794)
  17:       485.61    0.483646  ( -0.522244  -0.219926   0.403162)
  18:       764.91    1.439278  ( -0.314246  -0.402063   1.085759)
  19:       799.17    9.424231  (  2.797989  -1.245464   0.210489)
  20:       894.06   17.861444  ( -1.764985  -3.548703   1.467302)
  21:       928.17   31.759451  ( -4.462382   1.816315   2.923628)
  22:       965.72    9.744178  (  0.417177   2.371666   1.986288)
  23:       983.75    7.521688  (  2.330927   0.962951   1.077585)
  24:      1020.41    3.163171  ( -1.583961  -0.256261   0.767182)
  25:      1060.89   13.107245  (  1.419916   2.935603  -1.572680)
  26:      1125.41   35.037016  (  3.521342  -3.473754   3.251184)
  27:      1144.47   38.704585  ( -1.800269   3.150817  -5.053313)
  28:      1161.98   19.300791  ( -0.581069   2.985931  -3.169758)
  29:      1174.50    1.736109  ( -0.719947  -1.073575  -0.255386)
  30:      1209.25   62.101732  (  0.032010  -3.378793   7.119302)
  31:      1231.27   38.872224  ( -0.335217  -1.614762   6.012686)
  32:      1303.65    2.289243  (  0.457287   1.133823  -0.891390)
  33:      1327.05    0.694972  ( -0.583139  -0.371431  -0.465790)
  34:      1348.83    7.409758  ( -1.679239   1.916479  -0.957614)
  35:      1359.91   15.102391  (  1.437239   1.959282  -3.032812)
  36:      1396.88    4.350218  (  1.792578  -0.939188   0.504784)
  37:      1407.21    5.195750  ( -1.040730  -1.833734   0.866055)
  38:      1415.22    5.418377  ( -1.654271   1.215511  -1.097404)
  39:      1458.72    2.732157  ( -0.783143  -0.847280   1.183622)
  40:      1473.83    3.822504  (  0.564852   0.938732  -1.619329)
  41:      1484.48    3.929344  ( -1.924695  -0.471818   0.047768)
  42:      1489.56    2.993673  ( -0.653085  -1.025697  -1.230893)
  43:      1491.54   25.841827  ( -4.678507  -1.662008  -1.091387)
  44:      1496.65   43.090135  ( -1.691600   2.390574   5.874843)
  45:      1500.26   23.846080  (  2.122326  -2.591672  -3.553175)
  46:      1500.52  128.890100  (  2.378428   0.557346 -11.087044)
  47:      1653.46   48.127589  ( -0.351165   6.787427  -1.391080)
  48:      1663.27   41.554369  (  6.402545   0.542880  -0.516785)
  49:      2962.11   21.426803  ( -1.124715  -3.662033  -2.598333)
  50:      3000.84   62.213115  (  3.308713   1.233127  -7.053008)
  51:      3015.83   38.981750  ( -3.542874   5.067272  -0.867492)
  52:      3063.19    5.836514  (  2.145480   0.981003  -0.520634)
  53:      3074.60   14.412720  ( -1.681385  -2.705521  -2.065386)
  54:      3083.60   30.018883  ( -5.190373  -1.594570   0.732294)
  55:      3105.77    1.696943  (  1.288134   0.111157   0.159053)
  56:      3140.55   12.091857  ( -0.764220   3.217575   1.074725)
  57:      3159.61    5.703334  ( -0.616408   0.365012  -2.278188)
  58:      3168.69    3.679135  ( -0.315404  -0.353165  -1.858744)
  59:      3169.64    1.248745  ( -0.581446   0.695743   0.653152)
  60:      3420.02   32.648265  ( -0.597284   0.157426   5.680382)
  61:      3497.47  100.509005  (  6.118948  -7.940715   0.111870)
  62:      3507.79  106.826960  ( -9.126266  -4.815093   0.594236)

--------------------------
THERMOCHEMISTRY AT 298.15K
--------------------------

Temperature         ... 298.15 K
Pressure            ... 1.00 atm
Total Mass          ... 104.17 AMU

Throughout the following assumptions are being made:
  (1) The electronic state is orbitally nondegenerate
  (2) There are no thermally accessible electronically excited states
  (3) Hindered rotations indicated by low frequency modes) are not
      treated as such but are treated as vibrations and this may
      case some error
  (4) All equations used are the standard statistical mechanics
      equations for an ideal gas
  (5) All vibrations are strinctly harmonic

------------
INNER ENERGY
------------

The inner energy is: U= E(el) + E(ZPE) + E(vib) + E(rot) + E(trans)
    E(el)   - is the total energy from the electronic structure calculation
              = E(kin-el) + E(nuc-el) + E(el-el) + E(nuc-nuc)
    E(ZPE)  - the the zero temperature vibrational energy from the frequency calculation
    E(vib)  - the the finite temperature correction to E(ZPE) due to population
              of excietd vibrational states
    E(rot)  - is the rotational thermal energy
    E(trans)- is the translational thermal energy

Summary of contributions to the inner energy U:
Electronic energy                ...   -328.41468376 Eh
Zero point energy                ...      0.19732491 Eh     123.82 kcal/mol
Thermal vibrational correction   ...      0.00683584 Eh       4.29 kcal/mol
Thermal rotational correction    ...      0.00141627 Eh       0.89 kcal/mol
Thermal translational correction ...      0.00141627 Eh       0.89 kcal/mol
-----------------------------------------------------------------------
Total thermal energy                   -328.20769047 Eh

Summary of corrections to the electronic energy:
(perhaps to be used in another calculation)
Total thermal correction                  0.00966838 Eh       6.07 kcal/mol
Non-thermal (ZPE) correction              0.19732491 Eh     123.82 kcal/mol
-----------------------------------------------------------------------
Total correction                          0.20699330 Eh     129.89 kcal/mol

--------
ENTHALPY
--------

The enthalpy is H = U + kB*T
                kB is Boltzmann's constant
Total free energy                 ...   -328.20769047 Eh
Thermal Enthalpy correction       ...      0.00094421 Eh       0.59 kcal/mol
-----------------------------------------------------------------------
Total Enthalpy                    ...   -328.20674626 Eh

-------
ENTROPY
-------

The entropy contributions are T*S = T*(S(el)+S(vib)+S(rot)+S(trans)
     S(el)   - electronic entropy
     S(vib)  - vibrational entropy
     S(rot)  - rotational entropy
     S(trans)- translational entropy
The entropies will be listed as mutliplied by the temperature to get
units of energy

Electronic entropy                ...      0.00000000 Eh      0.00 kcal/mol
Vibrational entropy               ...      0.01290454 Eh      8.10 kcal/mol
Rotational entropy                ...      0.01238152 Eh      7.77 kcal/mol
Translational entropy             ...      0.01892914 Eh     11.88 kcal/mol
-----------------------------------------------------------------------
Final entropy term                ...      0.04421521 Eh     27.75 kcal/mol

CAUTION: The rotational entropy is not quite correctly treated here
         because it includes a symmetry number that is not yet correctly
         implemented in ORCA!
For a nonlinear molecule the correct rotational entropy is:
    S(rot) = R*(ln(qrot/sn)+1.5)
    R    = 8.31441 J/mol/K = 1.987191683e-3 kcal/mol/K
    qrot = 331742.9795244
    sn is the rotational symmetry number. We have assumed 3 here
       if it is different for your molecule then you should correct
       the printed rotational entropy by manually evaluating the equation
       as given above

For convenience we print out the resulting values for sn=1 - 12:
 sn= 1  qrot/sn=  331742.9795 T*S(rot)=     8.42 kcal/mol T*S(tot)=    28.40 kcal/mol
 sn= 2  qrot/sn=  165871.4898 T*S(rot)=     8.01 kcal/mol T*S(tot)=    27.99 kcal/mol
 sn= 3  qrot/sn=  110580.9932 T*S(rot)=     7.77 kcal/mol T*S(tot)=    27.75 kcal/mol
 sn= 4  qrot/sn=   82935.7449 T*S(rot)=     7.60 kcal/mol T*S(tot)=    27.57 kcal/mol
 sn= 5  qrot/sn=   66348.5959 T*S(rot)=     7.47 kcal/mol T*S(tot)=    27.44 kcal/mol
 sn= 6  qrot/sn=   55290.4966 T*S(rot)=     7.36 kcal/mol T*S(tot)=    27.33 kcal/mol
 sn= 7  qrot/sn=   47391.8542 T*S(rot)=     7.27 kcal/mol T*S(tot)=    27.24 kcal/mol
 sn= 8  qrot/sn=   41467.8724 T*S(rot)=     7.19 kcal/mol T*S(tot)=    27.16 kcal/mol
 sn= 9  qrot/sn=   36860.3311 T*S(rot)=     7.12 kcal/mol T*S(tot)=    27.09 kcal/mol
 sn=10  qrot/sn=   33174.2980 T*S(rot)=     7.06 kcal/mol T*S(tot)=    27.03 kcal/mol
 sn=11  qrot/sn=   30158.4527 T*S(rot)=     7.00 kcal/mol T*S(tot)=    26.98 kcal/mol
 sn=12  qrot/sn=   27645.2483 T*S(rot)=     6.95 kcal/mol T*S(tot)=    26.92 kcal/mol

-------------------
GIBBS FREE ENTHALPY
-------------------

The Gibbs free enthalpy is G = H - T*S

Total enthalpy                    ...   -328.20674626 Eh
Total entropy correction          ...     -0.04421521 Eh    -27.75 kcal/mol
-----------------------------------------------------------------------
Final Gibbs free enthalpy         ...   -328.25096146 Eh

For completeness - the Gibbs free enthalpy minus the electronic energy
G-E(el)                           ...      0.16372230 Eh    102.74 kcal/mol

                             ****ORCA TERMINATED NORMALLY****
TOTAL RUN TIME: 0 days 0 hours 52 minutes 29 seconds 427 msec
