                         Program Version 3.0.3 - RELEASE   -
|  1> ! NORI PBE0 def2-TZVP UseSym TightOPT Freq TightSCF Grid3 FinalGrid5 XYZFile
|  2> % pal
|  3>     nprocs 8
|  4> end
|  5> %method
|  6>     SymThresh 5.0e-2
|  7> end
|  8> % geom
|  9>     MaxIter 10
| 10> end
| 11> % maxcore 2000
| 12> % output
| 13>     printlevel mini
| 14>     print[ P_Basis ] 0
| 15>     print[ P_SCFInfo ] 1
| 16>     print[ P_SCFIterInfo ] 1
| 17>     print[ P_OrbEn ] 0
| 18>     print[ P_Cartesian ] 0
| 19> end
| 20> % elprop
| 21>     Dipole false
| 22> end
| 23> *xyz 1 1
| 24>  C        0.5552335265     0.6222465799     0.7121093700
| 25>  C        1.9741495103     0.2227011268     0.8762582461
| 26>  C        2.9715976744     1.0397310759     1.2055513640
| 27>  C        4.3816604474     0.5835232619     1.3395709562
| 28>  O        5.2785378054     1.2463754320     0.4509488312
| 29>  C        4.9462139385     0.9244746615     2.7108453133
| 30>  N        6.4368902669     0.7541089192     2.6506376707
| 31>  H        0.2042802127     0.3761612515    -0.2943827503
| 32>  H        0.4065045839     1.6885953761     0.8840886731
| 33>  H       -0.0813853098     0.0633634774     1.4038992096
| 34>  H        2.2013652742    -0.8306434442     0.7102447099
| 35>  H        2.7898240985     2.1007986250     1.3684245618
| 36>  H        4.4303467425    -0.5035147447     1.1801981478
| 37>  H        4.9240615529     1.2338326775    -0.4436373453
| 38>  H        4.5429763618     0.2940144441     3.5008485097
| 39>  H        4.7633334201     1.9734352459     2.9442405022
| 40>  H        6.7107478781    -0.2288067946     2.6755561246
| 41>  H        6.9225118541     1.2409933294     3.4035043832
| 42>  H        6.7222101616     1.1386394993     1.7359535221
| 43> *
| 44>
| 45>                          ****END OF INPUT****
 Total Charge           Charge          ....    1
 Multiplicity           Mult            ....    1
 Number of Electrons    NEL             ....   56
FINAL SINGLE POINT ENERGY      -327.218207443558
FINAL SINGLE POINT ENERGY      -327.218208505471

CARTESIAN COORDINATES (ANGSTROEM)
---------------------------------
  C     -2.544477   -0.060819   -2.277971
  C     -1.501611    0.448943   -1.354731
  C     -0.769328   -0.297247   -0.531738
  C      0.254706    0.273575    0.385047
  O      0.001048   -0.000925    1.760970
  C      1.617828   -0.362863    0.155553
  N      2.496600    0.000627    1.318063
  H     -3.507004    0.412938   -2.064402
  H     -2.663031   -1.142200   -2.207412
  H     -2.298173    0.198008   -3.312120
  H     -1.333181    1.525744   -1.364936
  H     -0.913304   -1.375054   -0.482881
  H      0.323016    1.359184    0.225194
  H     -0.912390    0.212215    1.975748
  H      2.086963   -0.030587   -0.768431
  H      1.533141   -1.449865    0.158483
  H      2.826966    0.964889    1.260338
  H      3.307475   -0.610864    1.409327
  H      1.895257   -0.078116    2.153691

FINAL SINGLE POINT ENERGY      -327.218209118650
                    ***********************HURRAY********************
 Multiplicity           Mult            ....    1
 Number of Electrons    NEL             ....   56
 Basis Dimension        Dim             ....  289
FINAL SINGLE POINT ENERGY      -327.218209319803

VIBRATIONAL FREQUENCIES
-----------------------

   0:         0.00 cm**-1
   1:         0.00 cm**-1
   2:         0.00 cm**-1
   3:         0.00 cm**-1
   4:         0.00 cm**-1
   5:         0.00 cm**-1
   6:        78.45 cm**-1
   7:       109.66 cm**-1
   8:       158.43 cm**-1
   9:       218.03 cm**-1
  10:       222.38 cm**-1
  11:       231.42 cm**-1
  12:       311.53 cm**-1
  13:       315.85 cm**-1
  14:       369.27 cm**-1
  15:       433.07 cm**-1
  16:       503.56 cm**-1
  17:       576.05 cm**-1
  18:       815.45 cm**-1
  19:       844.39 cm**-1
  20:       920.08 cm**-1
  21:       939.57 cm**-1
  22:       962.93 cm**-1
  23:      1001.13 cm**-1
  24:      1022.34 cm**-1
  25:      1072.05 cm**-1
  26:      1086.94 cm**-1
  27:      1111.75 cm**-1
  28:      1143.65 cm**-1
  29:      1191.33 cm**-1
  30:      1264.06 cm**-1
  31:      1282.30 cm**-1
  32:      1326.41 cm**-1
  33:      1340.69 cm**-1
  34:      1356.55 cm**-1
  35:      1381.28 cm**-1
  36:      1407.26 cm**-1
  37:      1431.07 cm**-1
  38:      1464.65 cm**-1
  39:      1476.30 cm**-1
  40:      1479.74 cm**-1
  41:      1484.64 cm**-1
  42:      1639.94 cm**-1
  43:      1668.37 cm**-1
  44:      1742.22 cm**-1
  45:      3014.11 cm**-1
  46:      3050.58 cm**-1
  47:      3109.39 cm**-1
  48:      3113.23 cm**-1
  49:      3134.50 cm**-1
  50:      3153.80 cm**-1
  51:      3157.88 cm**-1
  52:      3184.41 cm**-1
  53:      3314.94 cm**-1
  54:      3478.31 cm**-1
  55:      3532.44 cm**-1
  56:      3854.48 cm**-1

IR SPECTRUM
-----------

 Mode    freq (cm**-1)   T**2         TX         TY         TZ
-------------------------------------------------------------------
   6:        78.45    4.145228  ( -0.901692  -0.866059   1.606898)
   7:       109.66   10.538723  (  0.735750   3.113626  -0.550204)
   8:       158.43    1.820251  ( -0.436501   0.455683   1.192506)
   9:       218.03    4.145679  (  0.164592   1.378548   1.489360)
  10:       222.38   17.887668  ( -0.152682   3.932599   1.548879)
  11:       231.42    8.991325  ( -2.948366   0.161111   0.522024)
  12:       311.53   36.196105  ( -1.793380   5.141866   2.557560)
  13:       315.85   90.589620  (  5.333674   7.306307   2.959632)
  14:       369.27    6.417128  (  2.072743  -1.135230   0.912204)
  15:       433.07   29.782007  (  5.427093   0.461998  -0.339445)
  16:       503.56    1.910926  (  0.019340  -1.027940  -0.924063)
  17:       576.05    9.666936  (  0.080831   0.918706  -2.969239)
  18:       815.45    0.255624  ( -0.428544  -0.028643   0.266747)
  19:       844.39    9.468666  (  2.587029   1.100656   1.250801)
  20:       920.08   31.116544  (  5.206145  -1.974936  -0.335004)
  21:       939.57   10.836436  (  2.235043  -0.129815   2.413331)
  22:       962.93   17.617433  ( -2.958165  -1.984177   2.220300)
  23:      1001.13   68.323686  ( -4.722755   0.192834   6.781009)
  24:      1022.34  112.374683  ( -3.433337  -1.070505   9.972006)
  25:      1072.05    1.024891  (  0.595878  -0.073640  -0.815106)
  26:      1086.94    6.127407  ( -0.613749   2.205710  -0.941044)
  27:      1111.75   16.567462  ( -2.649892   2.104894  -2.261627)
  28:      1143.65   28.785121  ( -3.129284   1.203890  -4.188478)
  29:      1191.33   21.756799  (  2.723681  -0.886428   3.681387)
  30:      1264.06   44.936298  ( -1.487704   0.672194  -6.501630)
  31:      1282.30    2.679657  (  1.014919  -0.231077   1.263408)
  32:      1326.41    4.948747  ( -0.271457  -1.872528   1.169914)
  33:      1340.69    9.435497  (  2.034911   0.301298  -2.281196)
  34:      1356.55    2.363266  (  1.410250  -0.560498  -0.245565)
  35:      1381.28    8.658743  (  0.538792  -0.470249   2.854350)
  36:      1407.26    6.003760  (  1.800883   0.771228   1.471661)
  37:      1431.07    2.744432  ( -0.001299   1.388049  -0.904295)
  38:      1464.65   11.617862  ( -2.191402   0.370187   2.584295)
  39:      1476.30   44.170213  (  3.190644  -3.972979   4.266784)
  40:      1479.74  187.071907  ( -8.340895  -2.338777 -10.584493)
  41:      1484.64   40.199392  (  5.684154  -1.430293   2.417446)
  42:      1639.94   36.942860  (  2.029920   5.094872  -2.620031)
  43:      1668.37   35.506775  ( -4.583190   3.362076   1.788180)
  44:      1742.22   46.305607  ( -4.807867   0.196784  -4.811580)
  45:      3014.11   20.559264  (  1.629975   4.049806  -1.225366)
  46:      3050.58    1.640064  ( -0.851987  -0.501342  -0.814149)
  47:      3109.39    1.798808  (  0.992700  -0.107600  -0.895421)
  48:      3113.23    0.535637  (  0.221693  -0.633126  -0.292646)
  49:      3134.50    1.756154  (  0.754743   0.939362   0.551467)
  50:      3153.80    4.297462  ( -0.644845  -1.946711  -0.303242)
  51:      3157.88   12.224709  (  1.098403   3.283187   0.488777)
  52:      3184.41    0.168629  (  0.187427   0.286250  -0.227070)
  53:      3314.94  118.940142  ( -7.638701  -0.146440   7.782606)
  54:      3478.31  113.494107  ( 10.226017   2.907131  -0.686497)
  55:      3532.44   99.625936  (  4.455381  -8.901864   0.729611)
  56:      3854.48   99.667755  ( -8.456621   1.311294   5.141384)

--------------------------
THERMOCHEMISTRY AT 298.15K
--------------------------

Temperature         ... 298.15 K
Pressure            ... 1.00 atm
Total Mass          ... 102.16 AMU

Throughout the following assumptions are being made:
  (1) The electronic state is orbitally nondegenerate
  (2) There are no thermally accessible electronically excited states
  (3) Hindered rotations indicated by low frequency modes) are not
      treated as such but are treated as vibrations and this may
      case some error
  (4) All equations used are the standard statistical mechanics
      equations for an ideal gas
  (5) All vibrations are strinctly harmonic

------------
INNER ENERGY
------------

The inner energy is: U= E(el) + E(ZPE) + E(vib) + E(rot) + E(trans)
    E(el)   - is the total energy from the electronic structure calculation
              = E(kin-el) + E(nuc-el) + E(el-el) + E(nuc-nuc)
    E(ZPE)  - the the zero temperature vibrational energy from the frequency calculation
    E(vib)  - the the finite temperature correction to E(ZPE) due to population
              of excietd vibrational states
    E(rot)  - is the rotational thermal energy
    E(trans)- is the translational thermal energy

Summary of contributions to the inner energy U:
Electronic energy                ...   -327.21820932 Eh
Zero point energy                ...      0.17424079 Eh     109.34 kcal/mol
Thermal vibrational correction   ...      0.00608563 Eh       3.82 kcal/mol
Thermal rotational correction    ...      0.00141627 Eh       0.89 kcal/mol
Thermal translational correction ...      0.00141627 Eh       0.89 kcal/mol
-----------------------------------------------------------------------
Total thermal energy                   -327.03505035 Eh

Summary of corrections to the electronic energy:
(perhaps to be used in another calculation)
Total thermal correction                  0.00891817 Eh       5.60 kcal/mol
Non-thermal (ZPE) correction              0.17424079 Eh     109.34 kcal/mol
-----------------------------------------------------------------------
Total correction                          0.18315897 Eh     114.93 kcal/mol

--------
ENTHALPY
--------

The enthalpy is H = U + kB*T
                kB is Boltzmann's constant
Total free energy                 ...   -327.03505035 Eh
Thermal Enthalpy correction       ...      0.00094421 Eh       0.59 kcal/mol
-----------------------------------------------------------------------
Total Enthalpy                    ...   -327.03410614 Eh

-------
ENTROPY
-------

The entropy contributions are T*S = T*(S(el)+S(vib)+S(rot)+S(trans)
     S(el)   - electronic entropy
     S(vib)  - vibrational entropy
     S(rot)  - rotational entropy
     S(trans)- translational entropy
The entropies will be listed as mutliplied by the temperature to get
units of energy

Electronic entropy                ...      0.00000000 Eh      0.00 kcal/mol
Vibrational entropy               ...      0.01081457 Eh      6.79 kcal/mol
Rotational entropy                ...      0.01230936 Eh      7.72 kcal/mol
Translational entropy             ...      0.01890147 Eh     11.86 kcal/mol
-----------------------------------------------------------------------
Final entropy term                ...      0.04202540 Eh     26.37 kcal/mol

CAUTION: The rotational entropy is not quite correctly treated here
         because it includes a symmetry number that is not yet correctly
         implemented in ORCA!
For a nonlinear molecule the correct rotational entropy is:
    S(rot) = R*(ln(qrot/sn)+1.5)
    R    = 8.31441 J/mol/K = 1.987191683e-3 kcal/mol/K
    qrot = 307334.0114446
    sn is the rotational symmetry number. We have assumed 3 here
       if it is different for your molecule then you should correct
       the printed rotational entropy by manually evaluating the equation
       as given above

For convenience we print out the resulting values for sn=1 - 12:
 sn= 1  qrot/sn=  307334.0114 T*S(rot)=     8.38 kcal/mol T*S(tot)=    27.02 kcal/mol
 sn= 2  qrot/sn=  153667.0057 T*S(rot)=     7.96 kcal/mol T*S(tot)=    26.61 kcal/mol
 sn= 3  qrot/sn=  102444.6705 T*S(rot)=     7.72 kcal/mol T*S(tot)=    26.37 kcal/mol
 sn= 4  qrot/sn=   76833.5029 T*S(rot)=     7.55 kcal/mol T*S(tot)=    26.20 kcal/mol
 sn= 5  qrot/sn=   61466.8023 T*S(rot)=     7.42 kcal/mol T*S(tot)=    26.07 kcal/mol
 sn= 6  qrot/sn=   51222.3352 T*S(rot)=     7.31 kcal/mol T*S(tot)=    25.96 kcal/mol
 sn= 7  qrot/sn=   43904.8588 T*S(rot)=     7.22 kcal/mol T*S(tot)=    25.87 kcal/mol
 sn= 8  qrot/sn=   38416.7514 T*S(rot)=     7.14 kcal/mol T*S(tot)=    25.79 kcal/mol
 sn= 9  qrot/sn=   34148.2235 T*S(rot)=     7.07 kcal/mol T*S(tot)=    25.72 kcal/mol
 sn=10  qrot/sn=   30733.4011 T*S(rot)=     7.01 kcal/mol T*S(tot)=    25.66 kcal/mol
 sn=11  qrot/sn=   27939.4556 T*S(rot)=     6.95 kcal/mol T*S(tot)=    25.60 kcal/mol
 sn=12  qrot/sn=   25611.1676 T*S(rot)=     6.90 kcal/mol T*S(tot)=    25.55 kcal/mol

-------------------
GIBBS FREE ENTHALPY
-------------------

The Gibbs free enthalpy is G = H - T*S

Total enthalpy                    ...   -327.03410614 Eh
Total entropy correction          ...     -0.04202540 Eh    -26.37 kcal/mol
-----------------------------------------------------------------------
Final Gibbs free enthalpy         ...   -327.07613154 Eh

For completeness - the Gibbs free enthalpy minus the electronic energy
G-E(el)                           ...      0.14207777 Eh     89.15 kcal/mol

                             ****ORCA TERMINATED NORMALLY****
TOTAL RUN TIME: 0 days 0 hours 39 minutes 48 seconds 352 msec
