                         Program Version 3.0.3 - RELEASE   -
|  1> ! NORI PBE0 def2-TZVP UseSym TightOPT Freq TightSCF Grid3 FinalGrid5 XYZFile
|  2> % pal
|  3>     nprocs 8
|  4> end
|  5> %method
|  6>     SymThresh 5.0e-2
|  7> end
|  8> % geom
|  9>     MaxIter 10
| 10> end
| 11> % maxcore 2000
| 12> % output
| 13>     printlevel mini
| 14>     print[ P_Basis ] 0
| 15>     print[ P_SCFInfo ] 1
| 16>     print[ P_SCFIterInfo ] 1
| 17>     print[ P_OrbEn ] 0
| 18>     print[ P_Cartesian ] 0
| 19> end
| 20> % elprop
| 21>     Dipole false
| 22> end
| 23> *xyz 1 1
| 24>  C        4.1605979652     2.0778817721     0.3589705666
| 25>  C        3.4670446057     0.7597959248     0.5133322713
| 26>  C        2.6950643628     0.4525748690     1.5508746396
| 27>  C        3.6321395294    -0.2561366795    -0.5855360623
| 28>  O        3.2184729668     0.2151353734    -1.8634558188
| 29>  C        5.0875741961    -0.6345413299    -0.8139102434
| 30>  N        5.1510390999    -1.4305528822    -2.0849656556
| 31>  H        5.2449506318     1.9868648763     0.4829673075
| 32>  H        3.8100203547     2.7849051398     1.1098535871
| 33>  H        3.9818348510     2.5128994991    -0.6280355441
| 34>  H        2.1983725419    -0.5084634639     1.6303326068
| 35>  H        2.5325730860     1.1538935883     2.3610851131
| 36>  H        3.0635004297    -1.1576043501    -0.3174344148
| 37>  H        2.3054553484     0.5175279812    -1.8245217202
| 38>  H        5.6972259557     0.2536686498    -0.9763784084
| 39>  H        5.4996117220    -1.2246914944     0.0026575930
| 40>  H        4.5097915814    -0.9554626508    -2.7401435868
| 41>  H        4.8153659794    -2.3860403169    -1.9548849895
| 42>  H        6.0897947919    -1.4724545060    -2.4811572410
| 43> *
| 44>
| 45>                          ****END OF INPUT****
 Total Charge           Charge          ....    1
 Multiplicity           Mult            ....    1
 Number of Electrons    NEL             ....   56
FINAL SINGLE POINT ENERGY      -327.213697948194
FINAL SINGLE POINT ENERGY      -327.213699060504
FINAL SINGLE POINT ENERGY      -327.213699825943

CARTESIAN COORDINATES (ANGSTROEM)
---------------------------------
  C     -1.475005   -1.343183   -0.770576
  C     -1.110243    0.103648   -0.647778
  C     -1.803765    1.087230   -1.212046
  C      0.089761    0.458140    0.189492
  O     -0.002663    0.004146    1.535648
  C      1.364218   -0.205976   -0.309924
  N      2.418605   -0.002014    0.738040
  H     -0.769083   -1.891528   -1.403213
  H     -2.460394   -1.452660   -1.221246
  H     -1.488577   -1.837214    0.204254
  H     -1.519290    2.128020   -1.097638
  H     -2.683719    0.885670   -1.811684
  H      0.220457    1.549078    0.170030
  H     -0.803498    0.346803    1.945463
  H      1.227195   -1.282655   -0.402662
  H      1.709684    0.208484   -1.255058
  H      1.942058   -0.149356    1.641926
  H      2.786512    0.950322    0.729693
  H      3.201838   -0.648401    0.644522

FINAL SINGLE POINT ENERGY      -327.213700147270
                    ***********************HURRAY********************
 Multiplicity           Mult            ....    1
 Number of Electrons    NEL             ....   56
 Basis Dimension        Dim             ....  289
FINAL SINGLE POINT ENERGY      -327.213700286818

VIBRATIONAL FREQUENCIES
-----------------------

   0:         0.00 cm**-1
   1:         0.00 cm**-1
   2:         0.00 cm**-1
   3:         0.00 cm**-1
   4:         0.00 cm**-1
   5:         0.00 cm**-1
   6:        63.96 cm**-1
   7:       118.57 cm**-1
   8:       168.12 cm**-1
   9:       192.29 cm**-1
  10:       231.06 cm**-1
  11:       274.42 cm**-1
  12:       334.16 cm**-1
  13:       357.90 cm**-1
  14:       373.20 cm**-1
  15:       513.83 cm**-1
  16:       535.95 cm**-1
  17:       579.00 cm**-1
  18:       745.95 cm**-1
  19:       814.33 cm**-1
  20:       875.16 cm**-1
  21:       931.11 cm**-1
  22:       959.73 cm**-1
  23:       987.73 cm**-1
  24:      1000.69 cm**-1
  25:      1030.44 cm**-1
  26:      1035.62 cm**-1
  27:      1067.74 cm**-1
  28:      1114.33 cm**-1
  29:      1140.07 cm**-1
  30:      1267.01 cm**-1
  31:      1316.03 cm**-1
  32:      1335.55 cm**-1
  33:      1346.66 cm**-1
  34:      1361.98 cm**-1
  35:      1408.40 cm**-1
  36:      1425.36 cm**-1
  37:      1456.88 cm**-1
  38:      1473.84 cm**-1
  39:      1480.34 cm**-1
  40:      1487.48 cm**-1
  41:      1491.03 cm**-1
  42:      1640.33 cm**-1
  43:      1669.60 cm**-1
  44:      1730.25 cm**-1
  45:      3018.60 cm**-1
  46:      3045.99 cm**-1
  47:      3107.23 cm**-1
  48:      3119.39 cm**-1
  49:      3157.96 cm**-1
  50:      3160.18 cm**-1
  51:      3187.21 cm**-1
  52:      3249.84 cm**-1
  53:      3316.45 cm**-1
  54:      3477.24 cm**-1
  55:      3530.66 cm**-1
  56:      3849.52 cm**-1

IR SPECTRUM
-----------

 Mode    freq (cm**-1)   T**2         TX         TY         TZ
-------------------------------------------------------------------
   6:        63.96    2.064060  (  0.354660   1.363700   0.280355)
   7:       118.57    9.288650  (  1.426551   2.538021  -0.901140)
   8:       168.12    1.367083  ( -0.612746  -0.267306   0.959256)
   9:       192.29    5.515855  ( -1.045951   0.669183   1.993498)
  10:       231.06    7.162983  (  1.206778  -2.100618  -1.137574)
  11:       274.42    4.232751  ( -1.904027  -0.691934  -0.358689)
  12:       334.16   30.381626  ( -4.900626   2.112731   1.379077)
  13:       357.90  126.421249  ( -6.446814  -8.202749  -4.192225)
  14:       373.20    4.663911  (  0.870199   0.830810   1.793438)
  15:       513.83    4.196092  ( -1.086255   1.423257  -0.995230)
  16:       535.95   21.563206  ( -3.110752  -0.016841   3.447629)
  17:       579.00    5.607948  ( -2.306372  -0.165988  -0.510926)
  18:       745.95    1.089723  (  0.823804  -0.161757   0.620407)
  19:       814.33    7.330664  (  2.171680  -0.501531   1.537185)
  20:       875.16    8.866431  ( -1.790242  -2.377795  -0.086926)
  21:       931.11   20.359329  ( -3.821340   1.173286   2.092865)
  22:       959.73   18.051317  ( -3.996278  -0.632604   1.296493)
  23:       987.73   40.275535  (  3.316339  -0.225526  -5.406160)
  24:      1000.69    8.578907  ( -0.053448   0.158788   2.924181)
  25:      1030.44   85.094904  ( -3.523056  -1.485484   8.395017)
  26:      1035.62   29.927035  ( -0.049940   1.475534  -5.267574)
  27:      1067.74    1.391067  (  0.772436   0.085085   0.887226)
  28:      1114.33    8.561992  ( -1.696178   1.941503  -1.384030)
  29:      1140.07   49.688641  (  4.536913  -2.897836   4.550561)
  30:      1267.01   32.063842  (  1.445462  -1.207979   5.339969)
  31:      1316.03    4.872722  (  0.852908  -1.419497   1.459554)
  32:      1335.55    6.331557  ( -2.147561  -0.930782   0.923680)
  33:      1346.66   17.887622  ( -0.469825  -2.084010   3.650176)
  34:      1361.98    1.998147  ( -0.598502   0.997374   0.803235)
  35:      1408.40    7.478332  ( -1.017486  -2.439390  -0.701735)
  36:      1425.36    4.357616  (  0.141617   2.076677   0.158022)
  37:      1456.88    4.715380  ( -0.464023   1.493992  -1.506004)
  38:      1473.84   20.473563  ( -3.667319   1.077571   2.421399)
  39:      1480.34  198.126605  ( 10.410825   0.310209   9.468109)
  40:      1487.48   41.874054  (  4.990487  -2.374573   3.366081)
  41:      1491.03    1.172819  (  0.479415  -0.711815  -0.660530)
  42:      1640.33   35.450108  (  2.301649   5.058413  -2.136581)
  43:      1669.60   36.304415  (  4.164489  -3.343998  -2.789108)
  44:      1730.25    5.256104  (  0.014874   2.292512   0.016464)
  45:      3018.60   22.396533  (  1.868109   4.282959  -0.750310)
  46:      3045.99    8.156198  (  1.459645  -2.423790  -0.388426)
  47:      3107.23    5.408281  (  1.549692   0.241822  -1.717049)
  48:      3119.39    0.821655  ( -0.549465   0.584495   0.422028)
  49:      3157.96    2.872417  (  1.439072   0.124279   0.886591)
  50:      3160.18    0.819378  ( -0.005348   0.898571  -0.109177)
  51:      3187.21    0.074079  ( -0.186007   0.180290  -0.083521)
  52:      3249.84    1.732582  ( -0.568857  -1.156285  -0.268307)
  53:      3316.45  113.381027  ( -6.267623  -0.711461   8.578564)
  54:      3477.24  113.534878  (-10.121204  -2.668291   1.994075)
  55:      3530.66   99.495970  (  4.096521  -9.057711  -0.819969)
  56:      3849.52  102.218641  (  7.007407  -2.176647  -6.955365)

--------------------------
THERMOCHEMISTRY AT 298.15K
--------------------------

Temperature         ... 298.15 K
Pressure            ... 1.00 atm
Total Mass          ... 102.16 AMU

Throughout the following assumptions are being made:
  (1) The electronic state is orbitally nondegenerate
  (2) There are no thermally accessible electronically excited states
  (3) Hindered rotations indicated by low frequency modes) are not
      treated as such but are treated as vibrations and this may
      case some error
  (4) All equations used are the standard statistical mechanics
      equations for an ideal gas
  (5) All vibrations are strinctly harmonic

------------
INNER ENERGY
------------

The inner energy is: U= E(el) + E(ZPE) + E(vib) + E(rot) + E(trans)
    E(el)   - is the total energy from the electronic structure calculation
              = E(kin-el) + E(nuc-el) + E(el-el) + E(nuc-nuc)
    E(ZPE)  - the the zero temperature vibrational energy from the frequency calculation
    E(vib)  - the the finite temperature correction to E(ZPE) due to population
              of excietd vibrational states
    E(rot)  - is the rotational thermal energy
    E(trans)- is the translational thermal energy

Summary of contributions to the inner energy U:
Electronic energy                ...   -327.21370029 Eh
Zero point energy                ...      0.17440822 Eh     109.44 kcal/mol
Thermal vibrational correction   ...      0.00594330 Eh       3.73 kcal/mol
Thermal rotational correction    ...      0.00141627 Eh       0.89 kcal/mol
Thermal translational correction ...      0.00141627 Eh       0.89 kcal/mol
-----------------------------------------------------------------------
Total thermal energy                   -327.03051622 Eh

Summary of corrections to the electronic energy:
(perhaps to be used in another calculation)
Total thermal correction                  0.00877584 Eh       5.51 kcal/mol
Non-thermal (ZPE) correction              0.17440822 Eh     109.44 kcal/mol
-----------------------------------------------------------------------
Total correction                          0.18318407 Eh     114.95 kcal/mol

--------
ENTHALPY
--------

The enthalpy is H = U + kB*T
                kB is Boltzmann's constant
Total free energy                 ...   -327.03051622 Eh
Thermal Enthalpy correction       ...      0.00094421 Eh       0.59 kcal/mol
-----------------------------------------------------------------------
Total Enthalpy                    ...   -327.02957201 Eh

-------
ENTROPY
-------

The entropy contributions are T*S = T*(S(el)+S(vib)+S(rot)+S(trans)
     S(el)   - electronic entropy
     S(vib)  - vibrational entropy
     S(rot)  - rotational entropy
     S(trans)- translational entropy
The entropies will be listed as mutliplied by the temperature to get
units of energy

Electronic entropy                ...      0.00000000 Eh      0.00 kcal/mol
Vibrational entropy               ...      0.01059353 Eh      6.65 kcal/mol
Rotational entropy                ...      0.01217466 Eh      7.64 kcal/mol
Translational entropy             ...      0.01890147 Eh     11.86 kcal/mol
-----------------------------------------------------------------------
Final entropy term                ...      0.04166965 Eh     26.15 kcal/mol

CAUTION: The rotational entropy is not quite correctly treated here
         because it includes a symmetry number that is not yet correctly
         implemented in ORCA!
For a nonlinear molecule the correct rotational entropy is:
    S(rot) = R*(ln(qrot/sn)+1.5)
    R    = 8.31441 J/mol/K = 1.987191683e-3 kcal/mol/K
    qrot = 266472.4763700
    sn is the rotational symmetry number. We have assumed 3 here
       if it is different for your molecule then you should correct
       the printed rotational entropy by manually evaluating the equation
       as given above

For convenience we print out the resulting values for sn=1 - 12:
 sn= 1  qrot/sn=  266472.4764 T*S(rot)=     8.29 kcal/mol T*S(tot)=    26.80 kcal/mol
 sn= 2  qrot/sn=  133236.2382 T*S(rot)=     7.88 kcal/mol T*S(tot)=    26.39 kcal/mol
 sn= 3  qrot/sn=   88824.1588 T*S(rot)=     7.64 kcal/mol T*S(tot)=    26.15 kcal/mol
 sn= 4  qrot/sn=   66618.1191 T*S(rot)=     7.47 kcal/mol T*S(tot)=    25.98 kcal/mol
 sn= 5  qrot/sn=   53294.4953 T*S(rot)=     7.34 kcal/mol T*S(tot)=    25.85 kcal/mol
 sn= 6  qrot/sn=   44412.0794 T*S(rot)=     7.23 kcal/mol T*S(tot)=    25.74 kcal/mol
 sn= 7  qrot/sn=   38067.4966 T*S(rot)=     7.14 kcal/mol T*S(tot)=    25.65 kcal/mol
 sn= 8  qrot/sn=   33309.0595 T*S(rot)=     7.06 kcal/mol T*S(tot)=    25.57 kcal/mol
 sn= 9  qrot/sn=   29608.0529 T*S(rot)=     6.99 kcal/mol T*S(tot)=    25.50 kcal/mol
 sn=10  qrot/sn=   26647.2476 T*S(rot)=     6.93 kcal/mol T*S(tot)=    25.43 kcal/mol
 sn=11  qrot/sn=   24224.7706 T*S(rot)=     6.87 kcal/mol T*S(tot)=    25.38 kcal/mol
 sn=12  qrot/sn=   22206.0397 T*S(rot)=     6.82 kcal/mol T*S(tot)=    25.33 kcal/mol

-------------------
GIBBS FREE ENTHALPY
-------------------

The Gibbs free enthalpy is G = H - T*S

Total enthalpy                    ...   -327.02957201 Eh
Total entropy correction          ...     -0.04166965 Eh    -26.15 kcal/mol
-----------------------------------------------------------------------
Final Gibbs free enthalpy         ...   -327.07124166 Eh

For completeness - the Gibbs free enthalpy minus the electronic energy
G-E(el)                           ...      0.14245862 Eh     89.39 kcal/mol

                             ****ORCA TERMINATED NORMALLY****
TOTAL RUN TIME: 0 days 0 hours 47 minutes 4 seconds 201 msec
