                         Program Version 3.0.3 - RELEASE   -
|  1> ! NORI PBE0 def2-TZVP UseSym TightOPT Freq TightSCF Grid3 FinalGrid5 XYZFile
|  2> % pal
|  3>     nprocs 8
|  4> end
|  5> %method
|  6>     SymThresh 5.0e-2
|  7> end
|  8> % geom
|  9>     MaxIter 10
| 10> end
| 11> % maxcore 2000
| 12> % output
| 13>     printlevel mini
| 14>     print[ P_Basis ] 0
| 15>     print[ P_SCFInfo ] 1
| 16>     print[ P_SCFIterInfo ] 1
| 17>     print[ P_OrbEn ] 0
| 18>     print[ P_Cartesian ] 0
| 19> end
| 20> % elprop
| 21>     Dipole false
| 22> end
| 23> *xyz 1 1
| 24>  C        1.0817906888    -0.4081195524     0.2397104897
| 25>  C        2.5328302655    -0.0665479484    -0.0778718911
| 26>  C        2.7893590571    -0.1501437079    -1.5778368771
| 27>  C        2.8818372109     1.3169117005     0.4628646783
| 28>  O        2.7253463792     1.4348314907     1.8684224685
| 29>  C        4.3461450607     1.6704606418     0.2524390736
| 30>  N        4.6432759586     2.8792275588     1.0898781335
| 31>  H        0.8330221320    -1.3907658824    -0.1629462552
| 32>  H        0.3952517149     0.3140090607    -0.2119878793
| 33>  H        0.8802053249    -0.4578393144     1.3135222543
| 34>  H        3.1799824870    -0.7861421632     0.4388909507
| 35>  H        2.2107469999     0.6013775299    -2.1229413366
| 36>  H        2.4842601208    -1.1276106116    -1.9533793123
| 37>  H        3.8432161460    -0.0274203050    -1.8379304390
| 38>  H        2.2503172954     2.0634705000    -0.0459603464
| 39>  H        1.8330330060     1.1883025821     2.1282093857
| 40>  H        4.5920997019     1.8913463671    -0.7835044325
| 41>  H        4.9873702049     0.8700065864     0.6239150742
| 42>  H        4.2850215229     3.7350792206     0.6645052206
| 43>  H        5.6390777991     3.0028104140     1.2694158295
| 44>  H        4.1349209235     2.7298258328     1.9765552108
| 45> *
| 46>
| 47>                          ****END OF INPUT****
 Total Charge           Charge          ....    1
 Multiplicity           Mult            ....    1
 Number of Electrons    NEL             ....   58
FINAL SINGLE POINT ENERGY      -328.444373844310
FINAL SINGLE POINT ENERGY      -328.444375545214

CARTESIAN COORDINATES (ANGSTROEM)
---------------------------------
  C     -2.370350    0.327481   -0.148643
  C     -1.053987   -0.277228   -0.620887
  C     -0.842984   -0.015752   -2.108087
  C      0.106118    0.272066    0.203960
  O     -0.001094   -0.001693    1.592319
  C      1.434916   -0.367071   -0.167193
  N      2.427041    0.000669    0.896517
  H     -3.195136   -0.055068   -0.751436
  H     -2.367044    1.416900   -0.251078
  H     -2.607577    0.074478    0.888501
  H     -1.087004   -1.360269   -0.447491
  H     -0.734007    1.053782   -2.312034
  H     -1.706728   -0.366505   -2.674104
  H      0.030071   -0.533426   -2.512799
  H      0.168615    1.360754    0.042928
  H     -0.835972    0.328892    1.936502
  H      1.815863   -0.039234   -1.131267
  H      1.350519   -1.454487   -0.151438
  H      2.759323    0.960353    0.792857
  H      3.236804   -0.618501    0.914802
  H      1.908646   -0.060380    1.788111

FINAL SINGLE POINT ENERGY      -328.444376354037
                    ***********************HURRAY********************
 Multiplicity           Mult            ....    1
 Number of Electrons    NEL             ....   58
 Basis Dimension        Dim             ....  301
FINAL SINGLE POINT ENERGY      -328.444376764618

VIBRATIONAL FREQUENCIES
-----------------------

   0:         0.00 cm**-1
   1:         0.00 cm**-1
   2:         0.00 cm**-1
   3:         0.00 cm**-1
   4:         0.00 cm**-1
   5:         0.00 cm**-1
   6:        76.66 cm**-1
   7:       118.33 cm**-1
   8:       178.80 cm**-1
   9:       220.76 cm**-1
  10:       231.46 cm**-1
  11:       234.40 cm**-1
  12:       293.73 cm**-1
  13:       324.32 cm**-1
  14:       346.33 cm**-1
  15:       383.43 cm**-1
  16:       434.70 cm**-1
  17:       484.35 cm**-1
  18:       550.14 cm**-1
  19:       823.11 cm**-1
  20:       878.89 cm**-1
  21:       907.11 cm**-1
  22:       930.64 cm**-1
  23:       951.27 cm**-1
  24:       973.25 cm**-1
  25:       995.06 cm**-1
  26:      1040.32 cm**-1
  27:      1077.51 cm**-1
  28:      1123.54 cm**-1
  29:      1169.32 cm**-1
  30:      1189.16 cm**-1
  31:      1203.66 cm**-1
  32:      1262.33 cm**-1
  33:      1307.97 cm**-1
  34:      1340.42 cm**-1
  35:      1341.76 cm**-1
  36:      1370.15 cm**-1
  37:      1395.72 cm**-1
  38:      1404.77 cm**-1
  39:      1423.84 cm**-1
  40:      1432.93 cm**-1
  41:      1472.06 cm**-1
  42:      1478.98 cm**-1
  43:      1486.70 cm**-1
  44:      1493.63 cm**-1
  45:      1499.23 cm**-1
  46:      1510.81 cm**-1
  47:      1638.68 cm**-1
  48:      1670.10 cm**-1
  49:      2983.35 cm**-1
  50:      3039.79 cm**-1
  51:      3045.20 cm**-1
  52:      3050.47 cm**-1
  53:      3110.39 cm**-1
  54:      3114.31 cm**-1
  55:      3120.79 cm**-1
  56:      3138.52 cm**-1
  57:      3142.51 cm**-1
  58:      3188.58 cm**-1
  59:      3305.48 cm**-1
  60:      3478.84 cm**-1
  61:      3534.14 cm**-1
  62:      3859.23 cm**-1

IR SPECTRUM
-----------

 Mode    freq (cm**-1)   T**2         TX         TY         TZ
-------------------------------------------------------------------
   6:        76.66    1.131434  (  0.280134  -1.005746   0.203554)
   7:       118.33   10.041202  (  1.016747   2.824786  -1.013907)
   8:       178.80    3.191069  (  1.295471  -0.148007  -1.221032)
   9:       220.76   17.066509  ( -0.293046   3.651281   1.910178)
  10:       231.46    5.177756  ( -1.596979  -1.620582  -0.033587)
  11:       234.40    0.818919  ( -0.243395   0.854329   0.172625)
  12:       293.73   99.144459  (  5.292797   7.830658   3.132339)
  13:       324.32   25.030754  ( -4.901541   0.809953   0.591292)
  14:       346.33    7.113417  (  1.057738   1.201707   2.133192)
  15:       383.43   10.699556  ( -2.678979   0.662612   1.756011)
  16:       434.70   15.091489  (  3.804461   0.473972   0.626833)
  17:       484.35    2.816737  (  0.545089   1.513770  -0.477612)
  18:       550.14   13.834749  (  0.810084   0.521731   3.592535)
  19:       823.11    5.887297  ( -1.987709   0.567554  -1.270509)
  20:       878.89   11.748961  (  2.056418   2.734857  -0.201649)
  21:       907.11    3.998936  (  0.430319  -1.487899  -1.264878)
  22:       930.64    0.725644  (  0.585882   0.178142  -0.592158)
  23:       951.27   26.432817  (  4.755383   0.129759  -1.949952)
  24:       973.25    4.249581  (  1.245642   0.067617   1.641153)
  25:       995.06    1.490243  ( -0.612691  -0.804682  -0.683623)
  26:      1040.32  110.274123  (  3.219868   0.944033  -9.950647)
  27:      1077.51   16.762355  (  3.504639  -1.853351   1.022226)
  28:      1123.54    9.902307  ( -2.044246   0.572694  -2.322797)
  29:      1169.32   19.744841  (  2.272560  -1.107228   3.654362)
  30:      1189.16   13.046519  (  2.371205  -0.797254   2.605435)
  31:      1203.66    7.238102  (  0.647221  -1.611685   2.054672)
  32:      1262.33   43.625617  (  2.306751  -0.580370   6.161792)
  33:      1307.97    3.885713  (  1.570720  -0.375801   1.130188)
  34:      1340.42    4.649179  ( -0.114354   1.115599  -1.841614)
  35:      1341.76    8.353561  ( -0.839346  -0.739103   2.665105)
  36:      1370.15    2.201282  (  0.588444  -0.692517  -1.172790)
  37:      1395.72    4.213684  ( -0.476259   0.298067   1.974340)
  38:      1404.77    9.031111  ( -2.101050   0.773429   2.004621)
  39:      1423.84    8.803008  ( -1.909913   1.438160  -1.756968)
  40:      1432.93    3.452197  ( -0.463327  -1.421966   1.102515)
  41:      1472.06   20.532271  (  2.860321   0.723325   3.439133)
  42:      1478.98  173.644777  ( -9.958443  -1.473675  -8.503086)
  43:      1486.70   15.325955  ( -2.516975   2.603112   1.488153)
  44:      1493.63   32.750188  (  3.300359   0.250929   4.668496)
  45:      1499.23    3.471389  ( -1.381402   0.004421  -1.250239)
  46:      1510.81   18.950211  ( -1.259084  -4.036099   1.036736)
  47:      1638.68   36.795493  ( -2.273977  -5.036091   2.502461)
  48:      1670.10   35.665241  ( -4.414181   3.474176   2.027399)
  49:      2983.35   20.220443  (  1.108680   4.085129  -1.517561)
  50:      3039.79    6.302648  ( -0.395788   2.173670  -1.192123)
  51:      3045.20   17.791063  ( -2.260499   2.003319   2.944133)
  52:      3050.47   10.820990  ( -1.417022  -2.352872   1.810257)
  53:      3110.39    0.172479  ( -0.366607  -0.187827   0.052908)
  54:      3114.31   17.263002  ( -0.758055  -1.849743   3.642363)
  55:      3120.79   24.669237  (  2.517038  -4.280215   0.116263)
  56:      3138.52    2.471502  (  0.235233  -1.146374  -1.049759)
  57:      3142.51   11.323931  (  2.846656   1.428930   1.085651)
  58:      3188.58    0.394144  (  0.423058   0.082351  -0.456492)
  59:      3305.48  120.185002  (  7.261918   0.052824  -8.212597)
  60:      3478.84  109.422418  (  9.895978   2.961650  -1.649446)
  61:      3534.14  100.733858  (  4.700781  -8.851701   0.532816)
  62:      3859.23   94.401123  ( -7.998393   2.418155   4.957758)

--------------------------
THERMOCHEMISTRY AT 298.15K
--------------------------

Temperature         ... 298.15 K
Pressure            ... 1.00 atm
Total Mass          ... 104.17 AMU

Throughout the following assumptions are being made:
  (1) The electronic state is orbitally nondegenerate
  (2) There are no thermally accessible electronically excited states
  (3) Hindered rotations indicated by low frequency modes) are not
      treated as such but are treated as vibrations and this may
      case some error
  (4) All equations used are the standard statistical mechanics
      equations for an ideal gas
  (5) All vibrations are strinctly harmonic

------------
INNER ENERGY
------------

The inner energy is: U= E(el) + E(ZPE) + E(vib) + E(rot) + E(trans)
    E(el)   - is the total energy from the electronic structure calculation
              = E(kin-el) + E(nuc-el) + E(el-el) + E(nuc-nuc)
    E(ZPE)  - the the zero temperature vibrational energy from the frequency calculation
    E(vib)  - the the finite temperature correction to E(ZPE) due to population
              of excietd vibrational states
    E(rot)  - is the rotational thermal energy
    E(trans)- is the translational thermal energy

Summary of contributions to the inner energy U:
Electronic energy                ...   -328.44437676 Eh
Zero point energy                ...      0.19770385 Eh     124.06 kcal/mol
Thermal vibrational correction   ...      0.00644227 Eh       4.04 kcal/mol
Thermal rotational correction    ...      0.00141627 Eh       0.89 kcal/mol
Thermal translational correction ...      0.00141627 Eh       0.89 kcal/mol
-----------------------------------------------------------------------
Total thermal energy                   -328.23739810 Eh

Summary of corrections to the electronic energy:
(perhaps to be used in another calculation)
Total thermal correction                  0.00927481 Eh       5.82 kcal/mol
Non-thermal (ZPE) correction              0.19770385 Eh     124.06 kcal/mol
-----------------------------------------------------------------------
Total correction                          0.20697866 Eh     129.88 kcal/mol

--------
ENTHALPY
--------

The enthalpy is H = U + kB*T
                kB is Boltzmann's constant
Total free energy                 ...   -328.23739810 Eh
Thermal Enthalpy correction       ...      0.00094421 Eh       0.59 kcal/mol
-----------------------------------------------------------------------
Total Enthalpy                    ...   -328.23645389 Eh

-------
ENTROPY
-------

The entropy contributions are T*S = T*(S(el)+S(vib)+S(rot)+S(trans)
     S(el)   - electronic entropy
     S(vib)  - vibrational entropy
     S(rot)  - rotational entropy
     S(trans)- translational entropy
The entropies will be listed as mutliplied by the temperature to get
units of energy

Electronic entropy                ...      0.00000000 Eh      0.00 kcal/mol
Vibrational entropy               ...      0.01124706 Eh      7.06 kcal/mol
Rotational entropy                ...      0.01225227 Eh      7.69 kcal/mol
Translational entropy             ...      0.01892914 Eh     11.88 kcal/mol
-----------------------------------------------------------------------
Final entropy term                ...      0.04242848 Eh     26.62 kcal/mol

CAUTION: The rotational entropy is not quite correctly treated here
         because it includes a symmetry number that is not yet correctly
         implemented in ORCA!
For a nonlinear molecule the correct rotational entropy is:
    S(rot) = R*(ln(qrot/sn)+1.5)
    R    = 8.31441 J/mol/K = 1.987191683e-3 kcal/mol/K
    qrot = 289302.1010169
    sn is the rotational symmetry number. We have assumed 3 here
       if it is different for your molecule then you should correct
       the printed rotational entropy by manually evaluating the equation
       as given above

For convenience we print out the resulting values for sn=1 - 12:
 sn= 1  qrot/sn=  289302.1010 T*S(rot)=     8.34 kcal/mol T*S(tot)=    27.28 kcal/mol
 sn= 2  qrot/sn=  144651.0505 T*S(rot)=     7.93 kcal/mol T*S(tot)=    26.86 kcal/mol
 sn= 3  qrot/sn=   96434.0337 T*S(rot)=     7.69 kcal/mol T*S(tot)=    26.62 kcal/mol
 sn= 4  qrot/sn=   72325.5253 T*S(rot)=     7.52 kcal/mol T*S(tot)=    26.45 kcal/mol
 sn= 5  qrot/sn=   57860.4202 T*S(rot)=     7.39 kcal/mol T*S(tot)=    26.32 kcal/mol
 sn= 6  qrot/sn=   48217.0168 T*S(rot)=     7.28 kcal/mol T*S(tot)=    26.21 kcal/mol
 sn= 7  qrot/sn=   41328.8716 T*S(rot)=     7.19 kcal/mol T*S(tot)=    26.12 kcal/mol
 sn= 8  qrot/sn=   36162.7626 T*S(rot)=     7.11 kcal/mol T*S(tot)=    26.04 kcal/mol
 sn= 9  qrot/sn=   32144.6779 T*S(rot)=     7.04 kcal/mol T*S(tot)=    25.97 kcal/mol
 sn=10  qrot/sn=   28930.2101 T*S(rot)=     6.98 kcal/mol T*S(tot)=    25.91 kcal/mol
 sn=11  qrot/sn=   26300.1910 T*S(rot)=     6.92 kcal/mol T*S(tot)=    25.85 kcal/mol
 sn=12  qrot/sn=   24108.5084 T*S(rot)=     6.87 kcal/mol T*S(tot)=    25.80 kcal/mol

-------------------
GIBBS FREE ENTHALPY
-------------------

The Gibbs free enthalpy is G = H - T*S

Total enthalpy                    ...   -328.23645389 Eh
Total entropy correction          ...     -0.04242848 Eh    -26.62 kcal/mol
-----------------------------------------------------------------------
Final Gibbs free enthalpy         ...   -328.27888237 Eh

For completeness - the Gibbs free enthalpy minus the electronic energy
G-E(el)                           ...      0.16549440 Eh    103.85 kcal/mol

                             ****ORCA TERMINATED NORMALLY****
TOTAL RUN TIME: 0 days 0 hours 52 minutes 56 seconds 665 msec
