                         Program Version 3.0.3 - RELEASE   -
|  1> ! NORI PBE0 def2-TZVP UseSym TightOPT Freq TightSCF Grid3 FinalGrid5 XYZFile
|  2> % pal
|  3>     nprocs 8
|  4> end
|  5> %method
|  6>     SymThresh 5.0e-2
|  7> end
|  8> % geom
|  9>     MaxIter 10
| 10> end
| 11> % maxcore 2000
| 12> % output
| 13>     printlevel mini
| 14>     print[ P_Basis ] 0
| 15>     print[ P_SCFInfo ] 1
| 16>     print[ P_SCFIterInfo ] 1
| 17>     print[ P_OrbEn ] 0
| 18>     print[ P_Cartesian ] 0
| 19> end
| 20> % elprop
| 21>     Dipole false
| 22> end
| 23> *xyz 1 1
| 24>  C        0.9530587667    -0.0049290361    -0.0755267687
| 25>  C        2.3989933326     0.0153986848    -0.0600250296
| 26>  C        3.6019220079     0.0289642806    -0.0476763615
| 27>  C        5.0497179793     0.0269252000    -0.0547739343
| 28>  O        5.6331941558     0.6568319148    -1.1881294730
| 29>  C        5.5910130435     0.8308916062     1.1230013817
| 30>  N        7.0585039209     1.0390455197     0.8885993137
| 31>  H        0.5842809123    -0.8893626101    -0.5994304243
| 32>  H        0.5597448648     0.8830820495    -0.5751766457
| 33>  H        0.5616082909    -0.0234150358     0.9439193996
| 34>  H        5.4118182382    -1.0106154220     0.0123857855
| 35>  H        5.1393434910     0.4340589348    -1.9835651195
| 36>  H        5.4447476297     0.3287169504     2.0772300087
| 37>  H        5.1296705543     1.8172608476     1.1416263014
| 38>  H        7.5989988148     0.1886373946     1.0560765472
| 39>  H        7.4453203299     1.7834106468     1.4687955646
| 40>  H        7.1567736674     1.2840880744    -0.1084805458
| 41> *
| 42>
| 43>                          ****END OF INPUT****
 Total Charge           Charge          ....    1
 Multiplicity           Mult            ....    1
 Number of Electrons    NEL             ....   54
FINAL SINGLE POINT ENERGY      -325.966194605331
FINAL SINGLE POINT ENERGY      -325.966195003762

CARTESIAN COORDINATES (ANGSTROEM)
---------------------------------
  C     -2.627421   -0.406211   -2.314952
  C     -1.599978   -0.093533   -1.346505
  C     -0.746982    0.169771   -0.540030
  C      0.261325    0.504223    0.443875
  O     -0.000299    0.000195    1.747251
  C      1.599658   -0.127902    0.074525
  N      2.501358   -0.000902    1.267219
  H     -3.405534    0.359879   -2.313755
  H     -3.089231   -1.369822   -2.089786
  H     -2.200870   -0.459162   -3.319242
  H      0.373698    1.598486    0.491350
  H     -0.935778    0.087104    1.955523
  H      2.066633    0.349191   -0.784797
  H      1.467847   -1.193056   -0.111441
  H      2.840662    0.954204    1.392405
  H      3.308360   -0.622555    1.215058
  H      1.925179   -0.241262    2.087979

FINAL SINGLE POINT ENERGY      -325.966195205190
                    ***********************HURRAY********************
 Multiplicity           Mult            ....    1
 Number of Electrons    NEL             ....   54
 Basis Dimension        Dim             ....  277
FINAL SINGLE POINT ENERGY      -325.966195301298

VIBRATIONAL FREQUENCIES
-----------------------

   0:         0.00 cm**-1
   1:         0.00 cm**-1
   2:         0.00 cm**-1
   3:         0.00 cm**-1
   4:         0.00 cm**-1
   5:         0.00 cm**-1
   6:        11.95 cm**-1
   7:        92.00 cm**-1
   8:        93.51 cm**-1
   9:       172.73 cm**-1
  10:       206.27 cm**-1
  11:       249.47 cm**-1
  12:       287.49 cm**-1
  13:       350.74 cm**-1
  14:       363.20 cm**-1
  15:       443.60 cm**-1
  16:       518.01 cm**-1
  17:       558.40 cm**-1
  18:       792.95 cm**-1
  19:       869.66 cm**-1
  20:       917.51 cm**-1
  21:       967.87 cm**-1
  22:      1023.92 cm**-1
  23:      1039.32 cm**-1
  24:      1041.97 cm**-1
  25:      1123.84 cm**-1
  26:      1133.33 cm**-1
  27:      1202.85 cm**-1
  28:      1268.18 cm**-1
  29:      1333.78 cm**-1
  30:      1353.95 cm**-1
  31:      1363.68 cm**-1
  32:      1403.99 cm**-1
  33:      1432.93 cm**-1
  34:      1456.98 cm**-1
  35:      1459.42 cm**-1
  36:      1483.42 cm**-1
  37:      1486.16 cm**-1
  38:      1641.48 cm**-1
  39:      1667.06 cm**-1
  40:      2370.00 cm**-1
  41:      2994.76 cm**-1
  42:      3059.58 cm**-1
  43:      3120.97 cm**-1
  44:      3134.84 cm**-1
  45:      3137.74 cm**-1
  46:      3191.19 cm**-1
  47:      3335.48 cm**-1
  48:      3476.29 cm**-1
  49:      3528.51 cm**-1
  50:      3856.48 cm**-1

IR SPECTRUM
-----------

 Mode    freq (cm**-1)   T**2         TX         TY         TZ
-------------------------------------------------------------------
   7:        92.00   13.687871  (  0.254006  -3.263686  -1.723863)
   8:        93.51   16.222704  (  1.696213   3.231131  -1.704512)
   9:       172.73   28.695796  (  1.910717   3.992348   3.017634)
  10:       206.27   58.557720  ( -0.885029   6.416200   4.075147)
  11:       249.47   54.447919  ( -2.559495  -5.808363  -3.762954)
  12:       287.49    3.985601  ( -1.945830  -0.379953   0.234480)
  13:       350.74   36.644852  (  5.971572   0.882285  -0.454695)
  14:       363.20    9.728732  ( -1.904893   2.430773  -0.437555)
  15:       443.60    7.419502  (  0.912026  -1.760367   1.867838)
  16:       518.01   16.278866  ( -3.676017  -0.361229   1.623354)
  17:       558.40    4.366951  ( -1.559050  -1.212572  -0.682630)
  18:       792.95    6.289216  ( -0.235730   2.086981  -1.370459)
  19:       869.66   20.364437  ( -3.936177  -2.165969  -0.423707)
  20:       917.51   20.998878  (  3.613511  -2.556941  -1.184679)
  21:       967.87   13.882367  ( -3.310001  -1.434684   0.931634)
  22:      1023.92  140.931214  (  3.961686   2.170362 -10.978424)
  23:      1039.32    0.351552  ( -0.336375  -0.270727   0.406338)
  24:      1041.97    2.000678  (  0.368716  -1.305814   0.399469)
  25:      1123.84    0.868292  ( -0.732667  -0.320621  -0.478219)
  26:      1133.33   45.992361  (  3.523753  -2.873194   5.031926)
  27:      1202.85    4.745006  ( -1.453592   0.194149  -1.610708)
  28:      1268.18   30.781885  (  0.742434  -1.439851   5.306365)
  29:      1333.78   13.934608  ( -2.718315  -2.329696   1.057301)
  30:      1353.95    5.520649  (  0.592640  -0.094424  -2.271676)
  31:      1363.68   43.897668  ( -3.527700   0.266630  -5.601956)
  32:      1403.99    0.574450  (  0.229738   0.414472   0.591509)
  33:      1432.93   17.335361  ( -2.318718   0.621492  -3.401861)
  34:      1456.98   12.761359  ( -0.983102   3.428900   0.193688)
  35:      1459.42   13.795083  (  1.958107   0.817494  -3.048377)
  36:      1483.42   58.417010  ( -2.870559  -1.619230  -6.896013)
  37:      1486.16  178.138914  ( -9.874538   1.559887  -8.843029)
  38:      1641.48   37.971063  (  2.213037   5.485778  -1.726201)
  39:      1667.06   38.026879  ( -4.821646   3.104276   2.267615)
  40:      2370.00  130.305400  (  8.010728   1.827202   7.924328)
  41:      2994.76   20.036519  (  2.570049   3.664857   0.013670)
  42:      3059.58    0.066975  (  0.178376   0.111622   0.150659)
  43:      3120.97    0.025469  (  0.062560  -0.079939  -0.123148)
  44:      3134.84    0.082562  (  0.180672   0.061461   0.214808)
  45:      3137.74    0.013486  ( -0.053308  -0.018877  -0.101430)
  46:      3191.19    0.093227  (  0.109559  -0.282903  -0.034487)
  47:      3335.48  102.965545  ( -6.179340  -1.537843   7.900402)
  48:      3476.29  123.224903  ( 10.481148   3.621422  -0.505720)
  49:      3528.51  106.050948  (  4.920763  -8.980419  -1.090468)
  50:      3856.48  113.799922  ( -9.159471   0.113420   5.467280)

--------------------------
THERMOCHEMISTRY AT 298.15K
--------------------------

Temperature         ... 298.15 K
Pressure            ... 1.00 atm
Total Mass          ... 100.14 AMU

Throughout the following assumptions are being made:
  (1) The electronic state is orbitally nondegenerate
  (2) There are no thermally accessible electronically excited states
  (3) Hindered rotations indicated by low frequency modes) are not
      treated as such but are treated as vibrations and this may
      case some error
  (4) All equations used are the standard statistical mechanics
      equations for an ideal gas
  (5) All vibrations are strinctly harmonic

------------
INNER ENERGY
------------

The inner energy is: U= E(el) + E(ZPE) + E(vib) + E(rot) + E(trans)
    E(el)   - is the total energy from the electronic structure calculation
              = E(kin-el) + E(nuc-el) + E(el-el) + E(nuc-nuc)
    E(ZPE)  - the the zero temperature vibrational energy from the frequency calculation
    E(vib)  - the the finite temperature correction to E(ZPE) due to population
              of excietd vibrational states
    E(rot)  - is the rotational thermal energy
    E(trans)- is the translational thermal energy

Summary of contributions to the inner energy U:
Electronic energy                ...   -325.96619530 Eh
Zero point energy                ...      0.15037172 Eh      94.36 kcal/mol
Thermal vibrational correction   ...      0.00542075 Eh       3.40 kcal/mol
Thermal rotational correction    ...      0.00141627 Eh       0.89 kcal/mol
Thermal translational correction ...      0.00141627 Eh       0.89 kcal/mol
-----------------------------------------------------------------------
Total thermal energy                   -325.80757029 Eh

Summary of corrections to the electronic energy:
(perhaps to be used in another calculation)
Total thermal correction                  0.00825329 Eh       5.18 kcal/mol
Non-thermal (ZPE) correction              0.15037172 Eh      94.36 kcal/mol
-----------------------------------------------------------------------
Total correction                          0.15862501 Eh      99.54 kcal/mol

--------
ENTHALPY
--------

The enthalpy is H = U + kB*T
                kB is Boltzmann's constant
Total free energy                 ...   -325.80757029 Eh
Thermal Enthalpy correction       ...      0.00094421 Eh       0.59 kcal/mol
-----------------------------------------------------------------------
Total Enthalpy                    ...   -325.80662608 Eh

-------
ENTROPY
-------

The entropy contributions are T*S = T*(S(el)+S(vib)+S(rot)+S(trans)
     S(el)   - electronic entropy
     S(vib)  - vibrational entropy
     S(rot)  - rotational entropy
     S(trans)- translational entropy
The entropies will be listed as mutliplied by the temperature to get
units of energy

Electronic entropy                ...      0.00000000 Eh      0.00 kcal/mol
Vibrational entropy               ...      0.00966198 Eh      6.06 kcal/mol
Rotational entropy                ...      0.01229226 Eh      7.71 kcal/mol
Translational entropy             ...      0.01887324 Eh     11.84 kcal/mol
-----------------------------------------------------------------------
Final entropy term                ...      0.04082747 Eh     25.62 kcal/mol

CAUTION: The rotational entropy is not quite correctly treated here
         because it includes a symmetry number that is not yet correctly
         implemented in ORCA!
For a nonlinear molecule the correct rotational entropy is:
    S(rot) = R*(ln(qrot/sn)+1.5)
    R    = 8.31441 J/mol/K = 1.987191683e-3 kcal/mol/K
    qrot = 301816.3823996
    sn is the rotational symmetry number. We have assumed 3 here
       if it is different for your molecule then you should correct
       the printed rotational entropy by manually evaluating the equation
       as given above

For convenience we print out the resulting values for sn=1 - 12:
 sn= 1  qrot/sn=  301816.3824 T*S(rot)=     8.36 kcal/mol T*S(tot)=    26.27 kcal/mol
 sn= 2  qrot/sn=  150908.1912 T*S(rot)=     7.95 kcal/mol T*S(tot)=    25.86 kcal/mol
 sn= 3  qrot/sn=  100605.4608 T*S(rot)=     7.71 kcal/mol T*S(tot)=    25.62 kcal/mol
 sn= 4  qrot/sn=   75454.0956 T*S(rot)=     7.54 kcal/mol T*S(tot)=    25.45 kcal/mol
 sn= 5  qrot/sn=   60363.2765 T*S(rot)=     7.41 kcal/mol T*S(tot)=    25.32 kcal/mol
 sn= 6  qrot/sn=   50302.7304 T*S(rot)=     7.30 kcal/mol T*S(tot)=    25.21 kcal/mol
 sn= 7  qrot/sn=   43116.6261 T*S(rot)=     7.21 kcal/mol T*S(tot)=    25.12 kcal/mol
 sn= 8  qrot/sn=   37727.0478 T*S(rot)=     7.13 kcal/mol T*S(tot)=    25.04 kcal/mol
 sn= 9  qrot/sn=   33535.1536 T*S(rot)=     7.06 kcal/mol T*S(tot)=    24.97 kcal/mol
 sn=10  qrot/sn=   30181.6382 T*S(rot)=     7.00 kcal/mol T*S(tot)=    24.91 kcal/mol
 sn=11  qrot/sn=   27437.8529 T*S(rot)=     6.94 kcal/mol T*S(tot)=    24.85 kcal/mol
 sn=12  qrot/sn=   25151.3652 T*S(rot)=     6.89 kcal/mol T*S(tot)=    24.80 kcal/mol

-------------------
GIBBS FREE ENTHALPY
-------------------

The Gibbs free enthalpy is G = H - T*S

Total enthalpy                    ...   -325.80662608 Eh
Total entropy correction          ...     -0.04082747 Eh    -25.62 kcal/mol
-----------------------------------------------------------------------
Final Gibbs free enthalpy         ...   -325.84745355 Eh

For completeness - the Gibbs free enthalpy minus the electronic energy
G-E(el)                           ...      0.11874175 Eh     74.51 kcal/mol

                             ****ORCA TERMINATED NORMALLY****
TOTAL RUN TIME: 0 days 0 hours 32 minutes 41 seconds 290 msec
