                         Program Version 3.0.3 - RELEASE   -
|  1> ! NORI PBE0 def2-TZVP UseSym TightOPT Freq TightSCF Grid3 FinalGrid5 XYZFile
|  2> % pal
|  3>     nprocs 8
|  4> end
|  5> %method
|  6>     SymThresh 5.0e-2
|  7> end
|  8> % geom
|  9>     MaxIter 10
| 10> end
| 11> % maxcore 2000
| 12> % output
| 13>     printlevel mini
| 14>     print[ P_Basis ] 0
| 15>     print[ P_SCFInfo ] 1
| 16>     print[ P_SCFIterInfo ] 1
| 17>     print[ P_OrbEn ] 0
| 18>     print[ P_Cartesian ] 0
| 19> end
| 20> % elprop
| 21>     Dipole false
| 22> end
| 23> *xyz 1 1
| 24>  C        2.7678249366     0.6107826068    -1.8404264540
| 25>  C        2.5884139267     0.2736876490    -0.3692719757
| 26>  C        3.1179884382     1.3039084283     0.6329522982
| 27>  C        2.4833856296     2.6708336825     0.4573948868
| 28>  O        2.9232647168     0.8166235872     1.9631006578
| 29>  C        4.6388347593     1.4558155454     0.5813236258
| 30>  N        5.2528077383     0.2167237255     1.1594338503
| 31>  H        2.3668541257    -0.1930983543    -2.4590521925
| 32>  H        3.8176956845     0.7336200920    -2.1214525884
| 33>  H        2.2392037979     1.5242435548    -2.1165748604
| 34>  H        3.0342022995    -0.7051912350    -0.1487862117
| 35>  H        1.5209753537     0.1481296932    -0.1570203348
| 36>  H        2.7855620664     3.1377474557    -0.4821041348
| 37>  H        2.7682115065     3.3291879190     1.2800312194
| 38>  H        1.3946936868     2.5820210322     0.4472849728
| 39>  H        1.9889584378     0.6600340013     2.1322865392
| 40>  H        4.9526334493     2.2811340861     1.2197646723
| 41>  H        5.0195733544     1.6077032170    -0.4261664054
| 42>  H        4.6443967558    -0.0353605365     1.9565814085
| 43>  H        6.2101522033     0.3618279555     1.4774122412
| 44>  H        5.2468671329    -0.5603241057     0.4987587855
| 45> *
| 46>
| 47>                          ****END OF INPUT****
 Total Charge           Charge          ....    1
 Multiplicity           Mult            ....    1
 Number of Electrons    NEL             ....   58
FINAL SINGLE POINT ENERGY      -328.447109413213
FINAL SINGLE POINT ENERGY      -328.447111781319

CARTESIAN COORDINATES (ANGSTROEM)
---------------------------------
  C     -0.967790   -1.089188   -1.875032
  C     -0.652685   -1.129985   -0.388360
  C     -0.316509    0.212094    0.268700
  C     -1.430225    1.231464    0.117451
  O      0.000183    0.001993    1.647351
  C      0.985713    0.818899   -0.255663
  N      2.126287   -0.001362    0.266779
  H     -1.181356   -2.094929   -2.238672
  H     -0.137000   -0.705349   -2.474009
  H     -1.843913   -0.475474   -2.087754
  H      0.160508   -1.841386   -0.193243
  H     -1.514990   -1.537168    0.150631
  H     -1.553887    1.541873   -0.921587
  H     -1.219594    2.114951    0.721895
  H     -2.379291    0.804704    0.449698
  H     -0.745230   -0.395394    2.108203
  H      1.118351    1.822606    0.147599
  H      1.035837    0.851471   -1.341856
  H      1.857047   -0.245708    1.234836
  H      3.011028    0.504645    0.262703
  H      2.248476   -0.868288   -0.256286

FINAL SINGLE POINT ENERGY      -328.447112484531
                    ***********************HURRAY********************
 Multiplicity           Mult            ....    1
 Number of Electrons    NEL             ....   58
 Basis Dimension        Dim             ....  301
FINAL SINGLE POINT ENERGY      -328.447112649755

VIBRATIONAL FREQUENCIES
-----------------------

   0:         0.00 cm**-1
   1:         0.00 cm**-1
   2:         0.00 cm**-1
   3:         0.00 cm**-1
   4:         0.00 cm**-1
   5:         0.00 cm**-1
   6:        74.92 cm**-1
   7:       150.24 cm**-1
   8:       203.03 cm**-1
   9:       217.74 cm**-1
  10:       248.00 cm**-1
  11:       259.14 cm**-1
  12:       280.87 cm**-1
  13:       291.39 cm**-1
  14:       351.13 cm**-1
  15:       390.81 cm**-1
  16:       441.79 cm**-1
  17:       480.68 cm**-1
  18:       548.87 cm**-1
  19:       731.12 cm**-1
  20:       782.95 cm**-1
  21:       852.98 cm**-1
  22:       902.67 cm**-1
  23:       932.72 cm**-1
  24:       978.71 cm**-1
  25:      1012.89 cm**-1
  26:      1027.63 cm**-1
  27:      1049.16 cm**-1
  28:      1072.36 cm**-1
  29:      1098.01 cm**-1
  30:      1160.79 cm**-1
  31:      1201.31 cm**-1
  32:      1245.90 cm**-1
  33:      1288.45 cm**-1
  34:      1330.42 cm**-1
  35:      1360.74 cm**-1
  36:      1370.30 cm**-1
  37:      1411.73 cm**-1
  38:      1415.65 cm**-1
  39:      1423.55 cm**-1
  40:      1468.62 cm**-1
  41:      1473.96 cm**-1
  42:      1480.90 cm**-1
  43:      1490.88 cm**-1
  44:      1495.83 cm**-1
  45:      1500.44 cm**-1
  46:      1504.00 cm**-1
  47:      1637.13 cm**-1
  48:      1667.62 cm**-1
  49:      3025.70 cm**-1
  50:      3056.45 cm**-1
  51:      3061.87 cm**-1
  52:      3073.78 cm**-1
  53:      3117.29 cm**-1
  54:      3129.90 cm**-1
  55:      3140.99 cm**-1
  56:      3148.89 cm**-1
  57:      3153.03 cm**-1
  58:      3185.83 cm**-1
  59:      3290.20 cm**-1
  60:      3486.09 cm**-1
  61:      3540.20 cm**-1
  62:      3852.92 cm**-1

IR SPECTRUM
-----------

 Mode    freq (cm**-1)   T**2         TX         TY         TZ
-------------------------------------------------------------------
   6:        74.92    5.930729  ( -0.906290  -1.121475  -1.962565)
   7:       150.24    9.246980  ( -0.128571  -2.239224  -2.053369)
   8:       203.03   14.993282  (  0.929985  -3.396326  -1.610398)
   9:       217.74    3.912510  (  1.274538   1.276089  -0.812194)
  10:       248.00   11.123013  ( -2.269140  -2.282640   0.873826)
  11:       259.14    3.456714  (  0.928511  -1.290729  -0.963639)
  12:       280.87   42.283917  (  3.766274  -4.522150  -2.765729)
  13:       291.39   56.780701  (  0.087254  -7.340900  -1.698315)
  14:       351.13    2.012790  ( -0.176675   0.770045  -1.178392)
  15:       390.81   43.058231  ( -5.990287   1.537770   2.193162)
  16:       441.79    8.127980  (  0.518189   2.761832  -0.481397)
  17:       480.68    1.278068  ( -0.330135  -0.659233  -0.857025)
  18:       548.87    8.896756  ( -1.266009  -0.167313  -2.695549)
  19:       731.12    3.536245  (  1.467047  -0.677638   0.961678)
  20:       782.95    1.084295  (  0.891109  -0.430349  -0.324066)
  21:       852.98    8.618810  (  2.202589  -1.908185  -0.355303)
  22:       902.67   17.097391  (  1.770992   2.056630  -3.119495)
  23:       932.72   16.487058  ( -0.062582   1.020245   3.929662)
  24:       978.71   11.664831  (  3.222858  -0.952407   0.609049)
  25:      1012.89   17.970289  (  1.027547   2.568968  -3.211672)
  26:      1027.63   10.192539  ( -2.782361  -1.523476  -0.360595)
  27:      1049.16   82.738879  (  2.298238   1.256046  -8.710874)
  28:      1072.36    5.099041  ( -0.603581  -1.481461  -1.593739)
  29:      1098.01    9.367473  (  2.599149   1.479946  -0.649352)
  30:      1160.79   24.547919  ( -2.067549   0.488942  -4.475946)
  31:      1201.31   48.461386  ( -3.700069  -0.539833  -5.871921)
  32:      1245.90    6.353076  (  2.106972  -0.864537   1.079964)
  33:      1288.45    3.631277  ( -0.455321  -1.188375  -1.418353)
  34:      1330.42    3.158270  (  1.311833  -0.775657  -0.914177)
  35:      1360.74    7.054513  (  0.356297   1.372008   2.246143)
  36:      1370.30   26.707601  ( -1.085513  -1.589021  -4.796277)
  37:      1411.73   16.829426  ( -2.918460   2.816872  -0.614207)
  38:      1415.65    9.616665  (  1.284444   1.684598   2.264729)
  39:      1423.55    3.674328  (  0.470121  -1.267986   1.358501)
  40:      1468.62  165.028948  (-11.173961   4.752321  -4.193683)
  41:      1473.96   10.216686  (  2.695035  -1.576275   0.684714)
  42:      1480.90   19.587466  (  4.088840  -0.958303   1.396607)
  43:      1490.88   16.863640  (  2.617660   2.201854   2.272297)
  44:      1495.83   15.908134  (  2.783317   1.513924  -2.422668)
  45:      1500.44   28.011821  (  3.199631  -2.968581   2.993612)
  46:      1504.00   19.060594  (  2.462142   3.122904  -1.801643)
  47:      1637.13   35.605789  ( -1.916266   3.418980   4.499365)
  48:      1667.62   38.217243  (  5.023128   3.564086  -0.531716)
  49:      3025.70   32.294387  (  3.701475  -3.315323   2.757191)
  50:      3056.45    8.709816  ( -0.949650  -1.330665   2.457094)
  51:      3061.87    0.944608  ( -0.436097   0.782089  -0.377841)
  52:      3073.78   11.799102  ( -2.820765   0.301738   1.936838)
  53:      3117.29    0.769657  ( -0.139855  -0.790042   0.354868)
  54:      3129.90   17.906972  (  4.018659   1.147930  -0.663032)
  55:      3140.99    4.171060  ( -1.334880  -0.885985   1.266565)
  56:      3148.89    8.802087  ( -0.137050   2.648205   1.330533)
  57:      3153.03    4.371771  ( -1.594242   0.928616  -0.983786)
  58:      3185.83    0.701343  ( -0.293148  -0.023956   0.784113)
  59:      3290.20  125.600551  ( -5.121086  -2.323301   9.694189)
  60:      3486.09   94.464467  (  8.226965  -1.835154  -4.838773)
  61:      3540.20  101.073303  (  6.136504   7.568839   2.475743)
  62:      3852.92   86.673908  (  5.181227   3.288343  -7.001114)

--------------------------
THERMOCHEMISTRY AT 298.15K
--------------------------

Temperature         ... 298.15 K
Pressure            ... 1.00 atm
Total Mass          ... 104.17 AMU

Throughout the following assumptions are being made:
  (1) The electronic state is orbitally nondegenerate
  (2) There are no thermally accessible electronically excited states
  (3) Hindered rotations indicated by low frequency modes) are not
      treated as such but are treated as vibrations and this may
      case some error
  (4) All equations used are the standard statistical mechanics
      equations for an ideal gas
  (5) All vibrations are strinctly harmonic

------------
INNER ENERGY
------------

The inner energy is: U= E(el) + E(ZPE) + E(vib) + E(rot) + E(trans)
    E(el)   - is the total energy from the electronic structure calculation
              = E(kin-el) + E(nuc-el) + E(el-el) + E(nuc-nuc)
    E(ZPE)  - the the zero temperature vibrational energy from the frequency calculation
    E(vib)  - the the finite temperature correction to E(ZPE) due to population
              of excietd vibrational states
    E(rot)  - is the rotational thermal energy
    E(trans)- is the translational thermal energy

Summary of contributions to the inner energy U:
Electronic energy                ...   -328.44711265 Eh
Zero point energy                ...      0.19722364 Eh     123.76 kcal/mol
Thermal vibrational correction   ...      0.00642622 Eh       4.03 kcal/mol
Thermal rotational correction    ...      0.00141627 Eh       0.89 kcal/mol
Thermal translational correction ...      0.00141627 Eh       0.89 kcal/mol
-----------------------------------------------------------------------
Total thermal energy                   -328.24063025 Eh

Summary of corrections to the electronic energy:
(perhaps to be used in another calculation)
Total thermal correction                  0.00925876 Eh       5.81 kcal/mol
Non-thermal (ZPE) correction              0.19722364 Eh     123.76 kcal/mol
-----------------------------------------------------------------------
Total correction                          0.20648240 Eh     129.57 kcal/mol

--------
ENTHALPY
--------

The enthalpy is H = U + kB*T
                kB is Boltzmann's constant
Total free energy                 ...   -328.24063025 Eh
Thermal Enthalpy correction       ...      0.00094421 Eh       0.59 kcal/mol
-----------------------------------------------------------------------
Total Enthalpy                    ...   -328.23968604 Eh

-------
ENTROPY
-------

The entropy contributions are T*S = T*(S(el)+S(vib)+S(rot)+S(trans)
     S(el)   - electronic entropy
     S(vib)  - vibrational entropy
     S(rot)  - rotational entropy
     S(trans)- translational entropy
The entropies will be listed as mutliplied by the temperature to get
units of energy

Electronic entropy                ...      0.00000000 Eh      0.00 kcal/mol
Vibrational entropy               ...      0.01101665 Eh      6.91 kcal/mol
Rotational entropy                ...      0.01216114 Eh      7.63 kcal/mol
Translational entropy             ...      0.01892914 Eh     11.88 kcal/mol
-----------------------------------------------------------------------
Final entropy term                ...      0.04210694 Eh     26.42 kcal/mol

CAUTION: The rotational entropy is not quite correctly treated here
         because it includes a symmetry number that is not yet correctly
         implemented in ORCA!
For a nonlinear molecule the correct rotational entropy is:
    S(rot) = R*(ln(qrot/sn)+1.5)
    R    = 8.31441 J/mol/K = 1.987191683e-3 kcal/mol/K
    qrot = 262684.8166903
    sn is the rotational symmetry number. We have assumed 3 here
       if it is different for your molecule then you should correct
       the printed rotational entropy by manually evaluating the equation
       as given above

For convenience we print out the resulting values for sn=1 - 12:
 sn= 1  qrot/sn=  262684.8167 T*S(rot)=     8.28 kcal/mol T*S(tot)=    27.07 kcal/mol
 sn= 2  qrot/sn=  131342.4083 T*S(rot)=     7.87 kcal/mol T*S(tot)=    26.66 kcal/mol
 sn= 3  qrot/sn=   87561.6056 T*S(rot)=     7.63 kcal/mol T*S(tot)=    26.42 kcal/mol
 sn= 4  qrot/sn=   65671.2042 T*S(rot)=     7.46 kcal/mol T*S(tot)=    26.25 kcal/mol
 sn= 5  qrot/sn=   52536.9633 T*S(rot)=     7.33 kcal/mol T*S(tot)=    26.12 kcal/mol
 sn= 6  qrot/sn=   43780.8028 T*S(rot)=     7.22 kcal/mol T*S(tot)=    26.01 kcal/mol
 sn= 7  qrot/sn=   37526.4024 T*S(rot)=     7.13 kcal/mol T*S(tot)=    25.92 kcal/mol
 sn= 8  qrot/sn=   32835.6021 T*S(rot)=     7.05 kcal/mol T*S(tot)=    25.84 kcal/mol
 sn= 9  qrot/sn=   29187.2019 T*S(rot)=     6.98 kcal/mol T*S(tot)=    25.77 kcal/mol
 sn=10  qrot/sn=   26268.4817 T*S(rot)=     6.92 kcal/mol T*S(tot)=    25.71 kcal/mol
 sn=11  qrot/sn=   23880.4379 T*S(rot)=     6.86 kcal/mol T*S(tot)=    25.65 kcal/mol
 sn=12  qrot/sn=   21890.4014 T*S(rot)=     6.81 kcal/mol T*S(tot)=    25.60 kcal/mol

-------------------
GIBBS FREE ENTHALPY
-------------------

The Gibbs free enthalpy is G = H - T*S

Total enthalpy                    ...   -328.23968604 Eh
Total entropy correction          ...     -0.04210694 Eh    -26.42 kcal/mol
-----------------------------------------------------------------------
Final Gibbs free enthalpy         ...   -328.28179298 Eh

For completeness - the Gibbs free enthalpy minus the electronic energy
G-E(el)                           ...      0.16531967 Eh    103.74 kcal/mol

                             ****ORCA TERMINATED NORMALLY****
TOTAL RUN TIME: 0 days 0 hours 54 minutes 37 seconds 961 msec
