                         Program Version 3.0.3 - RELEASE   -
|  1> ! NORI PBE0 def2-TZVP UseSym TightOPT Freq TightSCF Grid3 FinalGrid5 XYZFile
|  2> % pal
|  3>     nprocs 8
|  4> end
|  5> %method
|  6>     SymThresh 5.0e-2
|  7> end
|  8> % geom
|  9>     MaxIter 10
| 10> end
| 11> % maxcore 2000
| 12> % output
| 13>     printlevel mini
| 14>     print[ P_Basis ] 0
| 15>     print[ P_SCFInfo ] 1
| 16>     print[ P_SCFIterInfo ] 1
| 17>     print[ P_OrbEn ] 0
| 18>     print[ P_Cartesian ] 0
| 19> end
| 20> % elprop
| 21>     Dipole false
| 22> end
| 23> *xyz 1 1
| 24>  C        0.9440183292    -0.2712235945     0.0238814608
| 25>  C        2.4535725877    -0.1529998682    -0.0978722433
| 26>  C        2.9996975424     1.0593857825     0.6446334779
| 27>  C        4.5104093574     1.1668558854     0.5866388124
| 28>  O        5.0195709341     1.3940212249    -0.7187416700
| 29>  C        5.0087980352     2.3688519538     1.3682231188
| 30>  N        6.4554163961     2.5691220808     1.0242305238
| 31>  H        0.5741841017    -1.1399268227    -0.5220557520
| 32>  H        0.4434709303     0.6122347999    -0.3796933480
| 33>  H        0.6406819818    -0.3807335900     1.0676592184
| 34>  H        2.7159479463    -0.0903229668    -1.1609612193
| 35>  H        2.9283039977    -1.0614784432     0.2902425797
| 36>  H        2.6982526342     1.0026259222     1.6972007703
| 37>  H        2.5636771608     1.9777412588     0.2354071456
| 38>  H        4.9567012787     0.2500426265     1.0026474109
| 39>  H        4.7229437826     0.7043404349    -1.3201081750
| 40>  H        4.9104752647     2.2470056380     2.4455750551
| 41>  H        4.4864713929     3.2710696273     1.0480919862
| 42>  H        7.0584697491     1.8949325272     1.4971615574
| 43>  H        6.7897419979     3.5072054179     1.2429910258
| 44>  H        6.5217745992     2.3954901052     0.0082482646
| 45> *
| 46>
| 47>                          ****END OF INPUT****
 Total Charge           Charge          ....    1
 Multiplicity           Mult            ....    1
 Number of Electrons    NEL             ....   58
FINAL SINGLE POINT ENERGY      -328.444423522230
FINAL SINGLE POINT ENERGY      -328.444424393993

CARTESIAN COORDINATES (ANGSTROEM)
---------------------------------
  C     -2.733865   -0.102875   -1.995555
  C     -1.854887    0.406454   -0.865810
  C     -0.477918   -0.244867   -0.866594
  C      0.438333    0.290264    0.216103
  O      0.001460   -0.002651    1.534543
  C      1.809012   -0.359633    0.152492
  N      2.542651    0.001690    1.410578
  H     -3.715704    0.371349   -1.971101
  H     -2.884458   -1.182702   -1.924570
  H     -2.285957    0.109560   -2.969278
  H     -2.361161    0.211565    0.087644
  H     -1.743169    1.493682   -0.945714
  H      0.000279   -0.074501   -1.838314
  H     -0.575305   -1.329385   -0.743389
  H      0.545229    1.380041    0.096061
  H     -0.890644    0.328161    1.675273
  H      2.393671   -0.038208   -0.707435
  H      1.713447   -1.445888    0.150511
  H      2.892412    0.960575    1.387563
  H      3.325946   -0.620697    1.607233
  H      1.839928   -0.061169    2.164760

FINAL SINGLE POINT ENERGY      -328.444424673436
                    ***********************HURRAY********************
 Multiplicity           Mult            ....    1
 Number of Electrons    NEL             ....   58
 Basis Dimension        Dim             ....  301
FINAL SINGLE POINT ENERGY      -328.444424748914

VIBRATIONAL FREQUENCIES
-----------------------

   0:         0.00 cm**-1
   1:         0.00 cm**-1
   2:         0.00 cm**-1
   3:         0.00 cm**-1
   4:         0.00 cm**-1
   5:         0.00 cm**-1
   6:        79.36 cm**-1
   7:        89.02 cm**-1
   8:       124.67 cm**-1
   9:       169.84 cm**-1
  10:       223.61 cm**-1
  11:       247.51 cm**-1
  12:       291.21 cm**-1
  13:       309.42 cm**-1
  14:       329.34 cm**-1
  15:       391.67 cm**-1
  16:       488.98 cm**-1
  17:       557.46 cm**-1
  18:       745.09 cm**-1
  19:       843.57 cm**-1
  20:       861.51 cm**-1
  21:       907.17 cm**-1
  22:       929.54 cm**-1
  23:       961.95 cm**-1
  24:      1004.91 cm**-1
  25:      1051.74 cm**-1
  26:      1071.32 cm**-1
  27:      1079.93 cm**-1
  28:      1116.15 cm**-1
  29:      1174.81 cm**-1
  30:      1187.27 cm**-1
  31:      1260.55 cm**-1
  32:      1271.74 cm**-1
  33:      1295.65 cm**-1
  34:      1333.24 cm**-1
  35:      1344.08 cm**-1
  36:      1363.18 cm**-1
  37:      1388.34 cm**-1
  38:      1405.61 cm**-1
  39:      1415.61 cm**-1
  40:      1438.16 cm**-1
  41:      1463.33 cm**-1
  42:      1481.43 cm**-1
  43:      1482.35 cm**-1
  44:      1487.82 cm**-1
  45:      1492.89 cm**-1
  46:      1498.77 cm**-1
  47:      1640.34 cm**-1
  48:      1669.64 cm**-1
  49:      2991.19 cm**-1
  50:      3025.03 cm**-1
  51:      3041.30 cm**-1
  52:      3056.56 cm**-1
  53:      3061.93 cm**-1
  54:      3092.20 cm**-1
  55:      3110.87 cm**-1
  56:      3129.01 cm**-1
  57:      3143.88 cm**-1
  58:      3181.09 cm**-1
  59:      3311.20 cm**-1
  60:      3478.43 cm**-1
  61:      3533.29 cm**-1
  62:      3857.54 cm**-1

IR SPECTRUM
-----------

 Mode    freq (cm**-1)   T**2         TX         TY         TZ
-------------------------------------------------------------------
   6:        79.36    1.578124  ( -0.459696  -0.942870   0.691231)
   7:        89.02    4.041334  (  0.567897   1.855051  -0.526891)
   8:       124.67    3.342114  (  0.348222  -1.775754  -0.259907)
   9:       169.84   10.791262  (  2.616291   1.949801  -0.380207)
  10:       223.61   21.239643  ( -0.542246   4.110141   2.013047)
  11:       247.51    0.205508  (  0.382208  -0.141887  -0.198225)
  12:       291.21   91.249539  (  5.445986   6.722250   4.049955)
  13:       309.42   26.853376  ( -2.074244   4.360885   1.879778)
  14:       329.34    4.774188  (  1.484417   0.080369  -1.601322)
  15:       391.67   33.201625  ( -5.419324  -1.041588  -1.657601)
  16:       488.98    6.756102  (  0.670036  -0.829846  -2.370339)
  17:       557.46    6.580362  (  0.377797   0.820490  -2.400922)
  18:       745.09    3.642309  ( -0.556935  -1.600189   0.878367)
  19:       843.57   11.538494  ( -2.465111  -1.155053  -2.031644)
  20:       861.51    4.588872  ( -0.640724  -0.869650   1.849879)
  21:       907.17   10.443873  (  2.791352  -0.728399  -1.456593)
  22:       929.54    3.913357  ( -0.650514   1.857281   0.201731)
  23:       961.95   19.189271  (  4.015165   1.336296  -1.132269)
  24:      1004.91   38.210409  (  1.466731   0.196140  -6.001720)
  25:      1051.74   65.271996  ( -4.558160  -0.897062   6.609875)
  26:      1071.32    4.972262  (  0.025859  -1.673854   1.473027)
  27:      1079.93   29.471637  (  4.850054  -2.204113   1.044269)
  28:      1116.15    3.413355  ( -1.766530   0.320685  -0.435762)
  29:      1174.81    6.831131  (  0.286549   1.243422  -2.280992)
  30:      1187.27   31.112149  (  1.509918  -1.461031   5.166980)
  31:      1260.55   36.023548  (  1.172632  -0.598902   5.855749)
  32:      1271.74    8.155821  ( -0.243465  -0.195533   2.838717)
  33:      1295.65    1.916915  (  0.672772  -0.534667   1.085553)
  34:      1333.24    9.634530  ( -1.354544  -1.443653   2.390733)
  35:      1344.08    5.529151  (  1.693228   0.835682  -1.401344)
  36:      1363.18    1.182828  (  0.410317  -0.692650   0.731234)
  37:      1388.34    9.948684  (  0.664405  -0.555978  -3.032843)
  38:      1405.61    6.464765  (  0.837308   0.540207   2.339200)
  39:      1415.61    1.606237  (  0.474432   0.565273   1.030348)
  40:      1438.16    3.681991  ( -0.009301  -1.883375  -0.367156)
  41:      1463.33    3.428057  (  1.546665  -0.098788   1.012979)
  42:      1481.43   33.645561  (  2.690984   0.627905   5.099990)
  43:      1482.35  177.196647  ( -7.948370  -1.197090 -10.610704)
  44:      1487.82   17.081888  ( -3.527469   1.980929  -0.845440)
  45:      1492.89   12.708793  (  1.303105   2.744741  -1.864700)
  46:      1498.77   15.396796  (  1.123016  -2.284427  -2.986139)
  47:      1640.34   36.057654  (  2.698607   4.940486  -2.089683)
  48:      1669.64   35.966640  ( -4.750995   3.520026   1.002050)
  49:      2991.19   22.944364  (  1.743315   4.292059  -1.217968)
  50:      3025.03   18.068344  (  0.016645  -1.748079  -3.874569)
  51:      3041.30   18.049167  (  2.212611  -2.670055  -2.454451)
  52:      3056.56   16.336674  (  1.277870   1.766524   3.403398)
  53:      3061.93    4.161557  ( -0.435827  -1.929072   0.500294)
  54:      3092.20   17.653915  ( -1.224870  -3.336699   2.240546)
  55:      3110.87    0.875653  (  0.344833  -0.785092  -0.374664)
  56:      3129.01   23.998284  ( -1.646447  -3.582276   2.907713)
  57:      3143.88   11.930509  ( -2.710479   1.981638   0.810507)
  58:      3181.09    0.264594  (  0.234188   0.310728  -0.336450)
  59:      3311.20  118.473816  ( -8.704372  -0.044005   6.534967)
  60:      3478.43  113.608960  ( 10.216112   3.009341   0.428808)
  61:      3533.29  102.083252  (  4.473605  -8.934030   1.501069)
  62:      3857.54   92.525461  ( -8.918879   2.317152   2.758600)

--------------------------
THERMOCHEMISTRY AT 298.15K
--------------------------

Temperature         ... 298.15 K
Pressure            ... 1.00 atm
Total Mass          ... 104.17 AMU

Throughout the following assumptions are being made:
  (1) The electronic state is orbitally nondegenerate
  (2) There are no thermally accessible electronically excited states
  (3) Hindered rotations indicated by low frequency modes) are not
      treated as such but are treated as vibrations and this may
      case some error
  (4) All equations used are the standard statistical mechanics
      equations for an ideal gas
  (5) All vibrations are strinctly harmonic

------------
INNER ENERGY
------------

The inner energy is: U= E(el) + E(ZPE) + E(vib) + E(rot) + E(trans)
    E(el)   - is the total energy from the electronic structure calculation
              = E(kin-el) + E(nuc-el) + E(el-el) + E(nuc-nuc)
    E(ZPE)  - the the zero temperature vibrational energy from the frequency calculation
    E(vib)  - the the finite temperature correction to E(ZPE) due to population
              of excietd vibrational states
    E(rot)  - is the rotational thermal energy
    E(trans)- is the translational thermal energy

Summary of contributions to the inner energy U:
Electronic energy                ...   -328.44442475 Eh
Zero point energy                ...      0.19816255 Eh     124.35 kcal/mol
Thermal vibrational correction   ...      0.00648217 Eh       4.07 kcal/mol
Thermal rotational correction    ...      0.00141627 Eh       0.89 kcal/mol
Thermal translational correction ...      0.00141627 Eh       0.89 kcal/mol
-----------------------------------------------------------------------
Total thermal energy                   -328.23694749 Eh

Summary of corrections to the electronic energy:
(perhaps to be used in another calculation)
Total thermal correction                  0.00931471 Eh       5.85 kcal/mol
Non-thermal (ZPE) correction              0.19816255 Eh     124.35 kcal/mol
-----------------------------------------------------------------------
Total correction                          0.20747726 Eh     130.19 kcal/mol

--------
ENTHALPY
--------

The enthalpy is H = U + kB*T
                kB is Boltzmann's constant
Total free energy                 ...   -328.23694749 Eh
Thermal Enthalpy correction       ...      0.00094421 Eh       0.59 kcal/mol
-----------------------------------------------------------------------
Total Enthalpy                    ...   -328.23600328 Eh

-------
ENTROPY
-------

The entropy contributions are T*S = T*(S(el)+S(vib)+S(rot)+S(trans)
     S(el)   - electronic entropy
     S(vib)  - vibrational entropy
     S(rot)  - rotational entropy
     S(trans)- translational entropy
The entropies will be listed as mutliplied by the temperature to get
units of energy

Electronic entropy                ...      0.00000000 Eh      0.00 kcal/mol
Vibrational entropy               ...      0.01176708 Eh      7.38 kcal/mol
Rotational entropy                ...      0.01231982 Eh      7.73 kcal/mol
Translational entropy             ...      0.01892914 Eh     11.88 kcal/mol
-----------------------------------------------------------------------
Final entropy term                ...      0.04301604 Eh     26.99 kcal/mol

CAUTION: The rotational entropy is not quite correctly treated here
         because it includes a symmetry number that is not yet correctly
         implemented in ORCA!
For a nonlinear molecule the correct rotational entropy is:
    S(rot) = R*(ln(qrot/sn)+1.5)
    R    = 8.31441 J/mol/K = 1.987191683e-3 kcal/mol/K
    qrot = 310758.7833123
    sn is the rotational symmetry number. We have assumed 3 here
       if it is different for your molecule then you should correct
       the printed rotational entropy by manually evaluating the equation
       as given above

For convenience we print out the resulting values for sn=1 - 12:
 sn= 1  qrot/sn=  310758.7833 T*S(rot)=     8.38 kcal/mol T*S(tot)=    27.64 kcal/mol
 sn= 2  qrot/sn=  155379.3917 T*S(rot)=     7.97 kcal/mol T*S(tot)=    27.23 kcal/mol
 sn= 3  qrot/sn=  103586.2611 T*S(rot)=     7.73 kcal/mol T*S(tot)=    26.99 kcal/mol
 sn= 4  qrot/sn=   77689.6958 T*S(rot)=     7.56 kcal/mol T*S(tot)=    26.82 kcal/mol
 sn= 5  qrot/sn=   62151.7567 T*S(rot)=     7.43 kcal/mol T*S(tot)=    26.69 kcal/mol
 sn= 6  qrot/sn=   51793.1306 T*S(rot)=     7.32 kcal/mol T*S(tot)=    26.58 kcal/mol
 sn= 7  qrot/sn=   44394.1119 T*S(rot)=     7.23 kcal/mol T*S(tot)=    26.49 kcal/mol
 sn= 8  qrot/sn=   38844.8479 T*S(rot)=     7.15 kcal/mol T*S(tot)=    26.41 kcal/mol
 sn= 9  qrot/sn=   34528.7537 T*S(rot)=     7.08 kcal/mol T*S(tot)=    26.34 kcal/mol
 sn=10  qrot/sn=   31075.8783 T*S(rot)=     7.02 kcal/mol T*S(tot)=    26.28 kcal/mol
 sn=11  qrot/sn=   28250.7985 T*S(rot)=     6.96 kcal/mol T*S(tot)=    26.22 kcal/mol
 sn=12  qrot/sn=   25896.5653 T*S(rot)=     6.91 kcal/mol T*S(tot)=    26.17 kcal/mol

-------------------
GIBBS FREE ENTHALPY
-------------------

The Gibbs free enthalpy is G = H - T*S

Total enthalpy                    ...   -328.23600328 Eh
Total entropy correction          ...     -0.04301604 Eh    -26.99 kcal/mol
-----------------------------------------------------------------------
Final Gibbs free enthalpy         ...   -328.27901932 Eh

For completeness - the Gibbs free enthalpy minus the electronic energy
G-E(el)                           ...      0.16540543 Eh    103.79 kcal/mol

                             ****ORCA TERMINATED NORMALLY****
TOTAL RUN TIME: 0 days 0 hours 45 minutes 52 seconds 396 msec
