                         Program Version 3.0.3 - RELEASE   -
|  1> ! NORI PBE0 def2-TZVP UseSym TightOPT Freq TightSCF Grid3 FinalGrid5 XYZFile
|  2> % pal
|  3>     nprocs 8
|  4> end
|  5> %method
|  6>     SymThresh 5.0e-2
|  7> end
|  8> % geom
|  9>     MaxIter 10
| 10> end
| 11> % maxcore 2000
| 12> % output
| 13>     printlevel mini
| 14>     print[ P_Basis ] 0
| 15>     print[ P_SCFInfo ] 1
| 16>     print[ P_SCFIterInfo ] 1
| 17>     print[ P_OrbEn ] 0
| 18>     print[ P_Cartesian ] 0
| 19> end
| 20> % elprop
| 21>     Dipole false
| 22> end
| 23> *xyz 1 1
| 24>  C        1.0816031940     0.3579804340     0.0445403442
| 25>  C        2.5643570821     0.1454437326    -0.2268619937
| 26>  C        3.0108205581    -1.2798050776     0.0307304275
| 27>  C        2.3498797178    -2.3211864445    -0.8575596175
| 28>  O        3.0796135122    -3.5134236995    -0.6586836801
| 29>  N        4.4985218293    -1.4312632966    -0.1852900510
| 30>  C        5.3657851639    -0.9879251815     0.9325128648
| 31>  H        0.8296247519     1.4120594536    -0.0716340952
| 32>  H        0.8170767088     0.0660943916     1.0636106393
| 33>  H        0.4515690708    -0.2038723231    -0.6466173430
| 34>  H        2.7918119066     0.4102015808    -1.2669166197
| 35>  H        3.1420309089     0.8243634081     0.4065466963
| 36>  H        2.8511436639    -1.5600800151     1.0757437293
| 37>  H        1.3044482302    -2.4278020362    -0.5575936942
| 38>  H        2.3770800325    -2.0029716802    -1.9093268720
| 39>  H        2.7022221923    -4.2386631616    -1.1640914403
| 40>  H        4.7582866058    -0.9385473468    -1.0418198808
| 41>  H        4.6313060691    -2.4377263850    -0.3672329581
| 42>  H        5.1890571690     0.0655606840     1.1351927855
| 43>  H        6.4075587259    -1.1403408865     0.6540401403
| 44>  H        5.1281829071    -1.5836161507     1.8113106185
| 45> *
| 46>
| 47>                          ****END OF INPUT****
 Total Charge           Charge          ....    1
 Multiplicity           Mult            ....    1
 Number of Electrons    NEL             ....   58
FINAL SINGLE POINT ENERGY      -328.441367896716
FINAL SINGLE POINT ENERGY      -328.441370471139
FINAL SINGLE POINT ENERGY      -328.441371592207

CARTESIAN COORDINATES (ANGSTROEM)
---------------------------------
  C     -2.122536   -0.231891   -1.624086
  C     -0.630807   -0.434791   -1.399422
  C     -0.148969    0.152794   -0.087571
  C     -0.760290   -0.481587    1.151438
  O      0.000547   -0.006256    2.241703
  N      1.346734    0.002309    0.059348
  C      2.172355    0.998985   -0.664339
  H     -2.402392   -0.596932   -2.612209
  H     -2.392509    0.825448   -1.573790
  H     -2.726034   -0.774173   -0.894600
  H     -0.394499   -1.505976   -1.421731
  H     -0.081804    0.028409   -2.224709
  H     -0.325516    1.231584   -0.051573
  H     -1.808017   -0.178716    1.221597
  H     -0.721034   -1.577299    1.081106
  H     -0.342560   -0.340668    3.075007
  H      1.611545   -0.941382   -0.228520
  H      1.514671    0.063521    1.075038
  H      1.957867    0.945047   -1.728984
  H      3.224584    0.781972   -0.488350
  H      1.930892    1.989223   -0.283470

FINAL SINGLE POINT ENERGY      -328.441371908651
                    ***********************HURRAY********************
 Multiplicity           Mult            ....    1
 Number of Electrons    NEL             ....   58
 Basis Dimension        Dim             ....  301
FINAL SINGLE POINT ENERGY      -328.441372048388

VIBRATIONAL FREQUENCIES
-----------------------

   0:         0.00 cm**-1
   1:         0.00 cm**-1
   2:         0.00 cm**-1
   3:         0.00 cm**-1
   4:         0.00 cm**-1
   5:         0.00 cm**-1
   6:        79.70 cm**-1
   7:        94.93 cm**-1
   8:       140.76 cm**-1
   9:       192.54 cm**-1
  10:       216.71 cm**-1
  11:       229.29 cm**-1
  12:       281.24 cm**-1
  13:       298.38 cm**-1
  14:       320.83 cm**-1
  15:       434.16 cm**-1
  16:       468.97 cm**-1
  17:       529.58 cm**-1
  18:       771.83 cm**-1
  19:       807.03 cm**-1
  20:       865.77 cm**-1
  21:       939.92 cm**-1
  22:       980.80 cm**-1
  23:      1021.58 cm**-1
  24:      1045.34 cm**-1
  25:      1075.75 cm**-1
  26:      1086.74 cm**-1
  27:      1110.55 cm**-1
  28:      1128.74 cm**-1
  29:      1190.11 cm**-1
  30:      1213.69 cm**-1
  31:      1235.41 cm**-1
  32:      1264.83 cm**-1
  33:      1306.49 cm**-1
  34:      1335.37 cm**-1
  35:      1356.43 cm**-1
  36:      1381.60 cm**-1
  37:      1411.01 cm**-1
  38:      1427.78 cm**-1
  39:      1431.64 cm**-1
  40:      1449.38 cm**-1
  41:      1460.62 cm**-1
  42:      1481.35 cm**-1
  43:      1493.38 cm**-1
  44:      1495.15 cm**-1
  45:      1498.42 cm**-1
  46:      1503.78 cm**-1
  47:      1516.61 cm**-1
  48:      1653.44 cm**-1
  49:      3019.79 cm**-1
  50:      3035.93 cm**-1
  51:      3065.31 cm**-1
  52:      3083.23 cm**-1
  53:      3093.21 cm**-1
  54:      3096.17 cm**-1
  55:      3107.80 cm**-1
  56:      3141.15 cm**-1
  57:      3154.16 cm**-1
  58:      3190.04 cm**-1
  59:      3199.32 cm**-1
  60:      3315.71 cm**-1
  61:      3471.11 cm**-1
  62:      3869.34 cm**-1

IR SPECTRUM
-----------

 Mode    freq (cm**-1)   T**2         TX         TY         TZ
-------------------------------------------------------------------
   6:        79.70    0.313512  ( -0.056820   0.547947  -0.100193)
   7:        94.93    0.563863  ( -0.721692  -0.184210  -0.095348)
   8:       140.76    8.499695  (  1.764647  -2.227602  -0.650773)
   9:       192.54    1.088549  (  0.149847  -0.164242  -1.019372)
  10:       216.71    4.837201  ( -0.677013  -1.549994   1.405836)
  11:       229.29    5.386451  (  1.291877  -1.889355  -0.384504)
  12:       281.24   12.913555  (  1.996770  -2.908628   0.682898)
  13:       298.38  107.796709  (  5.760042  -7.871545  -3.557725)
  14:       320.83   26.105422  ( -0.675469   3.788348  -3.361187)
  15:       434.16    2.350944  (  1.516736  -0.149141   0.167963)
  16:       468.97    1.447585  (  0.895016   0.636199  -0.491712)
  17:       529.58   14.304333  ( -2.466021  -0.150276  -2.863650)
  18:       771.83    3.765153  ( -0.805781  -1.263791   1.232357)
  19:       807.03    6.498216  (  1.306978  -0.326156   2.164174)
  20:       865.77   13.716605  (  0.031760  -1.966265  -3.138375)
  21:       939.92   13.770796  (  1.729393   1.338448   2.998092)
  22:       980.80    0.645768  ( -0.607076   0.255765  -0.460230)
  23:      1021.58   26.503205  ( -4.159037  -1.299955  -2.741484)
  24:      1045.34    9.074447  ( -1.912959  -2.000108   1.189371)
  25:      1075.75   12.427611  (  3.018652   0.642818   1.703566)
  26:      1086.74   27.029774  (  4.391915   1.505461   2.339752)
  27:      1110.55   63.572040  (  1.490763   2.066001   7.555217)
  28:      1128.74    1.052179  ( -0.385809  -0.367177  -0.876648)
  29:      1190.11    7.692688  (  2.711402   0.363250   0.457204)
  30:      1213.69    7.239077  ( -0.172468  -0.416493  -2.652521)
  31:      1235.41   27.282962  ( -3.006737  -2.736244  -3.279553)
  32:      1264.83    1.144547  (  1.038879  -0.184383   0.176859)
  33:      1306.49    6.232321  (  0.584768   1.519245   1.892687)
  34:      1335.37   11.734262  (  2.704366   1.468504  -1.504714)
  35:      1356.43   11.251147  ( -1.944044   0.587226   2.669645)
  36:      1381.60    3.893647  ( -1.390875  -0.882940   1.086062)
  37:      1411.01   10.009376  ( -2.813744   0.351838   1.403008)
  38:      1427.78    7.549054  (  2.624631  -0.163979   0.795913)
  39:      1431.64   82.075897  (  8.442574   1.534471  -2.905896)
  40:      1449.38    0.876368  (  0.201957  -0.692173  -0.597058)
  41:      1460.62   12.730463  (  2.614837   1.892085  -1.520888)
  42:      1481.35    2.209678  ( -0.718202   0.066417  -1.299789)
  43:      1493.38   12.596111  (  1.996755   2.932731  -0.090397)
  44:      1495.15   24.509386  (  3.628750  -0.571892   3.318810)
  45:      1498.42   11.749869  ( -3.156614  -0.503592   1.237762)
  46:      1503.78   28.354712  (  2.731475  -3.451972  -2.996273)
  47:      1516.61    3.184616  (  0.239559   1.373407  -1.113993)
  48:      1653.44   46.003769  (  3.263940  -4.510702   3.873504)
  49:      3019.79   20.398301  ( -1.599717  -3.751158  -1.941140)
  50:      3035.93   12.998538  (  2.858936  -2.104106  -0.630684)
  51:      3065.31    7.527921  (  2.513040  -0.895450  -0.640874)
  52:      3083.23    3.201435  (  0.863531   0.253128  -1.546504)
  53:      3093.21    2.414927  (  1.038903   0.999824   0.579619)
  54:      3096.17    4.310802  ( -1.656983  -1.073349   0.642755)
  55:      3107.80    8.873678  ( -1.498933   2.350591  -1.049572)
  56:      3141.15   12.944936  ( -1.060592  -3.234939   1.164151)
  57:      3154.16    5.513562  (  0.519610  -0.199347  -2.281190)
  58:      3190.04    0.106449  ( -0.008468  -0.169856  -0.278435)
  59:      3199.32    0.850901  ( -0.276024  -0.202774   0.856501)
  60:      3315.71  164.654212  ( -1.537824  -1.562352  12.643115)
  61:      3471.11   52.696964  ( -2.473416   5.504915   4.034240)
  62:      3869.34  135.862235  ( -2.172771  -2.388654  11.199805)

--------------------------
THERMOCHEMISTRY AT 298.15K
--------------------------

Temperature         ... 298.15 K
Pressure            ... 1.00 atm
Total Mass          ... 104.17 AMU

Throughout the following assumptions are being made:
  (1) The electronic state is orbitally nondegenerate
  (2) There are no thermally accessible electronically excited states
  (3) Hindered rotations indicated by low frequency modes) are not
      treated as such but are treated as vibrations and this may
      case some error
  (4) All equations used are the standard statistical mechanics
      equations for an ideal gas
  (5) All vibrations are strinctly harmonic

------------
INNER ENERGY
------------

The inner energy is: U= E(el) + E(ZPE) + E(vib) + E(rot) + E(trans)
    E(el)   - is the total energy from the electronic structure calculation
              = E(kin-el) + E(nuc-el) + E(el-el) + E(nuc-nuc)
    E(ZPE)  - the the zero temperature vibrational energy from the frequency calculation
    E(vib)  - the the finite temperature correction to E(ZPE) due to population
              of excietd vibrational states
    E(rot)  - is the rotational thermal energy
    E(trans)- is the translational thermal energy

Summary of contributions to the inner energy U:
Electronic energy                ...   -328.44137205 Eh
Zero point energy                ...      0.19835979 Eh     124.47 kcal/mol
Thermal vibrational correction   ...      0.00643033 Eh       4.04 kcal/mol
Thermal rotational correction    ...      0.00141627 Eh       0.89 kcal/mol
Thermal translational correction ...      0.00141627 Eh       0.89 kcal/mol
-----------------------------------------------------------------------
Total thermal energy                   -328.23374939 Eh

Summary of corrections to the electronic energy:
(perhaps to be used in another calculation)
Total thermal correction                  0.00926287 Eh       5.81 kcal/mol
Non-thermal (ZPE) correction              0.19835979 Eh     124.47 kcal/mol
-----------------------------------------------------------------------
Total correction                          0.20762266 Eh     130.28 kcal/mol

--------
ENTHALPY
--------

The enthalpy is H = U + kB*T
                kB is Boltzmann's constant
Total free energy                 ...   -328.23374939 Eh
Thermal Enthalpy correction       ...      0.00094421 Eh       0.59 kcal/mol
-----------------------------------------------------------------------
Total Enthalpy                    ...   -328.23280518 Eh

-------
ENTROPY
-------

The entropy contributions are T*S = T*(S(el)+S(vib)+S(rot)+S(trans)
     S(el)   - electronic entropy
     S(vib)  - vibrational entropy
     S(rot)  - rotational entropy
     S(trans)- translational entropy
The entropies will be listed as mutliplied by the temperature to get
units of energy

Electronic entropy                ...      0.00000000 Eh      0.00 kcal/mol
Vibrational entropy               ...      0.01158191 Eh      7.27 kcal/mol
Rotational entropy                ...      0.01237617 Eh      7.77 kcal/mol
Translational entropy             ...      0.01892914 Eh     11.88 kcal/mol
-----------------------------------------------------------------------
Final entropy term                ...      0.04288722 Eh     26.91 kcal/mol

CAUTION: The rotational entropy is not quite correctly treated here
         because it includes a symmetry number that is not yet correctly
         implemented in ORCA!
For a nonlinear molecule the correct rotational entropy is:
    S(rot) = R*(ln(qrot/sn)+1.5)
    R    = 8.31441 J/mol/K = 1.987191683e-3 kcal/mol/K
    qrot = 329868.4496321
    sn is the rotational symmetry number. We have assumed 3 here
       if it is different for your molecule then you should correct
       the printed rotational entropy by manually evaluating the equation
       as given above

For convenience we print out the resulting values for sn=1 - 12:
 sn= 1  qrot/sn=  329868.4496 T*S(rot)=     8.42 kcal/mol T*S(tot)=    27.56 kcal/mol
 sn= 2  qrot/sn=  164934.2248 T*S(rot)=     8.01 kcal/mol T*S(tot)=    27.15 kcal/mol
 sn= 3  qrot/sn=  109956.1499 T*S(rot)=     7.77 kcal/mol T*S(tot)=    26.91 kcal/mol
 sn= 4  qrot/sn=   82467.1124 T*S(rot)=     7.60 kcal/mol T*S(tot)=    26.74 kcal/mol
 sn= 5  qrot/sn=   65973.6899 T*S(rot)=     7.46 kcal/mol T*S(tot)=    26.61 kcal/mol
 sn= 6  qrot/sn=   54978.0749 T*S(rot)=     7.36 kcal/mol T*S(tot)=    26.50 kcal/mol
 sn= 7  qrot/sn=   47124.0642 T*S(rot)=     7.26 kcal/mol T*S(tot)=    26.41 kcal/mol
 sn= 8  qrot/sn=   41233.5562 T*S(rot)=     7.19 kcal/mol T*S(tot)=    26.33 kcal/mol
 sn= 9  qrot/sn=   36652.0500 T*S(rot)=     7.12 kcal/mol T*S(tot)=    26.26 kcal/mol
 sn=10  qrot/sn=   32986.8450 T*S(rot)=     7.05 kcal/mol T*S(tot)=    26.20 kcal/mol
 sn=11  qrot/sn=   29988.0409 T*S(rot)=     7.00 kcal/mol T*S(tot)=    26.14 kcal/mol
 sn=12  qrot/sn=   27489.0375 T*S(rot)=     6.94 kcal/mol T*S(tot)=    26.09 kcal/mol

-------------------
GIBBS FREE ENTHALPY
-------------------

The Gibbs free enthalpy is G = H - T*S

Total enthalpy                    ...   -328.23280518 Eh
Total entropy correction          ...     -0.04288722 Eh    -26.91 kcal/mol
-----------------------------------------------------------------------
Final Gibbs free enthalpy         ...   -328.27569241 Eh

For completeness - the Gibbs free enthalpy minus the electronic energy
G-E(el)                           ...      0.16567964 Eh    103.97 kcal/mol

                             ****ORCA TERMINATED NORMALLY****
TOTAL RUN TIME: 0 days 0 hours 51 minutes 43 seconds 972 msec
