                         Program Version 3.0.3 - RELEASE   -
|  1> ! NORI PBE0 def2-TZVP UseSym TightOPT Freq TightSCF Grid3 FinalGrid5 XYZFile
|  2> % pal
|  3>     nprocs 8
|  4> end
|  5> %method
|  6>     SymThresh 5.0e-2
|  7> end
|  8> % geom
|  9>     MaxIter 10
| 10> end
| 11> % maxcore 2000
| 12> % output
| 13>     printlevel mini
| 14>     print[ P_Basis ] 0
| 15>     print[ P_SCFInfo ] 1
| 16>     print[ P_SCFIterInfo ] 1
| 17>     print[ P_OrbEn ] 0
| 18>     print[ P_Cartesian ] 0
| 19> end
| 20> % elprop
| 21>     Dipole false
| 22> end
| 23> *xyz 1 1
| 24>  C        1.1532570189    -0.0250309465    -0.1434893343
| 25>  C        2.6503518786    -0.2543976559    -0.0117871562
| 26>  C        2.9881485999    -1.6326590337     0.5169588146
| 27>  N        3.2471205619    -0.0769910756    -1.3976625138
| 28>  C        3.2651180583     0.8587482453     0.8263026174
| 29>  C        4.6564054213     1.2803935964     0.7373116553
| 30>  O        3.6140668059     2.0202408510     0.0899083701
| 31>  H        0.6903358254    -0.7820912469    -0.7819865249
| 32>  H        0.9303923903     0.9680733458    -0.5415138356
| 33>  H        0.6877192283    -0.0989535965     0.8397226989
| 34>  H        2.5299525433    -2.4165697434    -0.0896930913
| 35>  H        2.5975497558    -1.7352342190     1.5303700873
| 36>  H        4.0672873907    -1.7977202511     0.5634007501
| 37>  H        2.6000516102    -0.3759972599    -2.1263237918
| 38>  H        4.1199953416    -0.5912529177    -1.5130938729
| 39>  H        3.4386789418     0.9387485093    -1.4879989917
| 40>  H        2.7258336332     1.0463296981     1.7517070396
| 41>  H        5.1121003728     1.7827097925     1.5835985786
| 42>  H        5.3587846220     0.7833539077     0.0714085006
| 43> *
| 44>
| 45>                          ****END OF INPUT****
 Total Charge           Charge          ....    1
 Multiplicity           Mult            ....    1
 Number of Electrons    NEL             ....   56
FINAL SINGLE POINT ENERGY      -327.200229308172
FINAL SINGLE POINT ENERGY      -327.200231026049

CARTESIAN COORDINATES (ANGSTROEM)
---------------------------------
  C     -0.154843    1.749120   -0.895736
  C     -0.004223    0.253454   -0.668263
  C     -0.418142   -0.568932   -1.870652
  N      1.461154    0.000809   -0.355900
  C     -0.751167   -0.149508    0.596448
  C     -0.422079   -1.315520    1.405026
  O     -0.001580   -0.001721    1.791891
  H      0.411668    2.076714   -1.771267
  H      0.164947    2.324496   -0.023270
  H     -1.203812    1.982719   -1.080072
  H      0.118539   -0.260092   -2.770706
  H     -1.482655   -0.420743   -2.058822
  H     -0.259969   -1.637814   -1.706255
  H      2.068413    0.651683   -0.852752
  H      1.750267   -0.949018   -0.589588
  H      1.553673    0.139978    0.668031
  H     -1.765213    0.240544    0.638609
  H     -1.185909   -1.753399    2.038546
  H      0.376909   -1.996238    1.118682

FINAL SINGLE POINT ENERGY      -327.200231616040
                    ***********************HURRAY********************
 Multiplicity           Mult            ....    1
 Number of Electrons    NEL             ....   56
 Basis Dimension        Dim             ....  289
FINAL SINGLE POINT ENERGY      -327.200231691365

VIBRATIONAL FREQUENCIES
-----------------------

   0:         0.00 cm**-1
   1:         0.00 cm**-1
   2:         0.00 cm**-1
   3:         0.00 cm**-1
   4:         0.00 cm**-1
   5:         0.00 cm**-1
   6:        97.84 cm**-1
   7:       221.57 cm**-1
   8:       234.19 cm**-1
   9:       257.80 cm**-1
  10:       269.12 cm**-1
  11:       304.78 cm**-1
  12:       326.22 cm**-1
  13:       372.67 cm**-1
  14:       394.30 cm**-1
  15:       496.48 cm**-1
  16:       552.76 cm**-1
  17:       706.85 cm**-1
  18:       830.19 cm**-1
  19:       897.87 cm**-1
  20:       928.72 cm**-1
  21:       956.24 cm**-1
  22:       960.23 cm**-1
  23:       969.55 cm**-1
  24:      1004.23 cm**-1
  25:      1038.44 cm**-1
  26:      1071.39 cm**-1
  27:      1110.94 cm**-1
  28:      1170.13 cm**-1
  29:      1176.58 cm**-1
  30:      1201.04 cm**-1
  31:      1286.84 cm**-1
  32:      1296.81 cm**-1
  33:      1311.02 cm**-1
  34:      1411.52 cm**-1
  35:      1422.19 cm**-1
  36:      1433.93 cm**-1
  37:      1461.76 cm**-1
  38:      1468.67 cm**-1
  39:      1479.74 cm**-1
  40:      1494.94 cm**-1
  41:      1502.88 cm**-1
  42:      1541.43 cm**-1
  43:      1635.36 cm**-1
  44:      1670.15 cm**-1
  45:      3055.04 cm**-1
  46:      3057.73 cm**-1
  47:      3117.95 cm**-1
  48:      3133.73 cm**-1
  49:      3136.23 cm**-1
  50:      3148.50 cm**-1
  51:      3154.69 cm**-1
  52:      3163.40 cm**-1
  53:      3220.40 cm**-1
  54:      3230.84 cm**-1
  55:      3480.27 cm**-1
  56:      3537.24 cm**-1

IR SPECTRUM
-----------

 Mode    freq (cm**-1)   T**2         TX         TY         TZ
-------------------------------------------------------------------
   6:        97.84    6.570740  (  1.480913  -2.026752  -0.519530)
   7:       221.57    3.136868  ( -1.385559  -0.403665   1.026717)
   8:       234.19    2.020620  (  1.229491   0.047611  -0.711833)
   9:       257.80   17.388000  ( -2.627577  -1.059596   3.059591)
  10:       269.12    0.394870  (  0.590837   0.127186   0.172063)
  11:       304.78   15.110362  (  2.714524   0.898266  -2.633408)
  12:       326.22    8.133285  (  2.097886   0.554716  -1.850527)
  13:       372.67   13.710389  (  1.013455  -1.225383  -3.343910)
  14:       394.30    4.721612  ( -1.222754   1.367730  -1.164388)
  15:       496.48    6.229760  (  0.855309   0.821835  -2.196086)
  16:       552.76    1.835998  ( -0.678018  -0.227274  -1.150928)
  17:       706.85    3.944225  ( -1.204891  -1.318946  -0.867666)
  18:       830.19   10.973036  (  1.289996   1.513561   2.649166)
  19:       897.87   23.178892  ( -1.059065   2.643108  -3.882171)
  20:       928.72   11.349044  (  1.089573   0.612589  -3.128356)
  21:       956.24   12.032649  (  2.096250   2.655497   0.765978)
  22:       960.23   27.750241  ( -3.960155  -3.378612  -0.807710)
  23:       969.55   15.158564  (  0.439022   2.783607   2.686513)
  24:      1004.23    2.198933  (  1.321427   0.621191   0.258623)
  25:      1038.44    4.002010  (  0.349448   1.780325  -0.842816)
  26:      1071.39   24.595734  ( -1.562252   0.303734   4.697111)
  27:      1110.94    6.562050  ( -2.178290  -1.176404  -0.658162)
  28:      1170.13    0.378413  (  0.510035  -0.318436  -0.129908)
  29:      1176.58    1.846003  (  0.834017  -0.149169  -1.062153)
  30:      1201.04   15.366838  ( -2.929114   1.381744  -2.208600)
  31:      1286.84   12.322788  ( -0.341254  -1.493076   3.158648)
  32:      1296.81   10.942823  (  2.493358   1.909130   1.039812)
  33:      1311.02   23.473147  ( -0.387143  -1.914029  -4.433933)
  34:      1411.52   20.453812  ( -0.631678  -4.005982  -2.001726)
  35:      1422.19   56.459450  (  6.671454  -2.031647   2.797063)
  36:      1433.93   74.492085  (  8.320504   2.288706   0.152070)
  37:      1461.76   96.531294  ( -9.795755   0.676678   0.341451)
  38:      1468.67    8.899085  ( -2.976821  -0.167437   0.097903)
  39:      1479.74    3.025121  (  0.585015  -1.607236  -0.315705)
  40:      1494.94   10.708477  ( -3.162448   0.765806  -0.347766)
  41:      1502.88    6.033012  (  0.782255   0.145852  -2.323750)
  42:      1541.43    4.979082  (  0.830351   0.679490  -1.956500)
  43:      1635.36   35.301102  (  2.025003  -5.059085  -2.367725)
  44:      1670.15   42.049229  (  2.929200   3.706983  -4.441542)
  45:      3055.04    1.426683  (  0.535251   1.067033  -0.040367)
  46:      3057.73    2.888767  (  1.513733  -0.623714  -0.456465)
  47:      3117.95    8.661539  (  1.653460  -2.269078  -0.882550)
  48:      3133.73    2.439991  (  0.364943  -0.750036  -1.320702)
  49:      3136.23    6.616486  ( -0.283285  -1.870435   1.742902)
  50:      3148.50    1.069840  (  0.176970  -0.784422  -0.650541)
  51:      3154.69    0.654457  (  0.467285   0.576421  -0.322244)
  52:      3163.40    0.826661  ( -0.629418  -0.183376  -0.629973)
  53:      3220.40    1.771272  ( -0.868678   0.511024  -0.869209)
  54:      3230.84  151.130081  ( -2.234690  -0.638637  12.071801)
  55:      3480.27   81.482459  (  6.620422  -1.267485  -6.003828)
  56:      3537.24   76.162298  ( -2.687460  -8.160441   1.532011)

--------------------------
THERMOCHEMISTRY AT 298.15K
--------------------------

Temperature         ... 298.15 K
Pressure            ... 1.00 atm
Total Mass          ... 102.16 AMU

Throughout the following assumptions are being made:
  (1) The electronic state is orbitally nondegenerate
  (2) There are no thermally accessible electronically excited states
  (3) Hindered rotations indicated by low frequency modes) are not
      treated as such but are treated as vibrations and this may
      case some error
  (4) All equations used are the standard statistical mechanics
      equations for an ideal gas
  (5) All vibrations are strinctly harmonic

------------
INNER ENERGY
------------

The inner energy is: U= E(el) + E(ZPE) + E(vib) + E(rot) + E(trans)
    E(el)   - is the total energy from the electronic structure calculation
              = E(kin-el) + E(nuc-el) + E(el-el) + E(nuc-nuc)
    E(ZPE)  - the the zero temperature vibrational energy from the frequency calculation
    E(vib)  - the the finite temperature correction to E(ZPE) due to population
              of excietd vibrational states
    E(rot)  - is the rotational thermal energy
    E(trans)- is the translational thermal energy

Summary of contributions to the inner energy U:
Electronic energy                ...   -327.20023169 Eh
Zero point energy                ...      0.17405976 Eh     109.22 kcal/mol
Thermal vibrational correction   ...      0.00525546 Eh       3.30 kcal/mol
Thermal rotational correction    ...      0.00141627 Eh       0.89 kcal/mol
Thermal translational correction ...      0.00141627 Eh       0.89 kcal/mol
-----------------------------------------------------------------------
Total thermal energy                   -327.01808393 Eh

Summary of corrections to the electronic energy:
(perhaps to be used in another calculation)
Total thermal correction                  0.00808800 Eh       5.08 kcal/mol
Non-thermal (ZPE) correction              0.17405976 Eh     109.22 kcal/mol
-----------------------------------------------------------------------
Total correction                          0.18214776 Eh     114.30 kcal/mol

--------
ENTHALPY
--------

The enthalpy is H = U + kB*T
                kB is Boltzmann's constant
Total free energy                 ...   -327.01808393 Eh
Thermal Enthalpy correction       ...      0.00094421 Eh       0.59 kcal/mol
-----------------------------------------------------------------------
Total Enthalpy                    ...   -327.01713972 Eh

-------
ENTROPY
-------

The entropy contributions are T*S = T*(S(el)+S(vib)+S(rot)+S(trans)
     S(el)   - electronic entropy
     S(vib)  - vibrational entropy
     S(rot)  - rotational entropy
     S(trans)- translational entropy
The entropies will be listed as mutliplied by the temperature to get
units of energy

Electronic entropy                ...      0.00000000 Eh      0.00 kcal/mol
Vibrational entropy               ...      0.00865856 Eh      5.43 kcal/mol
Rotational entropy                ...      0.01197347 Eh      7.51 kcal/mol
Translational entropy             ...      0.01890147 Eh     11.86 kcal/mol
-----------------------------------------------------------------------
Final entropy term                ...      0.03953350 Eh     24.81 kcal/mol

CAUTION: The rotational entropy is not quite correctly treated here
         because it includes a symmetry number that is not yet correctly
         implemented in ORCA!
For a nonlinear molecule the correct rotational entropy is:
    S(rot) = R*(ln(qrot/sn)+1.5)
    R    = 8.31441 J/mol/K = 1.987191683e-3 kcal/mol/K
    qrot = 215334.0510797
    sn is the rotational symmetry number. We have assumed 3 here
       if it is different for your molecule then you should correct
       the printed rotational entropy by manually evaluating the equation
       as given above

For convenience we print out the resulting values for sn=1 - 12:
 sn= 1  qrot/sn=  215334.0511 T*S(rot)=     8.16 kcal/mol T*S(tot)=    25.46 kcal/mol
 sn= 2  qrot/sn=  107667.0255 T*S(rot)=     7.75 kcal/mol T*S(tot)=    25.05 kcal/mol
 sn= 3  qrot/sn=   71778.0170 T*S(rot)=     7.51 kcal/mol T*S(tot)=    24.81 kcal/mol
 sn= 4  qrot/sn=   53833.5128 T*S(rot)=     7.34 kcal/mol T*S(tot)=    24.64 kcal/mol
 sn= 5  qrot/sn=   43066.8102 T*S(rot)=     7.21 kcal/mol T*S(tot)=    24.50 kcal/mol
 sn= 6  qrot/sn=   35889.0085 T*S(rot)=     7.10 kcal/mol T*S(tot)=    24.40 kcal/mol
 sn= 7  qrot/sn=   30762.0073 T*S(rot)=     7.01 kcal/mol T*S(tot)=    24.31 kcal/mol
 sn= 8  qrot/sn=   26916.7564 T*S(rot)=     6.93 kcal/mol T*S(tot)=    24.23 kcal/mol
 sn= 9  qrot/sn=   23926.0057 T*S(rot)=     6.86 kcal/mol T*S(tot)=    24.16 kcal/mol
 sn=10  qrot/sn=   21533.4051 T*S(rot)=     6.80 kcal/mol T*S(tot)=    24.09 kcal/mol
 sn=11  qrot/sn=   19575.8228 T*S(rot)=     6.74 kcal/mol T*S(tot)=    24.04 kcal/mol
 sn=12  qrot/sn=   17944.5043 T*S(rot)=     6.69 kcal/mol T*S(tot)=    23.99 kcal/mol

-------------------
GIBBS FREE ENTHALPY
-------------------

The Gibbs free enthalpy is G = H - T*S

Total enthalpy                    ...   -327.01713972 Eh
Total entropy correction          ...     -0.03953350 Eh    -24.81 kcal/mol
-----------------------------------------------------------------------
Final Gibbs free enthalpy         ...   -327.05667322 Eh

For completeness - the Gibbs free enthalpy minus the electronic energy
G-E(el)                           ...      0.14355847 Eh     90.08 kcal/mol

                             ****ORCA TERMINATED NORMALLY****
TOTAL RUN TIME: 0 days 0 hours 49 minutes 45 seconds 798 msec
