                         Program Version 3.0.3 - RELEASE   -
|  1> ! NORI PBE0 def2-TZVP UseSym TightOPT Freq TightSCF Grid3 FinalGrid5 XYZFile
|  2> % pal
|  3>     nprocs 8
|  4> end
|  5> %method
|  6>     SymThresh 5.0e-2
|  7> end
|  8> % geom
|  9>     MaxIter 10
| 10> end
| 11> % maxcore 2000
| 12> % output
| 13>     printlevel mini
| 14>     print[ P_Basis ] 0
| 15>     print[ P_SCFInfo ] 1
| 16>     print[ P_SCFIterInfo ] 1
| 17>     print[ P_OrbEn ] 0
| 18>     print[ P_Cartesian ] 0
| 19> end
| 20> % elprop
| 21>     Dipole false
| 22> end
| 23> *xyz 1 1
| 24>  C        0.6679697535     0.0783313760    -0.2619459646
| 25>  C        2.1868669009     0.0835419525    -0.1654190175
| 26>  C        2.8781188062     0.1080457683    -1.5187899393
| 27>  N        2.6045712619    -1.1513577526    -2.2989970988
| 28>  C        2.6916758815     1.2870156711     0.5968546962
| 29>  C        3.1729267192     1.1801810016     1.9694731346
| 30>  O        4.0769487358     1.2734408187     0.8762509285
| 31>  H        0.2690059168    -0.8204002390    -0.7437461446
| 32>  H        0.3010111298     0.9505852935    -0.8097515983
| 33>  H        0.2261979574     0.1049074929     0.7348825667
| 34>  H        2.5334506608    -0.8053040514     0.3781640555
| 35>  H        2.5313785424     0.9361522640    -2.1404976182
| 36>  H        3.9599402070     0.1763415784    -1.4001646529
| 37>  H        1.6011773684    -1.2771129354    -2.4479871681
| 38>  H        2.9466156687    -1.9719809222    -1.7940452604
| 39>  H        3.0598549794    -1.1358466738    -3.2134335068
| 40>  H        2.3038424176     2.2483906918     0.2571938908
| 41>  H        3.1491208387     0.2160480431     2.4711479783
| 42>  H        3.1379262540     2.0521006225     2.6153907189
| 43> *
| 44>
| 45>                          ****END OF INPUT****
 Total Charge           Charge          ....    1
 Multiplicity           Mult            ....    1
 Number of Electrons    NEL             ....   56
FINAL SINGLE POINT ENERGY      -327.189851967571

CARTESIAN COORDINATES (ANGSTROEM)
---------------------------------
  C     -1.154469   -0.006176   -1.598833
  C     -0.184784   -0.193924   -0.440803
  C      1.129374    0.546032   -0.628402
  N      1.904868    0.000221   -1.798782
  C     -0.771892    0.296773    0.862718
  C     -1.269336   -0.626211    1.876570
  O     -0.000036    0.000356    2.008771
  H     -0.785288   -0.421631   -2.542447
  H     -1.384384    1.050811   -1.758151
  H     -2.093694   -0.520583   -1.391841
  H      0.040587   -1.260123   -0.306606
  H      0.975780    1.608052   -0.829799
  H      1.765785    0.435287    0.250208
  H      1.362415    0.074811   -2.662024
  H      2.125830   -0.988078   -1.657841
  H      2.785352    0.500440   -1.935041
  H     -1.181151    1.307575    0.836940
  H     -1.241004   -1.695980    1.685960
  H     -2.025713   -0.289313    2.578465

FINAL SINGLE POINT ENERGY      -327.189852764643
                    ***********************HURRAY********************
 Multiplicity           Mult            ....    1
 Number of Electrons    NEL             ....   56
 Basis Dimension        Dim             ....  289
FINAL SINGLE POINT ENERGY      -327.189853068772

VIBRATIONAL FREQUENCIES
-----------------------

   0:         0.00 cm**-1
   1:         0.00 cm**-1
   2:         0.00 cm**-1
   3:         0.00 cm**-1
   4:         0.00 cm**-1
   5:         0.00 cm**-1
   6:        80.17 cm**-1
   7:        95.15 cm**-1
   8:       176.91 cm**-1
   9:       202.68 cm**-1
  10:       210.58 cm**-1
  11:       251.02 cm**-1
  12:       314.58 cm**-1
  13:       403.61 cm**-1
  14:       463.75 cm**-1
  15:       508.95 cm**-1
  16:       795.69 cm**-1
  17:       847.65 cm**-1
  18:       869.39 cm**-1
  19:       911.02 cm**-1
  20:       947.63 cm**-1
  21:       966.25 cm**-1
  22:       985.14 cm**-1
  23:       999.80 cm**-1
  24:      1033.39 cm**-1
  25:      1097.43 cm**-1
  26:      1166.10 cm**-1
  27:      1173.12 cm**-1
  28:      1176.04 cm**-1
  29:      1189.51 cm**-1
  30:      1205.58 cm**-1
  31:      1298.42 cm**-1
  32:      1301.38 cm**-1
  33:      1336.37 cm**-1
  34:      1367.58 cm**-1
  35:      1406.61 cm**-1
  36:      1421.75 cm**-1
  37:      1451.62 cm**-1
  38:      1482.18 cm**-1
  39:      1491.14 cm**-1
  40:      1498.51 cm**-1
  41:      1507.88 cm**-1
  42:      1533.34 cm**-1
  43:      1656.26 cm**-1
  44:      1663.60 cm**-1
  45:      3032.74 cm**-1
  46:      3042.06 cm**-1
  47:      3094.61 cm**-1
  48:      3109.49 cm**-1
  49:      3116.05 cm**-1
  50:      3120.30 cm**-1
  51:      3144.95 cm**-1
  52:      3159.67 cm**-1
  53:      3217.61 cm**-1
  54:      3422.05 cm**-1
  55:      3501.54 cm**-1
  56:      3509.36 cm**-1

IR SPECTRUM
-----------

 Mode    freq (cm**-1)   T**2         TX         TY         TZ
-------------------------------------------------------------------
   6:        80.17   13.568882  ( -0.697949   2.354341  -2.745693)
   7:        95.15    1.337752  (  0.714066   0.895585  -0.160591)
   8:       176.91   10.777427  ( -0.357467  -2.237207  -2.375826)
   9:       202.68    1.050731  (  0.725630  -0.454723  -0.563399)
  10:       210.58    1.176689  (  0.762497  -0.296945  -0.712117)
  11:       251.02   16.400226  (  3.752922   0.161844  -1.513146)
  12:       314.58    1.890863  (  0.831177  -0.062443  -1.093667)
  13:       403.61    8.270016  (  2.477609   0.349626  -1.417473)
  14:       463.75    1.863830  (  0.853949  -0.488986   0.946305)
  15:       508.95    6.947785  ( -1.484240  -0.868324  -1.997706)
  16:       795.69    3.589238  ( -1.343682   1.333329   0.077397)
  17:       847.65   13.356485  (  2.487323  -0.562219   2.617941)
  18:       869.39   16.606820  (  3.838081   1.324838   0.347499)
  19:       911.02   19.181460  ( -0.708256   2.046372  -3.806862)
  20:       947.63    4.759483  ( -0.141166   1.001570  -1.932980)
  21:       966.25   25.424117  (  4.905813   0.368247  -1.105220)
  22:       985.14    7.574824  (  0.426404   1.616872   2.186031)
  23:       999.80   18.461521  (  1.253067  -0.867343   4.017345)
  24:      1033.39   30.167153  ( -4.879562  -2.518091   0.127437)
  25:      1097.43    0.513148  ( -0.040392   0.257573  -0.667213)
  26:      1166.10    6.610377  (  2.334437  -0.696967  -0.821593)
  27:      1173.12    2.843306  (  1.671122   0.222700   0.032584)
  28:      1176.04    5.215037  ( -1.395351  -1.781162  -0.309024)
  29:      1189.51    1.271895  ( -0.057341   1.004669   0.509164)
  30:      1205.58    2.041316  (  0.098685  -1.366089  -0.406665)
  31:      1298.42    2.294501  (  1.420694  -0.126740   0.509968)
  32:      1301.38    7.762734  (  2.385868   1.379220  -0.410026)
  33:      1336.37    4.090476  ( -0.059871  -1.205109   1.623146)
  34:      1367.58    3.897345  ( -1.098483   0.673379  -1.495741)
  35:      1406.61    4.383559  (  0.652752   0.450681   1.937617)
  36:      1421.75    7.255862  (  2.395418  -1.106083   0.542602)
  37:      1451.62   10.524625  (  2.103191   1.068028   2.227225)
  38:      1482.18   33.434259  ( -3.816794  -0.033635   4.343410)
  39:      1491.14    2.969913  ( -0.329224  -0.346996  -1.655632)
  40:      1498.51   37.498639  ( -5.091220  -1.399903   3.101353)
  41:      1507.88  123.143781  ( -4.954528   5.788655   8.067708)
  42:      1533.34    4.445015  ( -1.296145   0.780582  -1.468235)
  43:      1656.26   48.814827  ( -2.452623   4.806307  -4.438342)
  44:      1663.60   37.069871  (  5.250652   3.010600   0.660919)
  45:      3032.74    6.292711  (  1.272679  -2.134616   0.341195)
  46:      3042.06   19.062026  ( -1.309538  -0.047188   4.164722)
  47:      3094.61    1.948492  ( -0.758787  -0.921994   0.722954)
  48:      3109.49   11.786085  ( -1.611259   1.494337   2.637591)
  49:      3116.05   17.776853  ( -1.480936   3.934204  -0.325142)
  50:      3120.30    7.879276  (  2.466530   1.339874  -0.015595)
  51:      3144.95    2.343125  ( -0.517159  -1.295402   0.630559)
  52:      3159.67    0.849640  (  0.472656  -0.492966  -0.619048)
  53:      3217.61    4.978612  (  1.069156  -1.616640  -1.105437)
  54:      3422.05   37.394074  (  3.561537  -1.772944  -4.643942)
  55:      3501.54   90.889546  ( -5.721183   5.583501  -5.194431)
  56:      3509.36  108.685467  (  7.810446   6.889150   0.471183)

--------------------------
THERMOCHEMISTRY AT 298.15K
--------------------------

Temperature         ... 298.15 K
Pressure            ... 1.00 atm
Total Mass          ... 102.16 AMU

Throughout the following assumptions are being made:
  (1) The electronic state is orbitally nondegenerate
  (2) There are no thermally accessible electronically excited states
  (3) Hindered rotations indicated by low frequency modes) are not
      treated as such but are treated as vibrations and this may
      case some error
  (4) All equations used are the standard statistical mechanics
      equations for an ideal gas
  (5) All vibrations are strinctly harmonic

------------
INNER ENERGY
------------

The inner energy is: U= E(el) + E(ZPE) + E(vib) + E(rot) + E(trans)
    E(el)   - is the total energy from the electronic structure calculation
              = E(kin-el) + E(nuc-el) + E(el-el) + E(nuc-nuc)
    E(ZPE)  - the the zero temperature vibrational energy from the frequency calculation
    E(vib)  - the the finite temperature correction to E(ZPE) due to population
              of excietd vibrational states
    E(rot)  - is the rotational thermal energy
    E(trans)- is the translational thermal energy

Summary of contributions to the inner energy U:
Electronic energy                ...   -327.18985307 Eh
Zero point energy                ...      0.17532370 Eh     110.02 kcal/mol
Thermal vibrational correction   ...      0.00553764 Eh       3.47 kcal/mol
Thermal rotational correction    ...      0.00141627 Eh       0.89 kcal/mol
Thermal translational correction ...      0.00141627 Eh       0.89 kcal/mol
-----------------------------------------------------------------------
Total thermal energy                   -327.00615919 Eh

Summary of corrections to the electronic energy:
(perhaps to be used in another calculation)
Total thermal correction                  0.00837018 Eh       5.25 kcal/mol
Non-thermal (ZPE) correction              0.17532370 Eh     110.02 kcal/mol
-----------------------------------------------------------------------
Total correction                          0.18369388 Eh     115.27 kcal/mol

--------
ENTHALPY
--------

The enthalpy is H = U + kB*T
                kB is Boltzmann's constant
Total free energy                 ...   -327.00615919 Eh
Thermal Enthalpy correction       ...      0.00094421 Eh       0.59 kcal/mol
-----------------------------------------------------------------------
Total Enthalpy                    ...   -327.00521498 Eh

-------
ENTROPY
-------

The entropy contributions are T*S = T*(S(el)+S(vib)+S(rot)+S(trans)
     S(el)   - electronic entropy
     S(vib)  - vibrational entropy
     S(rot)  - rotational entropy
     S(trans)- translational entropy
The entropies will be listed as mutliplied by the temperature to get
units of energy

Electronic entropy                ...      0.00000000 Eh      0.00 kcal/mol
Vibrational entropy               ...      0.00998899 Eh      6.27 kcal/mol
Rotational entropy                ...      0.01220471 Eh      7.66 kcal/mol
Translational entropy             ...      0.01890147 Eh     11.86 kcal/mol
-----------------------------------------------------------------------
Final entropy term                ...      0.04109516 Eh     25.79 kcal/mol

CAUTION: The rotational entropy is not quite correctly treated here
         because it includes a symmetry number that is not yet correctly
         implemented in ORCA!
For a nonlinear molecule the correct rotational entropy is:
    S(rot) = R*(ln(qrot/sn)+1.5)
    R    = 8.31441 J/mol/K = 1.987191683e-3 kcal/mol/K
    qrot = 275090.1778698
    sn is the rotational symmetry number. We have assumed 3 here
       if it is different for your molecule then you should correct
       the printed rotational entropy by manually evaluating the equation
       as given above

For convenience we print out the resulting values for sn=1 - 12:
 sn= 1  qrot/sn=  275090.1779 T*S(rot)=     8.31 kcal/mol T*S(tot)=    26.44 kcal/mol
 sn= 2  qrot/sn=  137545.0889 T*S(rot)=     7.90 kcal/mol T*S(tot)=    26.03 kcal/mol
 sn= 3  qrot/sn=   91696.7260 T*S(rot)=     7.66 kcal/mol T*S(tot)=    25.79 kcal/mol
 sn= 4  qrot/sn=   68772.5445 T*S(rot)=     7.49 kcal/mol T*S(tot)=    25.62 kcal/mol
 sn= 5  qrot/sn=   55018.0356 T*S(rot)=     7.36 kcal/mol T*S(tot)=    25.48 kcal/mol
 sn= 6  qrot/sn=   45848.3630 T*S(rot)=     7.25 kcal/mol T*S(tot)=    25.38 kcal/mol
 sn= 7  qrot/sn=   39298.5968 T*S(rot)=     7.16 kcal/mol T*S(tot)=    25.29 kcal/mol
 sn= 8  qrot/sn=   34386.2722 T*S(rot)=     7.08 kcal/mol T*S(tot)=    25.21 kcal/mol
 sn= 9  qrot/sn=   30565.5753 T*S(rot)=     7.01 kcal/mol T*S(tot)=    25.14 kcal/mol
 sn=10  qrot/sn=   27509.0178 T*S(rot)=     6.95 kcal/mol T*S(tot)=    25.07 kcal/mol
 sn=11  qrot/sn=   25008.1980 T*S(rot)=     6.89 kcal/mol T*S(tot)=    25.02 kcal/mol
 sn=12  qrot/sn=   22924.1815 T*S(rot)=     6.84 kcal/mol T*S(tot)=    24.97 kcal/mol

-------------------
GIBBS FREE ENTHALPY
-------------------

The Gibbs free enthalpy is G = H - T*S

Total enthalpy                    ...   -327.00521498 Eh
Total entropy correction          ...     -0.04109516 Eh    -25.79 kcal/mol
-----------------------------------------------------------------------
Final Gibbs free enthalpy         ...   -327.04631014 Eh

For completeness - the Gibbs free enthalpy minus the electronic energy
G-E(el)                           ...      0.14354293 Eh     90.07 kcal/mol

                             ****ORCA TERMINATED NORMALLY****
TOTAL RUN TIME: 0 days 0 hours 43 minutes 20 seconds 146 msec
