                         Program Version 3.0.3 - RELEASE   -
|  1> ! NORI PBE0 def2-TZVP UseSym TightOPT Freq TightSCF Grid3 FinalGrid5 XYZFile
|  2> % pal
|  3>     nprocs 8
|  4> end
|  5> %method
|  6>     SymThresh 5.0e-2
|  7> end
|  8> % geom
|  9>     MaxIter 10
| 10> end
| 11> % maxcore 2000
| 12> % output
| 13>     printlevel mini
| 14>     print[ P_Basis ] 0
| 15>     print[ P_SCFInfo ] 1
| 16>     print[ P_SCFIterInfo ] 1
| 17>     print[ P_OrbEn ] 0
| 18>     print[ P_Cartesian ] 0
| 19> end
| 20> % elprop
| 21>     Dipole false
| 22> end
| 23> *xyz 1 1
| 24>  C        1.3837617327     0.8015512951    -0.1855883569
| 25>  C        1.4343957428    -0.7181747795    -0.1421016637
| 26>  C        2.5908806800    -1.2162035093     0.6985510959
| 27>  N        2.5612148494    -2.7282817985     0.8043414971
| 28>  C        3.9625226946    -0.8873297638     0.1630198863
| 29>  C        4.9430493170    -0.1778377884     0.9797192391
| 30>  O        4.9871129001    -1.5942309984     0.8470404124
| 31>  H        0.5338382092     1.1298556624    -0.7834540975
| 32>  H        2.2846780599     1.2254755235    -0.6332087384
| 33>  H        1.2691549664     1.2243414490     0.8146973717
| 34>  H        1.5292980240    -1.1189682443    -1.1586134821
| 35>  H        0.4950127456    -1.1052205984     0.2668358310
| 36>  H        2.5053350309    -0.8682197120     1.7314133778
| 37>  H        2.4944961159    -3.1639029542    -0.1180608045
| 38>  H        1.7779481933    -3.0604582675     1.3678119733
| 39>  H        3.4465248529    -3.0247684922     1.2352900663
| 40>  H        4.0621286636    -0.8688715320    -0.9222880891
| 41>  H        4.6568360080     0.1883492126     1.9611511662
| 42>  H        5.7536012136     0.3497752958     0.4878533151
| 43> *
| 44>
| 45>                          ****END OF INPUT****
 Total Charge           Charge          ....    1
 Multiplicity           Mult            ....    1
 Number of Electrons    NEL             ....   56
FINAL SINGLE POINT ENERGY      -327.196279477418

CARTESIAN COORDINATES (ANGSTROEM)
---------------------------------
  C     -1.153719    0.010098   -2.290848
  C      0.239267    0.319547   -1.763358
  C      0.447519   -0.237935   -0.371168
  N      1.872121   -0.000341    0.090619
  C     -0.419521    0.374044    0.701411
  C     -1.269712   -0.454468    1.551469
  O      0.000266    0.000386    2.005813
  H     -1.268842    0.409887   -3.298092
  H     -1.932027    0.455727   -1.668402
  H     -1.330481   -1.066598   -2.338735
  H      0.400033    1.404392   -1.744380
  H      0.989986   -0.102469   -2.439904
  H      0.334284   -1.325201   -0.360880
  H      2.136766    0.981815   -0.012842
  H      2.545380   -0.565059   -0.428137
  H      1.916847   -0.240791    1.089467
  H     -0.658131    1.430303    0.580250
  H     -1.340063   -1.521240    1.360310
  H     -2.119729    0.001309    2.048265

FINAL SINGLE POINT ENERGY      -327.196280449002
                    ***********************HURRAY********************
 Multiplicity           Mult            ....    1
 Number of Electrons    NEL             ....   56
 Basis Dimension        Dim             ....  289
FINAL SINGLE POINT ENERGY      -327.196280898151

VIBRATIONAL FREQUENCIES
-----------------------

   0:         0.00 cm**-1
   1:         0.00 cm**-1
   2:         0.00 cm**-1
   3:         0.00 cm**-1
   4:         0.00 cm**-1
   5:         0.00 cm**-1
   6:        83.01 cm**-1
   7:       108.52 cm**-1
   8:       184.56 cm**-1
   9:       225.60 cm**-1
  10:       260.20 cm**-1
  11:       267.50 cm**-1
  12:       314.34 cm**-1
  13:       392.35 cm**-1
  14:       459.61 cm**-1
  15:       542.41 cm**-1
  16:       767.48 cm**-1
  17:       828.65 cm**-1
  18:       884.41 cm**-1
  19:       908.07 cm**-1
  20:       947.51 cm**-1
  21:       972.52 cm**-1
  22:       999.49 cm**-1
  23:      1003.47 cm**-1
  24:      1040.57 cm**-1
  25:      1091.68 cm**-1
  26:      1121.68 cm**-1
  27:      1171.52 cm**-1
  28:      1182.22 cm**-1
  29:      1202.27 cm**-1
  30:      1217.13 cm**-1
  31:      1279.34 cm**-1
  32:      1296.81 cm**-1
  33:      1351.29 cm**-1
  34:      1365.85 cm**-1
  35:      1396.75 cm**-1
  36:      1422.21 cm**-1
  37:      1454.59 cm**-1
  38:      1472.13 cm**-1
  39:      1482.88 cm**-1
  40:      1494.10 cm**-1
  41:      1500.08 cm**-1
  42:      1529.77 cm**-1
  43:      1645.08 cm**-1
  44:      1663.03 cm**-1
  45:      3036.47 cm**-1
  46:      3064.93 cm**-1
  47:      3079.02 cm**-1
  48:      3099.41 cm**-1
  49:      3130.33 cm**-1
  50:      3135.58 cm**-1
  51:      3139.57 cm**-1
  52:      3156.28 cm**-1
  53:      3232.17 cm**-1
  54:      3368.57 cm**-1
  55:      3471.60 cm**-1
  56:      3521.47 cm**-1

IR SPECTRUM
-----------

 Mode    freq (cm**-1)   T**2         TX         TY         TZ
-------------------------------------------------------------------
   6:        83.01   11.950782  ( -1.703724  -2.754779   1.208014)
   7:       108.52    0.603899  ( -0.769947  -0.073348  -0.075504)
   8:       184.56    6.250330  ( -1.374132   2.084382   0.132080)
   9:       225.60    2.610995  (  0.474922   1.325118  -0.793414)
  10:       260.20    0.718410  (  0.046290  -0.200280   0.822287)
  11:       267.50   33.399996  ( -3.789629   1.382623   4.138486)
  12:       314.34    1.070787  ( -0.536830   0.662941   0.585755)
  13:       392.35    0.454578  (  0.150209  -0.009231   0.657214)
  14:       459.61    3.605099  (  1.716769  -0.804844  -0.100143)
  15:       542.41   11.234830  (  2.011542  -0.358559   2.657060)
  16:       767.48    7.313300  ( -0.406500  -1.859039  -1.921466)
  17:       828.65    1.076379  (  0.990817   0.152263   0.267352)
  18:       884.41   13.013065  (  3.329808   0.968270   0.993930)
  19:       908.07   25.016594  (  0.533129   1.690324  -4.677090)
  20:       947.51   35.366687  (  5.351646  -0.813868   2.462557)
  21:       972.52    9.420151  (  1.705682   0.834551   2.411291)
  22:       999.49   19.989062  ( -0.500208  -2.577203   3.618961)
  23:      1003.47   25.162731  ( -1.464378   0.545289   4.766654)
  24:      1040.57    4.591309  ( -1.550424   0.369139   1.432212)
  25:      1091.68    6.987818  (  1.715482   0.316083   1.986210)
  26:      1121.68    3.832761  (  0.199112  -1.388489  -1.365728)
  27:      1171.52    1.280225  (  0.127344  -1.114726  -0.146267)
  28:      1182.22    0.401227  (  0.172639  -0.599249   0.111012)
  29:      1202.27    5.322913  (  0.601910  -0.142002  -2.222713)
  30:      1217.13    5.418149  (  1.366450  -0.336840  -1.854050)
  31:      1279.34    2.904125  (  0.947622   0.186699  -1.404024)
  32:      1296.81   15.881073  ( -3.282813  -0.938903  -2.054915)
  33:      1351.29    6.488404  (  0.189771  -0.949086   2.356189)
  34:      1365.85    3.601442  ( -1.375318   0.010097  -1.307609)
  35:      1396.75    6.756896  (  2.384478  -1.009047   0.230188)
  36:      1422.21    8.306521  (  2.541225   0.343526   1.315556)
  37:      1454.59   35.284209  (  5.648208   1.443418   1.139517)
  38:      1472.13  148.715236  (-11.602296  -0.402146  -3.733663)
  39:      1482.88   15.641288  (  3.266217   0.274196   2.213127)
  40:      1494.10   12.787242  ( -1.298989   3.184140   0.980368)
  41:      1500.08   15.329261  (  3.107906   1.654141  -1.712891)
  42:      1529.77    3.558921  (  0.838906   1.602453  -0.536006)
  43:      1645.08   38.184119  ( -0.429900  -5.371561   3.024175)
  44:      1663.03   40.106576  (  2.467379  -4.012894  -4.232647)
  45:      3036.47   11.656535  ( -2.948970  -1.718430  -0.084328)
  46:      3064.93    7.054908  (  2.375171   1.158012  -0.269217)
  47:      3079.02    4.396733  ( -1.464711   0.906773   1.195457)
  48:      3099.41    2.352935  ( -0.233616   1.461319   0.403617)
  49:      3130.33    4.834509  ( -1.361883  -1.725073  -0.062485)
  50:      3135.58    3.470619  (  0.605844  -0.340578   1.728462)
  51:      3139.57   12.906078  (  1.306801  -3.143934  -1.146311)
  52:      3156.28    4.067610  (  0.687594   0.702180  -1.761184)
  53:      3232.17    0.843582  (  0.325783  -0.803308  -0.303550)
  54:      3368.57   64.161311  ( -1.639288   0.845383  -7.794830)
  55:      3471.60   95.687202  ( -5.869734  -4.751449   6.217488)
  56:      3521.47   91.043045  (  4.509789  -7.539376  -3.723260)

--------------------------
THERMOCHEMISTRY AT 298.15K
--------------------------

Temperature         ... 298.15 K
Pressure            ... 1.00 atm
Total Mass          ... 102.16 AMU

Throughout the following assumptions are being made:
  (1) The electronic state is orbitally nondegenerate
  (2) There are no thermally accessible electronically excited states
  (3) Hindered rotations indicated by low frequency modes) are not
      treated as such but are treated as vibrations and this may
      case some error
  (4) All equations used are the standard statistical mechanics
      equations for an ideal gas
  (5) All vibrations are strinctly harmonic

------------
INNER ENERGY
------------

The inner energy is: U= E(el) + E(ZPE) + E(vib) + E(rot) + E(trans)
    E(el)   - is the total energy from the electronic structure calculation
              = E(kin-el) + E(nuc-el) + E(el-el) + E(nuc-nuc)
    E(ZPE)  - the the zero temperature vibrational energy from the frequency calculation
    E(vib)  - the the finite temperature correction to E(ZPE) due to population
              of excietd vibrational states
    E(rot)  - is the rotational thermal energy
    E(trans)- is the translational thermal energy

Summary of contributions to the inner energy U:
Electronic energy                ...   -327.19628090 Eh
Zero point energy                ...      0.17534156 Eh     110.03 kcal/mol
Thermal vibrational correction   ...      0.00536647 Eh       3.37 kcal/mol
Thermal rotational correction    ...      0.00141627 Eh       0.89 kcal/mol
Thermal translational correction ...      0.00141627 Eh       0.89 kcal/mol
-----------------------------------------------------------------------
Total thermal energy                   -327.01274033 Eh

Summary of corrections to the electronic energy:
(perhaps to be used in another calculation)
Total thermal correction                  0.00819902 Eh       5.14 kcal/mol
Non-thermal (ZPE) correction              0.17534156 Eh     110.03 kcal/mol
-----------------------------------------------------------------------
Total correction                          0.18354057 Eh     115.17 kcal/mol

--------
ENTHALPY
--------

The enthalpy is H = U + kB*T
                kB is Boltzmann's constant
Total free energy                 ...   -327.01274033 Eh
Thermal Enthalpy correction       ...      0.00094421 Eh       0.59 kcal/mol
-----------------------------------------------------------------------
Total Enthalpy                    ...   -327.01179612 Eh

-------
ENTROPY
-------

The entropy contributions are T*S = T*(S(el)+S(vib)+S(rot)+S(trans)
     S(el)   - electronic entropy
     S(vib)  - vibrational entropy
     S(rot)  - rotational entropy
     S(trans)- translational entropy
The entropies will be listed as mutliplied by the temperature to get
units of energy

Electronic entropy                ...      0.00000000 Eh      0.00 kcal/mol
Vibrational entropy               ...      0.00947595 Eh      5.95 kcal/mol
Rotational entropy                ...      0.01218363 Eh      7.65 kcal/mol
Translational entropy             ...      0.01890147 Eh     11.86 kcal/mol
-----------------------------------------------------------------------
Final entropy term                ...      0.04056105 Eh     25.45 kcal/mol

CAUTION: The rotational entropy is not quite correctly treated here
         because it includes a symmetry number that is not yet correctly
         implemented in ORCA!
For a nonlinear molecule the correct rotational entropy is:
    S(rot) = R*(ln(qrot/sn)+1.5)
    R    = 8.31441 J/mol/K = 1.987191683e-3 kcal/mol/K
    qrot = 269016.3590306
    sn is the rotational symmetry number. We have assumed 3 here
       if it is different for your molecule then you should correct
       the printed rotational entropy by manually evaluating the equation
       as given above

For convenience we print out the resulting values for sn=1 - 12:
 sn= 1  qrot/sn=  269016.3590 T*S(rot)=     8.30 kcal/mol T*S(tot)=    26.10 kcal/mol
 sn= 2  qrot/sn=  134508.1795 T*S(rot)=     7.89 kcal/mol T*S(tot)=    25.69 kcal/mol
 sn= 3  qrot/sn=   89672.1197 T*S(rot)=     7.65 kcal/mol T*S(tot)=    25.45 kcal/mol
 sn= 4  qrot/sn=   67254.0898 T*S(rot)=     7.47 kcal/mol T*S(tot)=    25.28 kcal/mol
 sn= 5  qrot/sn=   53803.2718 T*S(rot)=     7.34 kcal/mol T*S(tot)=    25.15 kcal/mol
 sn= 6  qrot/sn=   44836.0598 T*S(rot)=     7.23 kcal/mol T*S(tot)=    25.04 kcal/mol
 sn= 7  qrot/sn=   38430.9084 T*S(rot)=     7.14 kcal/mol T*S(tot)=    24.95 kcal/mol
 sn= 8  qrot/sn=   33627.0449 T*S(rot)=     7.06 kcal/mol T*S(tot)=    24.87 kcal/mol
 sn= 9  qrot/sn=   29890.7066 T*S(rot)=     6.99 kcal/mol T*S(tot)=    24.80 kcal/mol
 sn=10  qrot/sn=   26901.6359 T*S(rot)=     6.93 kcal/mol T*S(tot)=    24.74 kcal/mol
 sn=11  qrot/sn=   24456.0326 T*S(rot)=     6.88 kcal/mol T*S(tot)=    24.68 kcal/mol
 sn=12  qrot/sn=   22418.0299 T*S(rot)=     6.82 kcal/mol T*S(tot)=    24.63 kcal/mol

-------------------
GIBBS FREE ENTHALPY
-------------------

The Gibbs free enthalpy is G = H - T*S

Total enthalpy                    ...   -327.01179612 Eh
Total entropy correction          ...     -0.04056105 Eh    -25.45 kcal/mol
-----------------------------------------------------------------------
Final Gibbs free enthalpy         ...   -327.05235717 Eh

For completeness - the Gibbs free enthalpy minus the electronic energy
G-E(el)                           ...      0.14392373 Eh     90.31 kcal/mol

                             ****ORCA TERMINATED NORMALLY****
TOTAL RUN TIME: 0 days 0 hours 44 minutes 16 seconds 769 msec
