                         Program Version 3.0.3 - RELEASE   -
|  1> ! NORI PBE0 def2-TZVP UseSym TightOPT Freq TightSCF Grid3 FinalGrid5 XYZFile
|  2> % pal
|  3>     nprocs 8
|  4> end
|  5> %method
|  6>     SymThresh 5.0e-2
|  7> end
|  8> % geom
|  9>     MaxIter 10
| 10> end
| 11> % maxcore 2000
| 12> % output
| 13>     printlevel mini
| 14>     print[ P_Basis ] 0
| 15>     print[ P_SCFInfo ] 1
| 16>     print[ P_SCFIterInfo ] 1
| 17>     print[ P_OrbEn ] 0
| 18>     print[ P_Cartesian ] 0
| 19> end
| 20> % elprop
| 21>     Dipole false
| 22> end
| 23> *xyz 1 1
| 24>  C        1.0803496504     1.6718727554     0.4154276202
| 25>  C        2.4761820521     1.1010755695     0.2237629313
| 26>  C        2.4699777617    -0.4085574468     0.3312447124
| 27>  N        3.8453196261    -0.9670296925     0.1489503325
| 28>  C        3.9705406940    -2.4559093198     0.2208463617
| 29>  C        3.5095872149    -3.0501789845    -1.0931302132
| 30>  O        4.1332782303    -2.2670721588    -2.0858900769
| 31>  H        1.1022000506     2.7590715258     0.3396035093
| 32>  H        0.6768517576     1.4157285185     1.3976408224
| 33>  H        0.3888317075     1.3000454953    -0.3438039626
| 34>  H        2.8670411335     1.3967076495    -0.7562463269
| 35>  H        3.1526080335     1.5199277569     0.9777043078
| 36>  H        2.1193003476    -0.7439583098     1.3094290114
| 37>  H        1.8383082479    -0.8600574467    -0.4345615072
| 38>  H        4.1887531257    -0.7142534656    -0.7875945223
| 39>  H        4.4693878781    -0.5323893425     0.8286427311
| 40>  H        5.0275417813    -2.6729030872     0.3783297427
| 41>  H        3.3946421281    -2.8207353998     1.0707570028
| 42>  H        3.8262145464    -4.0971693068    -1.1256127760
| 43>  H        2.4175598326    -3.0225707258    -1.1852997967
| 44>  H        3.9433742001    -2.6072745845    -2.9645899038
| 45> *
| 46>
| 47>                          ****END OF INPUT****
 Total Charge           Charge          ....    1
 Multiplicity           Mult            ....    1
 Number of Electrons    NEL             ....   58
FINAL SINGLE POINT ENERGY      -328.441560881029
FINAL SINGLE POINT ENERGY      -328.441562200951

CARTESIAN COORDINATES (ANGSTROEM)
---------------------------------
  C     -1.420275   -1.253303   -2.787026
  C     -0.313316   -1.285688   -1.744771
  C     -0.214652    0.033099   -1.008289
  N      0.879418   -0.000469    0.011515
  C      1.068161    1.244239    0.819095
  C      0.008599    1.292047    1.899459
  O      0.003962   -0.000105    2.463281
  H     -1.476203   -2.208002   -3.309474
  H     -1.242692   -0.476371   -3.533811
  H     -2.394184   -1.068678   -2.328507
  H     -0.502389   -2.091919   -1.027399
  H      0.644134   -1.507032   -2.230492
  H      0.009601    0.859628   -1.685584
  H     -1.138716    0.263890   -0.476845
  H      0.675568   -0.738421    0.699421
  H      1.752891   -0.250333   -0.452142
  H      2.058973    1.176954    1.270199
  H      1.029177    2.107492    0.155609
  H      0.291184    2.063670    2.622394
  H     -0.972788    1.555798    1.488292
  H     -0.601865   -0.050085    3.207722

FINAL SINGLE POINT ENERGY      -328.441562841116
                    ***********************HURRAY********************
 Multiplicity           Mult            ....    1
 Number of Electrons    NEL             ....   58
 Basis Dimension        Dim             ....  301
FINAL SINGLE POINT ENERGY      -328.441563056756

VIBRATIONAL FREQUENCIES
-----------------------

   0:         0.00 cm**-1
   1:         0.00 cm**-1
   2:         0.00 cm**-1
   3:         0.00 cm**-1
   4:         0.00 cm**-1
   5:         0.00 cm**-1
   6:        54.86 cm**-1
   7:        63.60 cm**-1
   8:       122.78 cm**-1
   9:       148.60 cm**-1
  10:       216.63 cm**-1
  11:       238.53 cm**-1
  12:       281.80 cm**-1
  13:       301.14 cm**-1
  14:       395.57 cm**-1
  15:       407.63 cm**-1
  16:       555.60 cm**-1
  17:       756.11 cm**-1
  18:       797.32 cm**-1
  19:       849.18 cm**-1
  20:       898.61 cm**-1
  21:       920.73 cm**-1
  22:       961.43 cm**-1
  23:       983.59 cm**-1
  24:      1044.79 cm**-1
  25:      1070.78 cm**-1
  26:      1091.91 cm**-1
  27:      1112.63 cm**-1
  28:      1147.73 cm**-1
  29:      1170.27 cm**-1
  30:      1223.76 cm**-1
  31:      1254.46 cm**-1
  32:      1266.73 cm**-1
  33:      1310.36 cm**-1
  34:      1333.02 cm**-1
  35:      1347.69 cm**-1
  36:      1385.01 cm**-1
  37:      1403.17 cm**-1
  38:      1414.46 cm**-1
  39:      1426.43 cm**-1
  40:      1431.57 cm**-1
  41:      1464.62 cm**-1
  42:      1481.14 cm**-1
  43:      1485.34 cm**-1
  44:      1491.35 cm**-1
  45:      1494.09 cm**-1
  46:      1506.61 cm**-1
  47:      1521.67 cm**-1
  48:      1630.31 cm**-1
  49:      3037.87 cm**-1
  50:      3040.47 cm**-1
  51:      3062.66 cm**-1
  52:      3077.88 cm**-1
  53:      3089.00 cm**-1
  54:      3092.68 cm**-1
  55:      3107.07 cm**-1
  56:      3135.66 cm**-1
  57:      3152.88 cm**-1
  58:      3154.72 cm**-1
  59:      3169.34 cm**-1
  60:      3358.99 cm**-1
  61:      3493.47 cm**-1
  62:      3870.78 cm**-1

IR SPECTRUM
-----------

 Mode    freq (cm**-1)   T**2         TX         TY         TZ
-------------------------------------------------------------------
   6:        54.86    1.967451  ( -1.390179  -0.184622  -0.027723)
   7:        63.60    1.437502  (  0.931384   0.742450   0.137086)
   8:       122.78    3.562507  ( -1.054729  -0.748700  -1.374592)
   9:       148.60    1.100645  (  0.509745  -0.461594  -0.792298)
  10:       216.63   20.481623  (  0.638994   0.168889   4.477140)
  11:       238.53    2.935679  ( -0.993190  -0.242834  -1.374876)
  12:       281.80   93.207460  ( -8.383566  -2.553297  -4.050179)
  13:       301.14   44.045124  ( -2.513586  -0.436126  -6.126729)
  14:       395.57    4.545359  ( -1.061469   0.074114  -1.847471)
  15:       407.63   10.968522  (  0.152019   0.088543  -3.307200)
  16:       555.60    7.254487  ( -0.023825   2.684678  -0.215458)
  17:       756.11    9.359854  ( -1.714654  -0.670447   2.443423)
  18:       797.32   11.858229  ( -0.217040   0.762630   3.351047)
  19:       849.18    7.283825  ( -1.358118  -2.035222   1.138952)
  20:       898.61    2.520462  ( -0.492131  -0.038350   1.508906)
  21:       920.73    2.056212  ( -1.063633   0.916736  -0.290672)
  22:       961.43   17.536527  ( -1.716166  -2.544986   2.848569)
  23:       983.59   16.170137  ( -1.070790   0.735255  -3.805647)
  24:      1044.79   34.677980  ( -1.557471  -5.069729  -2.559318)
  25:      1070.78    4.516381  (  1.319623  -0.536987   1.576902)
  26:      1091.91   31.842064  ( -1.014731  -5.289583   1.683063)
  27:      1112.63   40.335874  ( -0.099162   4.523040  -4.457371)
  28:      1147.73    4.577499  ( -0.136602  -1.726055  -1.256811)
  29:      1170.27    0.725229  (  0.381634   0.177880  -0.740232)
  30:      1223.76   12.047159  (  1.013870  -2.874537   1.660200)
  31:      1254.46    1.848982  ( -0.352710  -0.429535  -1.240998)
  32:      1266.73   24.326021  ( -2.335266   4.216268  -1.046729)
  33:      1310.36   20.719594  (  0.621554   4.501581   0.262744)
  34:      1333.02    3.548275  (  1.773958  -0.347656   0.529606)
  35:      1347.69    9.825799  (  0.404636   2.824326  -1.298172)
  36:      1385.01    6.625440  (  1.375915   0.876681   1.990911)
  37:      1403.17    0.408819  (  0.376834  -0.509543  -0.084737)
  38:      1414.46   14.480364  (  0.730023   2.215655   3.006377)
  39:      1426.43    2.923050  (  1.616416  -0.482530  -0.278232)
  40:      1431.57   70.694941  ( -2.653810  -3.431866  -7.202397)
  41:      1464.62   16.624037  (  0.815071   2.024458   3.444019)
  42:      1481.14    9.143574  ( -1.601030  -1.944989  -1.672512)
  43:      1485.34   17.017522  (  3.581030   1.810091  -0.957765)
  44:      1491.35    0.014762  (  0.113915   0.033875  -0.025265)
  45:      1494.09   12.595958  (  2.261859   1.081584  -2.511997)
  46:      1506.61   14.494805  ( -1.220716   3.606142   0.019894)
  47:      1521.67   10.550665  ( -1.795503   1.521374   2.238807)
  48:      1630.31   59.062183  ( -4.413029   6.184460   1.157503)
  49:      3037.87   12.097979  ( -2.840975   1.438032  -1.399609)
  50:      3040.47   20.565406  ( -2.704670   3.138360  -1.844143)
  51:      3062.66   10.038316  (  2.437375  -1.062033   1.723255)
  52:      3077.88    4.221545  (  1.350630   0.475135  -1.473631)
  53:      3089.00    7.107610  ( -1.114717  -2.030483  -1.319907)
  54:      3092.68    5.286487  (  1.256264  -1.630826   1.024058)
  55:      3107.07    3.170302  (  1.482960   0.913818   0.368875)
  56:      3135.66   11.064275  ( -2.153972  -1.118997   2.274318)
  57:      3152.88    5.956023  ( -1.670511  -0.620098   1.667601)
  58:      3154.72    4.897150  (  0.588512  -2.058542  -0.559648)
  59:      3169.34    0.507363  (  0.357107  -0.215096   0.577557)
  60:      3358.99   93.381313  ( -0.520608  -4.782200   8.380981)
  61:      3493.47   70.232263  (  6.623808  -0.883037  -5.057437)
  62:      3870.78  128.512136  (  5.743116   2.715287  -9.389141)

--------------------------
THERMOCHEMISTRY AT 298.15K
--------------------------

Temperature         ... 298.15 K
Pressure            ... 1.00 atm
Total Mass          ... 104.17 AMU

Throughout the following assumptions are being made:
  (1) The electronic state is orbitally nondegenerate
  (2) There are no thermally accessible electronically excited states
  (3) Hindered rotations indicated by low frequency modes) are not
      treated as such but are treated as vibrations and this may
      case some error
  (4) All equations used are the standard statistical mechanics
      equations for an ideal gas
  (5) All vibrations are strinctly harmonic

------------
INNER ENERGY
------------

The inner energy is: U= E(el) + E(ZPE) + E(vib) + E(rot) + E(trans)
    E(el)   - is the total energy from the electronic structure calculation
              = E(kin-el) + E(nuc-el) + E(el-el) + E(nuc-nuc)
    E(ZPE)  - the the zero temperature vibrational energy from the frequency calculation
    E(vib)  - the the finite temperature correction to E(ZPE) due to population
              of excietd vibrational states
    E(rot)  - is the rotational thermal energy
    E(trans)- is the translational thermal energy

Summary of contributions to the inner energy U:
Electronic energy                ...   -328.44156306 Eh
Zero point energy                ...      0.19890008 Eh     124.81 kcal/mol
Thermal vibrational correction   ...      0.00638715 Eh       4.01 kcal/mol
Thermal rotational correction    ...      0.00141627 Eh       0.89 kcal/mol
Thermal translational correction ...      0.00141627 Eh       0.89 kcal/mol
-----------------------------------------------------------------------
Total thermal energy                   -328.23344328 Eh

Summary of corrections to the electronic energy:
(perhaps to be used in another calculation)
Total thermal correction                  0.00921970 Eh       5.79 kcal/mol
Non-thermal (ZPE) correction              0.19890008 Eh     124.81 kcal/mol
-----------------------------------------------------------------------
Total correction                          0.20811978 Eh     130.60 kcal/mol

--------
ENTHALPY
--------

The enthalpy is H = U + kB*T
                kB is Boltzmann's constant
Total free energy                 ...   -328.23344328 Eh
Thermal Enthalpy correction       ...      0.00094421 Eh       0.59 kcal/mol
-----------------------------------------------------------------------
Total Enthalpy                    ...   -328.23249907 Eh

-------
ENTROPY
-------

The entropy contributions are T*S = T*(S(el)+S(vib)+S(rot)+S(trans)
     S(el)   - electronic entropy
     S(vib)  - vibrational entropy
     S(rot)  - rotational entropy
     S(trans)- translational entropy
The entropies will be listed as mutliplied by the temperature to get
units of energy

Electronic entropy                ...      0.00000000 Eh      0.00 kcal/mol
Vibrational entropy               ...      0.01222537 Eh      7.67 kcal/mol
Rotational entropy                ...      0.01243908 Eh      7.81 kcal/mol
Translational entropy             ...      0.01892914 Eh     11.88 kcal/mol
-----------------------------------------------------------------------
Final entropy term                ...      0.04359360 Eh     27.36 kcal/mol

CAUTION: The rotational entropy is not quite correctly treated here
         because it includes a symmetry number that is not yet correctly
         implemented in ORCA!
For a nonlinear molecule the correct rotational entropy is:
    S(rot) = R*(ln(qrot/sn)+1.5)
    R    = 8.31441 J/mol/K = 1.987191683e-3 kcal/mol/K
    qrot = 352596.4582899
    sn is the rotational symmetry number. We have assumed 3 here
       if it is different for your molecule then you should correct
       the printed rotational entropy by manually evaluating the equation
       as given above

For convenience we print out the resulting values for sn=1 - 12:
 sn= 1  qrot/sn=  352596.4583 T*S(rot)=     8.46 kcal/mol T*S(tot)=    28.01 kcal/mol
 sn= 2  qrot/sn=  176298.2291 T*S(rot)=     8.05 kcal/mol T*S(tot)=    27.60 kcal/mol
 sn= 3  qrot/sn=  117532.1528 T*S(rot)=     7.81 kcal/mol T*S(tot)=    27.36 kcal/mol
 sn= 4  qrot/sn=   88149.1146 T*S(rot)=     7.64 kcal/mol T*S(tot)=    27.18 kcal/mol
 sn= 5  qrot/sn=   70519.2917 T*S(rot)=     7.50 kcal/mol T*S(tot)=    27.05 kcal/mol
 sn= 6  qrot/sn=   58766.0764 T*S(rot)=     7.39 kcal/mol T*S(tot)=    26.94 kcal/mol
 sn= 7  qrot/sn=   50370.9226 T*S(rot)=     7.30 kcal/mol T*S(tot)=    26.85 kcal/mol
 sn= 8  qrot/sn=   44074.5573 T*S(rot)=     7.22 kcal/mol T*S(tot)=    26.77 kcal/mol
 sn= 9  qrot/sn=   39177.3843 T*S(rot)=     7.15 kcal/mol T*S(tot)=    26.70 kcal/mol
 sn=10  qrot/sn=   35259.6458 T*S(rot)=     7.09 kcal/mol T*S(tot)=    26.64 kcal/mol
 sn=11  qrot/sn=   32054.2235 T*S(rot)=     7.04 kcal/mol T*S(tot)=    26.59 kcal/mol
 sn=12  qrot/sn=   29383.0382 T*S(rot)=     6.98 kcal/mol T*S(tot)=    26.53 kcal/mol

-------------------
GIBBS FREE ENTHALPY
-------------------

The Gibbs free enthalpy is G = H - T*S

Total enthalpy                    ...   -328.23249907 Eh
Total entropy correction          ...     -0.04359360 Eh    -27.36 kcal/mol
-----------------------------------------------------------------------
Final Gibbs free enthalpy         ...   -328.27609267 Eh

For completeness - the Gibbs free enthalpy minus the electronic energy
G-E(el)                           ...      0.16547039 Eh    103.83 kcal/mol

                             ****ORCA TERMINATED NORMALLY****
TOTAL RUN TIME: 0 days 0 hours 45 minutes 16 seconds 633 msec
