                         Program Version 3.0.3 - RELEASE   -
|  1> ! NORI PBE0 def2-TZVP UseSym TightOPT Freq TightSCF Grid3 FinalGrid5 XYZFile
|  2> % pal
|  3>     nprocs 8
|  4> end
|  5> %method
|  6>     SymThresh 5.0e-2
|  7> end
|  8> % geom
|  9>     MaxIter 10
| 10> end
| 11> % maxcore 2000
| 12> % output
| 13>     printlevel mini
| 14>     print[ P_Basis ] 0
| 15>     print[ P_SCFInfo ] 1
| 16>     print[ P_SCFIterInfo ] 1
| 17>     print[ P_OrbEn ] 0
| 18>     print[ P_Cartesian ] 0
| 19> end
| 20> % elprop
| 21>     Dipole false
| 22> end
| 23> *xyz 1 1
| 24>  C        0.4054771655    -0.5836127338    -0.1836259164
| 25>  C        1.3902695540     0.0779905495     0.4088037272
| 26>  C        2.4403181541     0.8061555228    -0.3535789298
| 27>  N        3.7795052014     0.1115212907    -0.2028684354
| 28>  C        4.9014733123     0.7585965238    -0.9381179676
| 29>  C        6.2375245701     0.0723039288    -0.6813260296
| 30>  O        7.1171331877     0.1242789814    -1.4785263233
| 31>  H       -0.3591216666    -1.0882058638     0.3942176411
| 32>  H        0.3108847470    -0.6287705591    -1.2644981736
| 33>  H        1.4387883114     0.1344743117     1.4940328502
| 34>  H        2.2266773170     0.8341811276    -1.4225280896
| 35>  H        2.5920568648     1.8270026987     0.0040658993
| 36>  H        4.0025113908     0.0534291123     0.7942558775
| 37>  H        3.6626656294    -0.8561127800    -0.5153254271
| 38>  H        4.6772962766     0.7509440896    -2.0046868825
| 39>  H        4.9658443477     1.7967784525    -0.5999953694
| 40>  H        6.3502056367    -0.4474246528     0.2959015489
| 41> *
| 42>
| 43>                          ****END OF INPUT****
 Total Charge           Charge          ....    1
 Multiplicity           Mult            ....    1
 Number of Electrons    NEL             ....   54
FINAL SINGLE POINT ENERGY      -325.967624690075

CARTESIAN COORDINATES (ANGSTROEM)
---------------------------------
  C     -0.379253    1.002816   -3.339734
  C      0.231211    0.107213   -2.576012
  C     -0.405603   -0.485129   -1.368671
  N      0.291107    0.000558   -0.112769
  C     -0.277729   -0.528432    1.158004
  C      0.515020   -0.081564    2.380231
  O      0.001704   -0.001693    3.448827
  H      0.098103    1.403973   -4.225548
  H     -1.384316    1.353035   -3.124710
  H      1.224528   -0.250863   -2.836714
  H     -1.452149   -0.194551   -1.272069
  H     -0.336852   -1.575038   -1.344877
  H      1.282986   -0.242776   -0.179559
  H      0.258099    1.023609   -0.116797
  H     -1.313733   -0.201896    1.245596
  H     -0.257003   -1.620531    1.102282
  H      1.595757    0.131216    2.222006

FINAL SINGLE POINT ENERGY      -325.967625314470
                    ***********************HURRAY********************
 Multiplicity           Mult            ....    1
 Number of Electrons    NEL             ....   54
 Basis Dimension        Dim             ....  277
FINAL SINGLE POINT ENERGY      -325.967624928862

VIBRATIONAL FREQUENCIES
-----------------------

   0:         0.00 cm**-1
   1:         0.00 cm**-1
   2:         0.00 cm**-1
   3:         0.00 cm**-1
   4:         0.00 cm**-1
   5:         0.00 cm**-1
   6:        32.28 cm**-1
   7:        62.33 cm**-1
   8:        90.97 cm**-1
   9:       103.66 cm**-1
  10:       163.39 cm**-1
  11:       321.53 cm**-1
  12:       322.77 cm**-1
  13:       442.81 cm**-1
  14:       523.47 cm**-1
  15:       667.79 cm**-1
  16:       727.70 cm**-1
  17:       810.53 cm**-1
  18:       923.43 cm**-1
  19:       950.37 cm**-1
  20:       974.03 cm**-1
  21:      1018.80 cm**-1
  22:      1020.21 cm**-1
  23:      1035.35 cm**-1
  24:      1049.68 cm**-1
  25:      1088.03 cm**-1
  26:      1162.25 cm**-1
  27:      1218.27 cm**-1
  28:      1288.80 cm**-1
  29:      1329.61 cm**-1
  30:      1338.16 cm**-1
  31:      1378.58 cm**-1
  32:      1398.07 cm**-1
  33:      1414.13 cm**-1
  34:      1423.96 cm**-1
  35:      1454.72 cm**-1
  36:      1463.91 cm**-1
  37:      1490.10 cm**-1
  38:      1651.53 cm**-1
  39:      1722.79 cm**-1
  40:      1879.86 cm**-1
  41:      2895.21 cm**-1
  42:      3087.02 cm**-1
  43:      3088.91 cm**-1
  44:      3150.85 cm**-1
  45:      3160.85 cm**-1
  46:      3165.25 cm**-1
  47:      3172.94 cm**-1
  48:      3256.49 cm**-1
  49:      3420.28 cm**-1
  50:      3470.86 cm**-1

IR SPECTRUM
-----------

 Mode    freq (cm**-1)   T**2         TX         TY         TZ
-------------------------------------------------------------------
   7:        62.33    2.398298  (  1.474802  -0.157527  -0.445468)
   8:        90.97    2.916071  ( -1.585585   0.582123   0.251248)
   9:       103.66    9.076481  ( -2.843376   0.873103  -0.478943)
  10:       163.39    7.002868  ( -1.563470  -2.134983   0.016631)
  11:       321.53    3.264751  (  1.510745   0.186710  -0.973417)
  12:       322.77    2.791773  (  1.445295   0.835305  -0.071842)
  13:       442.81    1.335121  (  0.232459   0.376216  -1.067495)
  14:       523.47    8.607836  ( -1.097473  -0.219557  -2.712044)
  15:       667.79   27.220991  (  1.237383   3.349674   3.803887)
  16:       727.70    6.892992  ( -1.613249   2.070913  -0.041698)
  17:       810.53    7.505875  ( -2.356374   1.340036  -0.397087)
  18:       923.43   43.726930  (  3.011184   1.101683   5.783251)
  19:       950.37   55.096590  ( -2.195302  -0.757981  -7.050015)
  20:       974.03    0.323399  (  0.483549   0.189415  -0.231736)
  21:      1018.80   12.270831  ( -0.136459   1.018192   3.348954)
  22:      1020.21   43.583665  (  2.876041   4.753906   3.565450)
  23:      1035.35    8.083211  (  0.651359   2.762791   0.161030)
  24:      1049.68   36.792993  ( -2.603888  -0.931797  -5.398566)
  25:      1088.03    6.629485  (  0.058709  -1.337008   2.199647)
  26:      1162.25    2.370302  (  0.761007   0.506012   1.239000)
  27:      1218.27    0.472301  ( -0.218139  -0.564798   0.325145)
  28:      1288.80    9.235521  ( -0.107295  -0.347501  -3.017160)
  29:      1329.61    7.940919  (  1.653752  -1.080725   2.009492)
  30:      1338.16    9.396623  ( -1.521672   2.551081  -0.757047)
  31:      1378.58    0.510007  (  0.373308  -0.545029  -0.271277)
  32:      1398.07    0.603272  ( -0.465284  -0.388785  -0.485416)
  33:      1414.13   32.331099  ( -1.034554  -1.733210   5.315711)
  34:      1423.96   72.936643  ( -1.362256   0.366865  -8.422963)
  35:      1454.72   30.197974  (  2.569228  -0.940993   4.765666)
  36:      1463.91   12.499888  ( -0.513863  -3.482900   0.324404)
  37:      1490.10   17.292401  ( -3.874445  -1.482004  -0.291104)
  38:      1651.53   39.164325  (  4.665084   4.167942  -0.171986)
  39:      1722.79    2.630647  (  0.029735   0.073761   1.619976)
  40:      1879.86  157.371535  ( -2.876643   1.209216  12.150484)
  41:      2895.21   55.548360  (  7.179122   1.354325  -1.474577)
  42:      3087.02    3.067646  ( -1.108130  -1.301449   0.382000)
  43:      3088.91    3.495262  (  0.425126   0.209245   1.808520)
  44:      3150.85    0.057848  ( -0.038537  -0.130208   0.198517)
  45:      3160.85    1.555111  ( -0.828936  -0.253080   0.896620)
  46:      3165.25    2.132936  (  1.055545  -0.961713  -0.306378)
  47:      3172.94    0.256097  ( -0.428245   0.180924  -0.199924)
  48:      3256.49    0.440047  ( -0.029904  -0.338716   0.569582)
  49:      3420.28   35.848024  (  4.646527   3.773573   0.134009)
  50:      3470.86   66.424059  (  4.954371  -6.471186   0.044864)

--------------------------
THERMOCHEMISTRY AT 298.15K
--------------------------

Temperature         ... 298.15 K
Pressure            ... 1.00 atm
Total Mass          ... 100.14 AMU

Throughout the following assumptions are being made:
  (1) The electronic state is orbitally nondegenerate
  (2) There are no thermally accessible electronically excited states
  (3) Hindered rotations indicated by low frequency modes) are not
      treated as such but are treated as vibrations and this may
      case some error
  (4) All equations used are the standard statistical mechanics
      equations for an ideal gas
  (5) All vibrations are strinctly harmonic

------------
INNER ENERGY
------------

The inner energy is: U= E(el) + E(ZPE) + E(vib) + E(rot) + E(trans)
    E(el)   - is the total energy from the electronic structure calculation
              = E(kin-el) + E(nuc-el) + E(el-el) + E(nuc-nuc)
    E(ZPE)  - the the zero temperature vibrational energy from the frequency calculation
    E(vib)  - the the finite temperature correction to E(ZPE) due to population
              of excietd vibrational states
    E(rot)  - is the rotational thermal energy
    E(trans)- is the translational thermal energy

Summary of contributions to the inner energy U:
Electronic energy                ...   -325.96762493 Eh
Zero point energy                ...      0.14985846 Eh      94.04 kcal/mol
Thermal vibrational correction   ...      0.00488661 Eh       3.07 kcal/mol
Thermal rotational correction    ...      0.00141627 Eh       0.89 kcal/mol
Thermal translational correction ...      0.00141627 Eh       0.89 kcal/mol
-----------------------------------------------------------------------
Total thermal energy                   -325.81004732 Eh

Summary of corrections to the electronic energy:
(perhaps to be used in another calculation)
Total thermal correction                  0.00771915 Eh       4.84 kcal/mol
Non-thermal (ZPE) correction              0.14985846 Eh      94.04 kcal/mol
-----------------------------------------------------------------------
Total correction                          0.15757761 Eh      98.88 kcal/mol

--------
ENTHALPY
--------

The enthalpy is H = U + kB*T
                kB is Boltzmann's constant
Total free energy                 ...   -325.81004732 Eh
Thermal Enthalpy correction       ...      0.00094421 Eh       0.59 kcal/mol
-----------------------------------------------------------------------
Total Enthalpy                    ...   -325.80910311 Eh

-------
ENTROPY
-------

The entropy contributions are T*S = T*(S(el)+S(vib)+S(rot)+S(trans)
     S(el)   - electronic entropy
     S(vib)  - vibrational entropy
     S(rot)  - rotational entropy
     S(trans)- translational entropy
The entropies will be listed as mutliplied by the temperature to get
units of energy

Electronic entropy                ...      0.00000000 Eh      0.00 kcal/mol
Vibrational entropy               ...      0.00939937 Eh      5.90 kcal/mol
Rotational entropy                ...      0.01226721 Eh      7.70 kcal/mol
Translational entropy             ...      0.01887324 Eh     11.84 kcal/mol
-----------------------------------------------------------------------
Final entropy term                ...      0.04053982 Eh     25.44 kcal/mol

CAUTION: The rotational entropy is not quite correctly treated here
         because it includes a symmetry number that is not yet correctly
         implemented in ORCA!
For a nonlinear molecule the correct rotational entropy is:
    S(rot) = R*(ln(qrot/sn)+1.5)
    R    = 8.31441 J/mol/K = 1.987191683e-3 kcal/mol/K
    qrot = 293914.3117494
    sn is the rotational symmetry number. We have assumed 3 here
       if it is different for your molecule then you should correct
       the printed rotational entropy by manually evaluating the equation
       as given above

For convenience we print out the resulting values for sn=1 - 12:
 sn= 1  qrot/sn=  293914.3117 T*S(rot)=     8.35 kcal/mol T*S(tot)=    26.09 kcal/mol
 sn= 2  qrot/sn=  146957.1559 T*S(rot)=     7.94 kcal/mol T*S(tot)=    25.68 kcal/mol
 sn= 3  qrot/sn=   97971.4372 T*S(rot)=     7.70 kcal/mol T*S(tot)=    25.44 kcal/mol
 sn= 4  qrot/sn=   73478.5779 T*S(rot)=     7.53 kcal/mol T*S(tot)=    25.27 kcal/mol
 sn= 5  qrot/sn=   58782.8623 T*S(rot)=     7.40 kcal/mol T*S(tot)=    25.14 kcal/mol
 sn= 6  qrot/sn=   48985.7186 T*S(rot)=     7.29 kcal/mol T*S(tot)=    25.03 kcal/mol
 sn= 7  qrot/sn=   41987.7588 T*S(rot)=     7.20 kcal/mol T*S(tot)=    24.94 kcal/mol
 sn= 8  qrot/sn=   36739.2890 T*S(rot)=     7.12 kcal/mol T*S(tot)=    24.86 kcal/mol
 sn= 9  qrot/sn=   32657.1457 T*S(rot)=     7.05 kcal/mol T*S(tot)=    24.79 kcal/mol
 sn=10  qrot/sn=   29391.4312 T*S(rot)=     6.98 kcal/mol T*S(tot)=    24.73 kcal/mol
 sn=11  qrot/sn=   26719.4829 T*S(rot)=     6.93 kcal/mol T*S(tot)=    24.67 kcal/mol
 sn=12  qrot/sn=   24492.8593 T*S(rot)=     6.88 kcal/mol T*S(tot)=    24.62 kcal/mol

-------------------
GIBBS FREE ENTHALPY
-------------------

The Gibbs free enthalpy is G = H - T*S

Total enthalpy                    ...   -325.80910311 Eh
Total entropy correction          ...     -0.04053982 Eh    -25.44 kcal/mol
-----------------------------------------------------------------------
Final Gibbs free enthalpy         ...   -325.84964293 Eh

For completeness - the Gibbs free enthalpy minus the electronic energy
G-E(el)                           ...      0.11798200 Eh     74.03 kcal/mol

                             ****ORCA TERMINATED NORMALLY****
TOTAL RUN TIME: 0 days 0 hours 30 minutes 48 seconds 339 msec
