                         Program Version 3.0.3 - RELEASE   -
|  1> ! NORI PBE0 def2-TZVP UseSym TightOPT Freq TightSCF Grid3 FinalGrid5 XYZFile
|  2> % pal
|  3>     nprocs 8
|  4> end
|  5> %method
|  6>     SymThresh 5.0e-2
|  7> end
|  8> % geom
|  9>     MaxIter 10
| 10> end
| 11> % maxcore 2000
| 12> % output
| 13>     printlevel mini
| 14>     print[ P_Basis ] 0
| 15>     print[ P_SCFInfo ] 1
| 16>     print[ P_SCFIterInfo ] 1
| 17>     print[ P_OrbEn ] 0
| 18>     print[ P_Cartesian ] 0
| 19> end
| 20> % elprop
| 21>     Dipole false
| 22> end
| 23> *xyz 1 1
| 24>  C        0.5918583845    -0.3275273184    -0.3917176269
| 25>  C        1.9971142801     0.0991909946    -0.7608295273
| 26>  C        2.0906787211     0.6772438726    -2.1560446324
| 27>  N        2.4617354914     1.1209702864     0.2547876522
| 28>  C        3.9275341517     1.3880535920     0.3214478709
| 29>  C        4.1501339384     2.6463353046     1.1306979575
| 30>  O        3.2822664926     3.6040199717     0.5685459166
| 31>  H        0.2582408543    -1.1034829772    -1.0812968733
| 32>  H       -0.1124249636     0.5053220644    -0.4676966269
| 33>  H        0.5399566064    -0.7453329708     0.6173480578
| 34>  H        2.6860060472    -0.7425012056    -0.6474077228
| 35>  H        1.4218054526     1.5343109524    -2.2729337662
| 36>  H        1.7791378061    -0.0835129229    -2.8724576929
| 37>  H        3.1020708783     0.9806979696    -2.4281836498
| 38>  H        2.1340308051     0.8299358455     1.1775845789
| 39>  H        2.0188060528     2.0308199351     0.0712950554
| 40>  H        4.2741288491     1.5299711663    -0.7008150884
| 41>  H        4.4231801887     0.5207059208     0.7564701731
| 42>  H        5.2032413611     2.9332761123     1.0466442533
| 43>  H        3.9275534950     2.4745145669     2.1924510587
| 44>  H        3.4001151072     4.4614188398     0.9866706327
| 45> *
| 46>
| 47>                          ****END OF INPUT****
 Total Charge           Charge          ....    1
 Multiplicity           Mult            ....    1
 Number of Electrons    NEL             ....   58
FINAL SINGLE POINT ENERGY      -328.445612354050
FINAL SINGLE POINT ENERGY      -328.445614836009
FINAL SINGLE POINT ENERGY      -328.445616837051

CARTESIAN COORDINATES (ANGSTROEM)
---------------------------------
  C      0.722548   -1.377999   -2.174505
  C     -0.136141   -0.314936   -1.521968
  C     -1.580387   -0.737348   -1.364561
  N      0.459636    0.002209   -0.167270
  C      0.024520    1.270761    0.485114
  C      0.456287    1.237352    1.934191
  O     -0.003365   -0.000897    2.426411
  H      0.337770   -1.591369   -3.171956
  H      0.701258   -2.312306   -1.606944
  H      1.761043   -1.055818   -2.288732
  H     -0.069505    0.619822   -2.085341
  H     -1.661032   -1.655668   -0.776330
  H     -1.995305   -0.942453   -2.351792
  H     -2.204943    0.030347   -0.906681
  H      1.477390    0.005469   -0.255219
  H      0.236503   -0.747157    0.500948
  H     -1.061313    1.310611    0.415527
  H      0.455226    2.111640   -0.057936
  H      0.005586    2.089506    2.452562
  H      1.547689    1.325068    2.020082
  H      0.181035   -0.086573    3.365852

FINAL SINGLE POINT ENERGY      -328.445617214193
                    ***********************HURRAY********************
 Multiplicity           Mult            ....    1
 Number of Electrons    NEL             ....   58
 Basis Dimension        Dim             ....  301
FINAL SINGLE POINT ENERGY      -328.445617571698

VIBRATIONAL FREQUENCIES
-----------------------

   0:         0.00 cm**-1
   1:         0.00 cm**-1
   2:         0.00 cm**-1
   3:         0.00 cm**-1
   4:         0.00 cm**-1
   5:         0.00 cm**-1
   6:        40.00 cm**-1
   7:        79.12 cm**-1
   8:       176.05 cm**-1
   9:       187.24 cm**-1
  10:       219.81 cm**-1
  11:       256.65 cm**-1
  12:       298.62 cm**-1
  13:       308.96 cm**-1
  14:       376.63 cm**-1
  15:       405.37 cm**-1
  16:       449.13 cm**-1
  17:       538.67 cm**-1
  18:       808.12 cm**-1
  19:       818.97 cm**-1
  20:       909.18 cm**-1
  21:       925.02 cm**-1
  22:       939.20 cm**-1
  23:       954.15 cm**-1
  24:       965.21 cm**-1
  25:      1034.56 cm**-1
  26:      1089.34 cm**-1
  27:      1107.21 cm**-1
  28:      1146.19 cm**-1
  29:      1178.31 cm**-1
  30:      1185.60 cm**-1
  31:      1230.24 cm**-1
  32:      1252.03 cm**-1
  33:      1298.19 cm**-1
  34:      1336.99 cm**-1
  35:      1364.17 cm**-1
  36:      1394.27 cm**-1
  37:      1402.73 cm**-1
  38:      1419.36 cm**-1
  39:      1421.45 cm**-1
  40:      1439.65 cm**-1
  41:      1454.93 cm**-1
  42:      1467.17 cm**-1
  43:      1480.55 cm**-1
  44:      1489.39 cm**-1
  45:      1497.67 cm**-1
  46:      1502.11 cm**-1
  47:      1518.40 cm**-1
  48:      1650.92 cm**-1
  49:      3022.42 cm**-1
  50:      3052.83 cm**-1
  51:      3061.75 cm**-1
  52:      3086.46 cm**-1
  53:      3087.07 cm**-1
  54:      3116.46 cm**-1
  55:      3128.52 cm**-1
  56:      3143.29 cm**-1
  57:      3153.88 cm**-1
  58:      3158.20 cm**-1
  59:      3179.45 cm**-1
  60:      3370.72 cm**-1
  61:      3472.27 cm**-1
  62:      3869.26 cm**-1

IR SPECTRUM
-----------

 Mode    freq (cm**-1)   T**2         TX         TY         TZ
-------------------------------------------------------------------
   6:        40.00    1.229770  (  0.924164  -0.488778   0.369846)
   7:        79.12    1.867721  (  0.561477   1.088651   0.606055)
   8:       176.05    8.706865  (  1.608057  -0.144374  -2.469853)
   9:       187.24   12.916269  ( -3.108384   0.643093   1.685423)
  10:       219.81    3.932846  (  1.418482   0.021421  -1.385748)
  11:       256.65    6.444430  ( -2.497790   0.238517   0.385466)
  12:       298.62  105.333713  (  9.256128  -4.186413  -1.460052)
  13:       308.96   12.598466  ( -2.831998   0.631575   2.044349)
  14:       376.63   14.988227  ( -0.447581   0.312822   3.832759)
  15:       405.37    2.439241  ( -1.264542   0.314315  -0.861035)
  16:       449.13    3.245916  (  0.111723  -0.835004  -1.592546)
  17:       538.67   14.386151  (  0.774776   3.639053  -0.736996)
  18:       808.12    3.191674  ( -1.756144   0.275092   0.178767)
  19:       818.97    1.595912  (  0.896199   0.888871  -0.051451)
  20:       909.18    2.787038  (  1.442034   0.506482  -0.671603)
  21:       925.02   11.970894  (  1.248921   3.187184  -0.502941)
  22:       939.20    1.619278  ( -1.240059  -0.014645   0.285163)
  23:       954.15    2.617547  (  0.521002   0.698692   1.363060)
  24:       965.21    1.211984  (  0.779652   0.685465  -0.366419)
  25:      1034.56   24.950173  ( -0.831174  -4.328151  -2.350837)
  26:      1089.34    8.232291  ( -1.428047  -2.476243  -0.247370)
  27:      1107.21   89.439720  ( -1.651199  -5.752732   7.322523)
  28:      1146.19   16.105245  (  1.094290   2.268523   3.124352)
  29:      1178.31    9.786052  (  1.721239   2.079550   1.580778)
  30:      1185.60    0.346518  ( -0.185373   0.545566  -0.120469)
  31:      1230.24   10.402852  (  1.574785   2.719436  -0.726341)
  32:      1252.03    8.876000  ( -2.092454  -0.565009   2.044114)
  33:      1298.19   35.004772  ( -2.174453  -5.494793  -0.289436)
  34:      1336.99   24.323839  (  0.358222   2.278624   4.359288)
  35:      1364.17    5.422025  (  1.239486   0.756683  -1.820201)
  36:      1394.27   31.893329  (  1.924325   4.117162   3.352503)
  37:      1402.73   34.459882  ( -0.722178   3.010103   4.987747)
  38:      1419.36   20.079154  (  3.912973   1.195833   1.826959)
  39:      1421.45   66.230974  (  0.154876  -5.362695  -6.119517)
  40:      1439.65   26.569846  (  2.216398  -0.895584  -4.566767)
  41:      1454.93    7.521493  ( -0.609094  -1.973145  -1.804771)
  42:      1467.17    0.336857  (  0.280960  -0.323859   0.391195)
  43:      1480.55    0.840528  ( -0.086331  -0.477560   0.777825)
  44:      1489.39    6.473067  ( -2.408457  -0.391803  -0.720343)
  45:      1497.67    6.348942  (  1.474647   0.395861   2.004408)
  46:      1502.11   33.453343  (  1.139134  -3.413369   4.528204)
  47:      1518.40    4.424783  (  1.028926   0.002765   1.834690)
  48:      1650.92   44.563826  (  4.297378  -3.920256   3.275357)
  49:      3022.42   25.530955  ( -4.241347  -2.743867   0.114574)
  50:      3052.83    4.013000  (  1.835363  -0.449253   0.665293)
  51:      3061.75    2.283010  (  0.337654   0.024169  -1.472554)
  52:      3086.46    7.780480  ( -1.460232   2.366891   0.214546)
  53:      3087.07    1.426616  (  0.664831   0.470393  -0.873697)
  54:      3116.46    0.942377  (  0.511512  -0.691243   0.450461)
  55:      3128.52    7.882061  (  2.123914   1.607830  -0.886529)
  56:      3143.29    6.205916  (  0.313080  -2.463778   0.194153)
  57:      3153.88    3.272697  (  1.225441  -1.327684  -0.090821)
  58:      3158.20    2.293186  ( -0.393063   0.681555   1.293897)
  59:      3179.45    0.690131  (  0.695272  -0.112383  -0.440565)
  60:      3370.72   77.181266  ( -0.205842   3.925471  -7.856817)
  61:      3472.27   47.600270  ( -6.060448  -0.860718   3.182830)
  62:      3869.26  126.693593  ( -0.838324   2.914377 -10.839613)

--------------------------
THERMOCHEMISTRY AT 298.15K
--------------------------

Temperature         ... 298.15 K
Pressure            ... 1.00 atm
Total Mass          ... 104.17 AMU

Throughout the following assumptions are being made:
  (1) The electronic state is orbitally nondegenerate
  (2) There are no thermally accessible electronically excited states
  (3) Hindered rotations indicated by low frequency modes) are not
      treated as such but are treated as vibrations and this may
      case some error
  (4) All equations used are the standard statistical mechanics
      equations for an ideal gas
  (5) All vibrations are strinctly harmonic

------------
INNER ENERGY
------------

The inner energy is: U= E(el) + E(ZPE) + E(vib) + E(rot) + E(trans)
    E(el)   - is the total energy from the electronic structure calculation
              = E(kin-el) + E(nuc-el) + E(el-el) + E(nuc-nuc)
    E(ZPE)  - the the zero temperature vibrational energy from the frequency calculation
    E(vib)  - the the finite temperature correction to E(ZPE) due to population
              of excietd vibrational states
    E(rot)  - is the rotational thermal energy
    E(trans)- is the translational thermal energy

Summary of contributions to the inner energy U:
Electronic energy                ...   -328.44561757 Eh
Zero point energy                ...      0.19801859 Eh     124.26 kcal/mol
Thermal vibrational correction   ...      0.00640324 Eh       4.02 kcal/mol
Thermal rotational correction    ...      0.00141627 Eh       0.89 kcal/mol
Thermal translational correction ...      0.00141627 Eh       0.89 kcal/mol
-----------------------------------------------------------------------
Total thermal energy                   -328.23836320 Eh

Summary of corrections to the electronic energy:
(perhaps to be used in another calculation)
Total thermal correction                  0.00923578 Eh       5.80 kcal/mol
Non-thermal (ZPE) correction              0.19801859 Eh     124.26 kcal/mol
-----------------------------------------------------------------------
Total correction                          0.20725437 Eh     130.05 kcal/mol

--------
ENTHALPY
--------

The enthalpy is H = U + kB*T
                kB is Boltzmann's constant
Total free energy                 ...   -328.23836320 Eh
Thermal Enthalpy correction       ...      0.00094421 Eh       0.59 kcal/mol
-----------------------------------------------------------------------
Total Enthalpy                    ...   -328.23741899 Eh

-------
ENTROPY
-------

The entropy contributions are T*S = T*(S(el)+S(vib)+S(rot)+S(trans)
     S(el)   - electronic entropy
     S(vib)  - vibrational entropy
     S(rot)  - rotational entropy
     S(trans)- translational entropy
The entropies will be listed as mutliplied by the temperature to get
units of energy

Electronic entropy                ...      0.00000000 Eh      0.00 kcal/mol
Vibrational entropy               ...      0.01200082 Eh      7.53 kcal/mol
Rotational entropy                ...      0.01234786 Eh      7.75 kcal/mol
Translational entropy             ...      0.01892914 Eh     11.88 kcal/mol
-----------------------------------------------------------------------
Final entropy term                ...      0.04327782 Eh     27.16 kcal/mol

CAUTION: The rotational entropy is not quite correctly treated here
         because it includes a symmetry number that is not yet correctly
         implemented in ORCA!
For a nonlinear molecule the correct rotational entropy is:
    S(rot) = R*(ln(qrot/sn)+1.5)
    R    = 8.31441 J/mol/K = 1.987191683e-3 kcal/mol/K
    qrot = 320123.9109647
    sn is the rotational symmetry number. We have assumed 3 here
       if it is different for your molecule then you should correct
       the printed rotational entropy by manually evaluating the equation
       as given above

For convenience we print out the resulting values for sn=1 - 12:
 sn= 1  qrot/sn=  320123.9110 T*S(rot)=     8.40 kcal/mol T*S(tot)=    27.81 kcal/mol
 sn= 2  qrot/sn=  160061.9555 T*S(rot)=     7.99 kcal/mol T*S(tot)=    27.40 kcal/mol
 sn= 3  qrot/sn=  106707.9703 T*S(rot)=     7.75 kcal/mol T*S(tot)=    27.16 kcal/mol
 sn= 4  qrot/sn=   80030.9777 T*S(rot)=     7.58 kcal/mol T*S(tot)=    26.99 kcal/mol
 sn= 5  qrot/sn=   64024.7822 T*S(rot)=     7.45 kcal/mol T*S(tot)=    26.85 kcal/mol
 sn= 6  qrot/sn=   53353.9852 T*S(rot)=     7.34 kcal/mol T*S(tot)=    26.75 kcal/mol
 sn= 7  qrot/sn=   45731.9873 T*S(rot)=     7.25 kcal/mol T*S(tot)=    26.66 kcal/mol
 sn= 8  qrot/sn=   40015.4889 T*S(rot)=     7.17 kcal/mol T*S(tot)=    26.58 kcal/mol
 sn= 9  qrot/sn=   35569.3234 T*S(rot)=     7.10 kcal/mol T*S(tot)=    26.51 kcal/mol
 sn=10  qrot/sn=   32012.3911 T*S(rot)=     7.04 kcal/mol T*S(tot)=    26.44 kcal/mol
 sn=11  qrot/sn=   29102.1737 T*S(rot)=     6.98 kcal/mol T*S(tot)=    26.39 kcal/mol
 sn=12  qrot/sn=   26676.9926 T*S(rot)=     6.93 kcal/mol T*S(tot)=    26.34 kcal/mol

-------------------
GIBBS FREE ENTHALPY
-------------------

The Gibbs free enthalpy is G = H - T*S

Total enthalpy                    ...   -328.23741899 Eh
Total entropy correction          ...     -0.04327782 Eh    -27.16 kcal/mol
-----------------------------------------------------------------------
Final Gibbs free enthalpy         ...   -328.28069681 Eh

For completeness - the Gibbs free enthalpy minus the electronic energy
G-E(el)                           ...      0.16492076 Eh    103.49 kcal/mol

                             ****ORCA TERMINATED NORMALLY****
TOTAL RUN TIME: 0 days 0 hours 50 minutes 17 seconds 703 msec
