                         Program Version 3.0.3 - RELEASE   -
|  1> ! NORI PBE0 def2-TZVP UseSym TightOPT Freq TightSCF Grid3 FinalGrid5 XYZFile
|  2> % pal
|  3>     nprocs 8
|  4> end
|  5> %method
|  6>     SymThresh 5.0e-2
|  7> end
|  8> % geom
|  9>     MaxIter 10
| 10> end
| 11> % maxcore 2000
| 12> % output
| 13>     printlevel mini
| 14>     print[ P_Basis ] 0
| 15>     print[ P_SCFInfo ] 1
| 16>     print[ P_SCFIterInfo ] 1
| 17>     print[ P_OrbEn ] 0
| 18>     print[ P_Cartesian ] 0
| 19> end
| 20> % elprop
| 21>     Dipole false
| 22> end
| 23> *xyz 1 1
| 24>  C        0.7880246825     0.5324453065     0.2938996059
| 25>  C        2.2529341260     0.4237757752    -0.0913132414
| 26>  C        2.4443591311     0.4942658736    -1.5946138652
| 27>  N        2.9576268306     1.6328102673     0.5165263509
| 28>  C        2.9423358188    -0.8128562115     0.4938802725
| 29>  C        2.7745082427    -1.0272869681     1.9850080261
| 30>  O        3.2242539243     0.1503091141     2.6583848411
| 31>  H        0.2548776712    -0.3541321698    -0.0517377100
| 32>  H        0.3198094062     1.3987395672    -0.1802979620
| 33>  H        0.6469755094     0.6102724745     1.3736334592
| 34>  H        1.9158013533    -0.3319479149    -2.0711416008
| 35>  H        3.4993166136     0.4147402348    -1.8715303428
| 36>  H        2.0405959538     1.4223043774    -2.0077758796
| 37>  H        2.4385943416     2.4927554325     0.3415874375
| 38>  H        3.8953835055     1.7418453397     0.1297619840
| 39>  H        3.0499561811     1.4517284274     1.5385794108
| 40>  H        4.0098378615    -0.7755438266     0.2487713947
| 41>  H        2.5429170044    -1.6882441853    -0.0241039119
| 42>  H        3.3725150505    -1.8894827424     2.2919701375
| 43>  H        1.7297352212    -1.2311780099     2.2396324876
| 44>  H        3.1986815706     0.0273798382     3.6115691061
| 45> *
| 46>
| 47>                          ****END OF INPUT****
 Total Charge           Charge          ....    1
 Multiplicity           Mult            ....    1
 Number of Electrons    NEL             ....   58
FINAL SINGLE POINT ENERGY      -328.457690200573
FINAL SINGLE POINT ENERGY      -328.457692200195
FINAL SINGLE POINT ENERGY      -328.457692324680

CARTESIAN COORDINATES (ANGSTROEM)
---------------------------------
  C     -0.222979    1.497000   -0.932879
  C      0.162232    0.034303   -0.794877
  C      0.401794   -0.610698   -2.147264
  N      1.481652   -0.001115   -0.029498
  C     -0.835653   -0.779822    0.034940
  C     -1.205495   -0.202573    1.386961
  O     -0.001449    0.004465    2.127751
  H     -1.205007    1.571496   -1.401418
  H      0.484235    2.030372   -1.573443
  H     -0.270164    2.008131    0.030622
  H     -0.510285   -0.561573   -2.743034
  H      0.676272   -1.664707   -2.050364
  H      1.185687   -0.092192   -2.705368
  H      2.144158    0.680720   -0.397745
  H      1.911029   -0.925024   -0.083938
  H      1.260452    0.193119    0.970486
  H     -0.445573   -1.795580    0.166692
  H     -1.750018   -0.880745   -0.554744
  H     -1.855608   -0.907887    1.911524
  H     -1.747745    0.742064    1.277407
  H     -0.197895    0.305619    3.019213

FINAL SINGLE POINT ENERGY      -328.457693231516
                    ***********************HURRAY********************
 Multiplicity           Mult            ....    1
 Number of Electrons    NEL             ....   58
 Basis Dimension        Dim             ....  301
FINAL SINGLE POINT ENERGY      -328.457693329919

VIBRATIONAL FREQUENCIES
-----------------------

   0:         0.00 cm**-1
   1:         0.00 cm**-1
   2:         0.00 cm**-1
   3:         0.00 cm**-1
   4:         0.00 cm**-1
   5:         0.00 cm**-1
   6:        89.75 cm**-1
   7:       219.39 cm**-1
   8:       248.89 cm**-1
   9:       258.00 cm**-1
  10:       282.50 cm**-1
  11:       302.24 cm**-1
  12:       315.89 cm**-1
  13:       329.24 cm**-1
  14:       370.70 cm**-1
  15:       403.45 cm**-1
  16:       418.67 cm**-1
  17:       423.52 cm**-1
  18:       560.56 cm**-1
  19:       716.44 cm**-1
  20:       829.15 cm**-1
  21:       875.28 cm**-1
  22:       925.84 cm**-1
  23:       954.64 cm**-1
  24:       975.67 cm**-1
  25:       984.92 cm**-1
  26:      1022.74 cm**-1
  27:      1056.09 cm**-1
  28:      1100.96 cm**-1
  29:      1113.90 cm**-1
  30:      1158.18 cm**-1
  31:      1231.53 cm**-1
  32:      1252.18 cm**-1
  33:      1288.20 cm**-1
  34:      1311.75 cm**-1
  35:      1345.36 cm**-1
  36:      1394.72 cm**-1
  37:      1412.69 cm**-1
  38:      1426.28 cm**-1
  39:      1445.17 cm**-1
  40:      1462.97 cm**-1
  41:      1470.98 cm**-1
  42:      1483.45 cm**-1
  43:      1496.24 cm**-1
  44:      1498.74 cm**-1
  45:      1505.42 cm**-1
  46:      1524.94 cm**-1
  47:      1637.29 cm**-1
  48:      1668.81 cm**-1
  49:      3050.06 cm**-1
  50:      3052.38 cm**-1
  51:      3056.92 cm**-1
  52:      3060.65 cm**-1
  53:      3103.63 cm**-1
  54:      3109.57 cm**-1
  55:      3119.45 cm**-1
  56:      3127.38 cm**-1
  57:      3135.27 cm**-1
  58:      3150.80 cm**-1
  59:      3154.94 cm**-1
  60:      3471.79 cm**-1
  61:      3535.00 cm**-1
  62:      3865.26 cm**-1

IR SPECTRUM
-----------

 Mode    freq (cm**-1)   T**2         TX         TY         TZ
-------------------------------------------------------------------
   6:        89.75    4.746937  (  0.486840  -2.115092  -0.190546)
   7:       219.39   10.083353  (  1.185768   2.149136  -2.014577)
   8:       248.89    6.464943  ( -1.245797  -0.821251   2.058757)
   9:       258.00    5.089666  (  1.452152  -0.574153  -1.628271)
  10:       282.50   14.465322  (  0.002169  -2.742979   2.634651)
  11:       302.24    4.195666  (  0.813845  -0.875992   1.663118)
  12:       315.89   67.916305  ( -1.917119   7.990073  -0.632210)
  13:       329.24   37.670572  (  0.062531   5.763765  -2.108478)
  14:       370.70   41.635218  ( -2.270257  -2.233033   5.612015)
  15:       403.45    4.185143  (  2.008271   0.163031   0.354137)
  16:       418.67    6.895957  (  1.827281   1.509881  -1.130158)
  17:       423.52    2.920245  (  1.054437   1.343968   0.046469)
  18:       560.56   17.515010  (  0.347631   0.176257   4.166905)
  19:       716.44    0.373287  ( -0.200355   0.023550   0.576706)
  20:       829.15   13.058137  (  1.871603   0.251567   3.080901)
  21:       875.28    2.704724  ( -1.093949  -0.827890  -0.906972)
  22:       925.84    6.694978  (  0.925275   0.693987  -2.314568)
  23:       954.64    0.311256  (  0.018197   0.342573   0.439965)
  24:       975.67    8.492413  ( -0.277508  -1.224602  -2.629782)
  25:       984.92    3.393777  ( -1.440175   0.793738   0.830454)
  26:      1022.74   10.030451  ( -0.717184   0.613707   3.023154)
  27:      1056.09   12.575607  (  2.647534   2.358599   0.056412)
  28:      1100.96   43.428006  (  4.096065   0.597949   5.127642)
  29:      1113.90   14.605323  ( -3.743915  -0.733508   0.224470)
  30:      1158.18    3.564504  (  1.774504  -0.119179   0.633590)
  31:      1231.53   58.401790  ( -6.752905   1.072385  -3.413218)
  32:      1252.18   22.668132  ( -3.182239  -1.974048  -2.940174)
  33:      1288.20   34.065302  ( -1.487214  -0.062319  -5.643546)
  34:      1311.75    6.480551  (  1.801728  -1.089424  -1.430903)
  35:      1345.36   18.639306  (  3.159633   2.586173  -1.402758)
  36:      1394.72   11.178983  (  1.263689   1.135719  -2.879621)
  37:      1412.69   24.808335  (  0.950826  -4.284015  -2.356157)
  38:      1426.28   29.959962  (  4.053436  -1.487326   3.364147)
  39:      1445.17    7.995813  (  1.853775   1.665057   1.336756)
  40:      1462.97    6.757943  (  2.116333   1.168659   0.955675)
  41:      1470.98    1.825156  ( -1.262408   0.325500  -0.354306)
  42:      1483.45    4.666752  (  0.425861   1.798168   1.118922)
  43:      1496.24   11.641191  ( -3.245153  -0.508118   0.923031)
  44:      1498.74   57.411459  ( -7.399090  -1.527902   0.574841)
  45:      1505.42  119.312513  ( 10.817454  -0.425851   1.453913)
  46:      1524.94   13.834649  ( -2.811304   1.603741   1.832821)
  47:      1637.29   21.084512  ( -0.234897   4.521027  -0.767889)
  48:      1668.81   44.897272  ( -3.417080  -3.485485   4.590450)
  49:      3050.06    8.405464  ( -2.759949  -0.410098   0.787378)
  50:      3052.38    1.385322  (  0.989400   0.606428  -0.196607)
  51:      3056.92   29.241623  (  4.388190  -2.832686  -1.400466)
  52:      3060.65    1.683989  (  0.889066   0.841365   0.430877)
  53:      3103.63   10.441014  ( -0.722119  -2.994049   0.977359)
  54:      3109.57  436.978776  (  7.790712  -0.867569 -19.378620)
  55:      3119.45    3.165844  ( -0.793412   1.481447  -0.584512)
  56:      3127.38    9.098124  ( -0.521793  -2.699019   1.241432)
  57:      3135.27   14.849457  ( -1.935739  -0.265056   3.321463)
  58:      3150.80    5.301524  (  1.253735  -1.065875  -1.610461)
  59:      3154.94    2.661673  (  1.492910   0.613446  -0.237859)
  60:      3471.79   65.689489  (  7.052227  -1.513573  -3.696576)
  61:      3535.00   57.702072  ( -1.428541  -7.322714   1.428004)
  62:      3865.26  120.275223  ( -0.239747   2.914969  10.569801)

--------------------------
THERMOCHEMISTRY AT 298.15K
--------------------------

Temperature         ... 298.15 K
Pressure            ... 1.00 atm
Total Mass          ... 104.17 AMU

Throughout the following assumptions are being made:
  (1) The electronic state is orbitally nondegenerate
  (2) There are no thermally accessible electronically excited states
  (3) Hindered rotations indicated by low frequency modes) are not
      treated as such but are treated as vibrations and this may
      case some error
  (4) All equations used are the standard statistical mechanics
      equations for an ideal gas
  (5) All vibrations are strinctly harmonic

------------
INNER ENERGY
------------

The inner energy is: U= E(el) + E(ZPE) + E(vib) + E(rot) + E(trans)
    E(el)   - is the total energy from the electronic structure calculation
              = E(kin-el) + E(nuc-el) + E(el-el) + E(nuc-nuc)
    E(ZPE)  - the the zero temperature vibrational energy from the frequency calculation
    E(vib)  - the the finite temperature correction to E(ZPE) due to population
              of excietd vibrational states
    E(rot)  - is the rotational thermal energy
    E(trans)- is the translational thermal energy

Summary of contributions to the inner energy U:
Electronic energy                ...   -328.45769333 Eh
Zero point energy                ...      0.19771411 Eh     124.07 kcal/mol
Thermal vibrational correction   ...      0.00596959 Eh       3.75 kcal/mol
Thermal rotational correction    ...      0.00141627 Eh       0.89 kcal/mol
Thermal translational correction ...      0.00141627 Eh       0.89 kcal/mol
-----------------------------------------------------------------------
Total thermal energy                   -328.25117709 Eh

Summary of corrections to the electronic energy:
(perhaps to be used in another calculation)
Total thermal correction                  0.00880214 Eh       5.52 kcal/mol
Non-thermal (ZPE) correction              0.19771411 Eh     124.07 kcal/mol
-----------------------------------------------------------------------
Total correction                          0.20651624 Eh     129.59 kcal/mol

--------
ENTHALPY
--------

The enthalpy is H = U + kB*T
                kB is Boltzmann's constant
Total free energy                 ...   -328.25117709 Eh
Thermal Enthalpy correction       ...      0.00094421 Eh       0.59 kcal/mol
-----------------------------------------------------------------------
Total Enthalpy                    ...   -328.25023288 Eh

-------
ENTROPY
-------

The entropy contributions are T*S = T*(S(el)+S(vib)+S(rot)+S(trans)
     S(el)   - electronic entropy
     S(vib)  - vibrational entropy
     S(rot)  - rotational entropy
     S(trans)- translational entropy
The entropies will be listed as mutliplied by the temperature to get
units of energy

Electronic entropy                ...      0.00000000 Eh      0.00 kcal/mol
Vibrational entropy               ...      0.00978593 Eh      6.14 kcal/mol
Rotational entropy                ...      0.01211731 Eh      7.60 kcal/mol
Translational entropy             ...      0.01892914 Eh     11.88 kcal/mol
-----------------------------------------------------------------------
Final entropy term                ...      0.04083238 Eh     25.62 kcal/mol

CAUTION: The rotational entropy is not quite correctly treated here
         because it includes a symmetry number that is not yet correctly
         implemented in ORCA!
For a nonlinear molecule the correct rotational entropy is:
    S(rot) = R*(ln(qrot/sn)+1.5)
    R    = 8.31441 J/mol/K = 1.987191683e-3 kcal/mol/K
    qrot = 250769.3835320
    sn is the rotational symmetry number. We have assumed 3 here
       if it is different for your molecule then you should correct
       the printed rotational entropy by manually evaluating the equation
       as given above

For convenience we print out the resulting values for sn=1 - 12:
 sn= 1  qrot/sn=  250769.3835 T*S(rot)=     8.25 kcal/mol T*S(tot)=    26.27 kcal/mol
 sn= 2  qrot/sn=  125384.6918 T*S(rot)=     7.84 kcal/mol T*S(tot)=    25.86 kcal/mol
 sn= 3  qrot/sn=   83589.7945 T*S(rot)=     7.60 kcal/mol T*S(tot)=    25.62 kcal/mol
 sn= 4  qrot/sn=   62692.3459 T*S(rot)=     7.43 kcal/mol T*S(tot)=    25.45 kcal/mol
 sn= 5  qrot/sn=   50153.8767 T*S(rot)=     7.30 kcal/mol T*S(tot)=    25.32 kcal/mol
 sn= 6  qrot/sn=   41794.8973 T*S(rot)=     7.19 kcal/mol T*S(tot)=    25.21 kcal/mol
 sn= 7  qrot/sn=   35824.1976 T*S(rot)=     7.10 kcal/mol T*S(tot)=    25.12 kcal/mol
 sn= 8  qrot/sn=   31346.1729 T*S(rot)=     7.02 kcal/mol T*S(tot)=    25.04 kcal/mol
 sn= 9  qrot/sn=   27863.2648 T*S(rot)=     6.95 kcal/mol T*S(tot)=    24.97 kcal/mol
 sn=10  qrot/sn=   25076.9384 T*S(rot)=     6.89 kcal/mol T*S(tot)=    24.91 kcal/mol
 sn=11  qrot/sn=   22797.2167 T*S(rot)=     6.83 kcal/mol T*S(tot)=    24.85 kcal/mol
 sn=12  qrot/sn=   20897.4486 T*S(rot)=     6.78 kcal/mol T*S(tot)=    24.80 kcal/mol

-------------------
GIBBS FREE ENTHALPY
-------------------

The Gibbs free enthalpy is G = H - T*S

Total enthalpy                    ...   -328.25023288 Eh
Total entropy correction          ...     -0.04083238 Eh    -25.62 kcal/mol
-----------------------------------------------------------------------
Final Gibbs free enthalpy         ...   -328.29106526 Eh

For completeness - the Gibbs free enthalpy minus the electronic energy
G-E(el)                           ...      0.16662807 Eh    104.56 kcal/mol

                             ****ORCA TERMINATED NORMALLY****
TOTAL RUN TIME: 0 days 0 hours 56 minutes 58 seconds 491 msec
