                         Program Version 3.0.3 - RELEASE   -
|  1> ! NORI PBE0 def2-TZVP UseSym TightOPT Freq TightSCF Grid3 FinalGrid5 XYZFile
|  2> % pal
|  3>     nprocs 8
|  4> end
|  5> %method
|  6>     SymThresh 5.0e-2
|  7> end
|  8> % geom
|  9>     MaxIter 10
| 10> end
| 11> % maxcore 2000
| 12> % output
| 13>     printlevel mini
| 14>     print[ P_Basis ] 0
| 15>     print[ P_SCFInfo ] 1
| 16>     print[ P_SCFIterInfo ] 1
| 17>     print[ P_OrbEn ] 0
| 18>     print[ P_Cartesian ] 0
| 19> end
| 20> % elprop
| 21>     Dipole false
| 22> end
| 23> *xyz 1 1
| 24>  C        0.8808946066    -0.0876966520     0.0007765810
| 25>  C        2.3731469621     0.1498396762    -0.0804484608
| 26>  C        2.7539992095     1.6106012318    -0.0133425355
| 27>  N        3.0254284292    -0.6128933454     1.0675393253
| 28>  C        4.5098358883    -0.7109030655     1.0367732797
| 29>  C        5.0592503175    -1.4975576653     2.2198234985
| 30>  O        6.0973805489    -2.0714602985     2.1493706885
| 31>  H        0.3957963985     0.3936126011    -0.8490583064
| 32>  H        0.4523507831     0.3458479610     0.9091964834
| 33>  H        0.6268711721    -1.1502569565    -0.0415861021
| 34>  H        2.7832600116    -0.3144669848    -0.9814964999
| 35>  H        2.4110298977     2.0710451138     0.9183792618
| 36>  H        2.2597242554     2.1344258727    -0.8324366769
| 37>  H        3.8251074903     1.7819290080    -0.1273042808
| 38>  H        2.6266341579    -1.5549949182     1.0730335573
| 39>  H        2.7240032716    -0.1771536921     1.9439323447
| 40>  H        4.9206956679     0.3003794107     1.0733701236
| 41>  H        4.8146630495    -1.1824923026     0.1025829682
| 42>  H        4.4559078826    -1.4741149944     3.1558247505
| 43> *
| 44>
| 45>                          ****END OF INPUT****
 Total Charge           Charge          ....    1
 Multiplicity           Mult            ....    1
 Number of Electrons    NEL             ....   56
FINAL SINGLE POINT ENERGY      -327.207542117361
FINAL SINGLE POINT ENERGY      -327.207532840510
FINAL SINGLE POINT ENERGY      -327.207546084108

CARTESIAN COORDINATES (ANGSTROEM)
---------------------------------
  C      0.932826    0.556326   -2.600002
  C     -0.171763    0.413032   -1.575433
  C     -1.232909   -0.588014   -1.970967
  N      0.472489   -0.002646   -0.257259
  C     -0.401058    0.036011    0.947085
  C      0.340455   -0.386065    2.209079
  O      0.001505    0.000810    3.280454
  H      0.506348    0.917573   -3.536191
  H      1.415323   -0.402452   -2.809400
  H      1.693336    1.278494   -2.291568
  H     -0.620385    1.386867   -1.362387
  H     -0.808439   -1.586258   -2.113875
  H     -1.659924   -0.279454   -2.925860
  H     -2.056875   -0.646098   -1.259144
  H      1.279422    0.607389   -0.105729
  H      0.854117   -0.944849   -0.379310
  H     -1.233942   -0.651743    0.787830
  H     -0.794235    1.045363    1.066883
  H      1.188971   -1.093491    2.074510

FINAL SINGLE POINT ENERGY      -327.207546819411
                    ***********************HURRAY********************
 Multiplicity           Mult            ....    1
 Number of Electrons    NEL             ....   56
 Basis Dimension        Dim             ....  289
FINAL SINGLE POINT ENERGY      -327.207548152317

VIBRATIONAL FREQUENCIES
-----------------------

   0:         0.00 cm**-1
   1:         0.00 cm**-1
   2:         0.00 cm**-1
   3:         0.00 cm**-1
   4:         0.00 cm**-1
   5:         0.00 cm**-1
   6:        31.72 cm**-1
   7:        52.50 cm**-1
   8:        92.02 cm**-1
   9:       147.42 cm**-1
  10:       221.29 cm**-1
  11:       254.01 cm**-1
  12:       295.80 cm**-1
  13:       350.62 cm**-1
  14:       417.83 cm**-1
  15:       428.59 cm**-1
  16:       545.29 cm**-1
  17:       726.79 cm**-1
  18:       805.07 cm**-1
  19:       854.75 cm**-1
  20:       924.20 cm**-1
  21:       942.43 cm**-1
  22:       958.41 cm**-1
  23:      1024.46 cm**-1
  24:      1030.19 cm**-1
  25:      1056.76 cm**-1
  26:      1148.56 cm**-1
  27:      1170.77 cm**-1
  28:      1185.51 cm**-1
  29:      1246.07 cm**-1
  30:      1299.72 cm**-1
  31:      1356.28 cm**-1
  32:      1375.89 cm**-1
  33:      1405.90 cm**-1
  34:      1412.58 cm**-1
  35:      1420.57 cm**-1
  36:      1422.59 cm**-1
  37:      1437.65 cm**-1
  38:      1459.97 cm**-1
  39:      1467.51 cm**-1
  40:      1484.27 cm**-1
  41:      1496.45 cm**-1
  42:      1501.49 cm**-1
  43:      1643.05 cm**-1
  44:      1877.98 cm**-1
  45:      2897.90 cm**-1
  46:      3052.61 cm**-1
  47:      3057.67 cm**-1
  48:      3092.84 cm**-1
  49:      3100.21 cm**-1
  50:      3129.36 cm**-1
  51:      3140.98 cm**-1
  52:      3153.32 cm**-1
  53:      3157.04 cm**-1
  54:      3167.82 cm**-1
  55:      3419.55 cm**-1
  56:      3473.65 cm**-1

IR SPECTRUM
-----------

 Mode    freq (cm**-1)   T**2         TX         TY         TZ
-------------------------------------------------------------------
   7:        52.50    6.120061  (  0.034693   2.433294  -0.444903)
   8:        92.02    4.051254  (  0.303966  -1.975906  -0.233786)
   9:       147.42    8.107501  (  2.289973  -1.691542  -0.047028)
  10:       221.29    0.245766  (  0.483565   0.109170  -0.003662)
  11:       254.01    1.042721  ( -0.197779   0.984683   0.184403)
  12:       295.80    1.383846  (  1.103530  -0.354294  -0.201351)
  13:       350.62    3.018343  (  1.577860  -0.012211  -0.727015)
  14:       417.83    1.403650  (  0.567431  -0.758054   0.712058)
  15:       428.59    3.062878  (  0.037773  -1.555642  -0.800892)
  16:       545.29   20.312341  (  1.612934  -0.294837   4.198078)
  17:       726.79    7.856580  ( -1.245493  -2.471610  -0.443250)
  18:       805.07    9.187294  (  1.012953   0.687030   2.772943)
  19:       854.75    3.460568  ( -0.067637   1.761573  -0.594015)
  20:       924.20    5.275706  ( -1.396834   0.338768  -1.791590)
  21:       942.43    3.636908  (  0.716974   0.874760  -1.535464)
  22:       958.41    1.295984  (  0.367964   0.079836   1.074343)
  23:      1024.46   18.704327  (  2.579385  -1.837994   2.944975)
  24:      1030.19   75.055020  ( -2.220906   2.377332  -8.029377)
  25:      1056.76   11.595485  ( -0.256938  -0.746957   3.312329)
  26:      1148.56    5.043459  (  0.022377  -0.903464   2.055897)
  27:      1170.77    8.753054  (  1.922552   0.306026   2.227823)
  28:      1185.51    6.601332  (  0.244425  -0.580045   2.491011)
  29:      1246.07    8.030285  ( -0.126334  -2.058115   1.943833)
  30:      1299.72   14.679243  (  0.237106  -1.078399   3.668798)
  31:      1356.28    2.147075  (  0.119998   0.772318   1.239435)
  32:      1375.89    4.215560  (  0.996639   1.361929   1.169367)
  33:      1405.90   23.144372  ( -1.781864   0.444713   4.446523)
  34:      1412.58   33.676061  ( -1.035276  -1.029969  -5.616354)
  35:      1420.57   16.023720  ( -3.614663  -1.450250  -0.924503)
  36:      1422.59   43.627570  (  0.802711   1.106326  -6.462141)
  37:      1437.65   10.883250  (  1.594012   2.664864  -1.113946)
  38:      1459.97   13.858652  (  2.407799  -1.348276   2.498661)
  39:      1467.51    2.621746  ( -1.153662   0.134764  -1.128118)
  40:      1484.27    3.471734  ( -1.507530  -1.021074  -0.395597)
  41:      1496.45   10.941854  (  1.932379  -1.080061   2.457892)
  42:      1501.49   22.833893  ( -2.371687   4.132873  -0.358266)
  43:      1643.05   47.178007  (  6.526374  -1.918177   0.951339)
  44:      1877.98  159.198860  ( -1.650268   2.556015  12.245091)
  45:      2897.90   55.298513  (  5.706084  -4.606279  -1.233419)
  46:      3052.61    3.061490  ( -1.593008   0.136769  -0.710710)
  47:      3057.67    4.274808  ( -0.524558   1.383338  -1.444307)
  48:      3092.84    0.615392  ( -0.299858   0.655839   0.308791)
  49:      3100.21    4.324091  ( -1.503109   0.466624  -1.359049)
  50:      3129.36    5.687886  ( -0.870415  -2.143844  -0.578096)
  51:      3140.98    4.954272  (  0.879123  -1.384412  -1.504932)
  52:      3153.32    3.335967  (  1.526777   0.112370  -0.996139)
  53:      3157.04    0.859264  (  0.571361   0.488967  -0.541961)
  54:      3167.82    2.859194  ( -0.069302  -1.292102  -1.088515)
  55:      3419.55   29.407347  (  5.111043  -1.799542   0.215033)
  56:      3473.65   55.503048  (  2.787250   6.814423   1.139264)

--------------------------
THERMOCHEMISTRY AT 298.15K
--------------------------

Temperature         ... 298.15 K
Pressure            ... 1.00 atm
Total Mass          ... 102.16 AMU

Throughout the following assumptions are being made:
  (1) The electronic state is orbitally nondegenerate
  (2) There are no thermally accessible electronically excited states
  (3) Hindered rotations indicated by low frequency modes) are not
      treated as such but are treated as vibrations and this may
      case some error
  (4) All equations used are the standard statistical mechanics
      equations for an ideal gas
  (5) All vibrations are strinctly harmonic

------------
INNER ENERGY
------------

The inner energy is: U= E(el) + E(ZPE) + E(vib) + E(rot) + E(trans)
    E(el)   - is the total energy from the electronic structure calculation
              = E(kin-el) + E(nuc-el) + E(el-el) + E(nuc-nuc)
    E(ZPE)  - the the zero temperature vibrational energy from the frequency calculation
    E(vib)  - the the finite temperature correction to E(ZPE) due to population
              of excietd vibrational states
    E(rot)  - is the rotational thermal energy
    E(trans)- is the translational thermal energy

Summary of contributions to the inner energy U:
Electronic energy                ...   -327.20754815 Eh
Zero point energy                ...      0.17264913 Eh     108.34 kcal/mol
Thermal vibrational correction   ...      0.00543200 Eh       3.41 kcal/mol
Thermal rotational correction    ...      0.00141627 Eh       0.89 kcal/mol
Thermal translational correction ...      0.00141627 Eh       0.89 kcal/mol
-----------------------------------------------------------------------
Total thermal energy                   -327.02663448 Eh

Summary of corrections to the electronic energy:
(perhaps to be used in another calculation)
Total thermal correction                  0.00826454 Eh       5.19 kcal/mol
Non-thermal (ZPE) correction              0.17264913 Eh     108.34 kcal/mol
-----------------------------------------------------------------------
Total correction                          0.18091367 Eh     113.52 kcal/mol

--------
ENTHALPY
--------

The enthalpy is H = U + kB*T
                kB is Boltzmann's constant
Total free energy                 ...   -327.02663448 Eh
Thermal Enthalpy correction       ...      0.00094421 Eh       0.59 kcal/mol
-----------------------------------------------------------------------
Total Enthalpy                    ...   -327.02569027 Eh

-------
ENTROPY
-------

The entropy contributions are T*S = T*(S(el)+S(vib)+S(rot)+S(trans)
     S(el)   - electronic entropy
     S(vib)  - vibrational entropy
     S(rot)  - rotational entropy
     S(trans)- translational entropy
The entropies will be listed as mutliplied by the temperature to get
units of energy

Electronic entropy                ...      0.00000000 Eh      0.00 kcal/mol
Vibrational entropy               ...      0.01010049 Eh      6.34 kcal/mol
Rotational entropy                ...      0.01236641 Eh      7.76 kcal/mol
Translational entropy             ...      0.01890147 Eh     11.86 kcal/mol
-----------------------------------------------------------------------
Final entropy term                ...      0.04136836 Eh     25.96 kcal/mol

CAUTION: The rotational entropy is not quite correctly treated here
         because it includes a symmetry number that is not yet correctly
         implemented in ORCA!
For a nonlinear molecule the correct rotational entropy is:
    S(rot) = R*(ln(qrot/sn)+1.5)
    R    = 8.31441 J/mol/K = 1.987191683e-3 kcal/mol/K
    qrot = 326474.6684415
    sn is the rotational symmetry number. We have assumed 3 here
       if it is different for your molecule then you should correct
       the printed rotational entropy by manually evaluating the equation
       as given above

For convenience we print out the resulting values for sn=1 - 12:
 sn= 1  qrot/sn=  326474.6684 T*S(rot)=     8.41 kcal/mol T*S(tot)=    26.61 kcal/mol
 sn= 2  qrot/sn=  163237.3342 T*S(rot)=     8.00 kcal/mol T*S(tot)=    26.20 kcal/mol
 sn= 3  qrot/sn=  108824.8895 T*S(rot)=     7.76 kcal/mol T*S(tot)=    25.96 kcal/mol
 sn= 4  qrot/sn=   81618.6671 T*S(rot)=     7.59 kcal/mol T*S(tot)=    25.79 kcal/mol
 sn= 5  qrot/sn=   65294.9337 T*S(rot)=     7.46 kcal/mol T*S(tot)=    25.66 kcal/mol
 sn= 6  qrot/sn=   54412.4447 T*S(rot)=     7.35 kcal/mol T*S(tot)=    25.55 kcal/mol
 sn= 7  qrot/sn=   46639.2383 T*S(rot)=     7.26 kcal/mol T*S(tot)=    25.46 kcal/mol
 sn= 8  qrot/sn=   40809.3336 T*S(rot)=     7.18 kcal/mol T*S(tot)=    25.38 kcal/mol
 sn= 9  qrot/sn=   36274.9632 T*S(rot)=     7.11 kcal/mol T*S(tot)=    25.31 kcal/mol
 sn=10  qrot/sn=   32647.4668 T*S(rot)=     7.05 kcal/mol T*S(tot)=    25.25 kcal/mol
 sn=11  qrot/sn=   29679.5153 T*S(rot)=     6.99 kcal/mol T*S(tot)=    25.19 kcal/mol
 sn=12  qrot/sn=   27206.2224 T*S(rot)=     6.94 kcal/mol T*S(tot)=    25.14 kcal/mol

-------------------
GIBBS FREE ENTHALPY
-------------------

The Gibbs free enthalpy is G = H - T*S

Total enthalpy                    ...   -327.02569027 Eh
Total entropy correction          ...     -0.04136836 Eh    -25.96 kcal/mol
-----------------------------------------------------------------------
Final Gibbs free enthalpy         ...   -327.06705863 Eh

For completeness - the Gibbs free enthalpy minus the electronic energy
G-E(el)                           ...      0.14048952 Eh     88.16 kcal/mol

                             ****ORCA TERMINATED NORMALLY****
TOTAL RUN TIME: 0 days 0 hours 46 minutes 40 seconds 713 msec
