                         Program Version 3.0.3 - RELEASE   -
|  1> ! NORI PBE0 def2-TZVP UseSym TightOPT Freq TightSCF Grid3 FinalGrid5 XYZFile
|  2> % pal
|  3>     nprocs 8
|  4> end
|  5> %method
|  6>     SymThresh 5.0e-2
|  7> end
|  8> % geom
|  9>     MaxIter 10
| 10> end
| 11> % maxcore 2000
| 12> % output
| 13>     printlevel mini
| 14>     print[ P_Basis ] 0
| 15>     print[ P_SCFInfo ] 1
| 16>     print[ P_SCFIterInfo ] 1
| 17>     print[ P_OrbEn ] 0
| 18>     print[ P_Cartesian ] 0
| 19> end
| 20> % elprop
| 21>     Dipole false
| 22> end
| 23> *xyz 1 1
| 24>  C        1.9252493227    -0.2815184846    -1.0561811813
| 25>  C        2.1901680062     0.5392459420     0.2008053536
| 26>  C        1.9283019931     2.0190744551    -0.0319484721
| 27>  N        0.4727854828     2.2686165223    -0.3372010204
| 28>  C        1.4556710531    -0.0290345277     1.4170813425
| 29>  C        1.7255061828     0.6926838776     2.7329748968
| 30>  O        1.3608419200    -0.0661286711     3.8499230555
| 31>  H        2.4591939469     0.1146117682    -1.9233409934
| 32>  H        0.8581709771    -0.3439816445    -1.3022639765
| 33>  H        2.2557859215    -1.3106062684    -0.9120662933
| 34>  H        3.2644237260     0.4933376343     0.4149932373
| 35>  H        2.1671117607     2.6318013720     0.8371024736
| 36>  H        2.4863573155     2.3954111588    -0.8904988535
| 37>  H       -0.1144191748     1.9656111449     0.4426623454
| 38>  H        0.1853879215     1.7373470740    -1.1622466343
| 39>  H        0.2835429896     3.2563744143    -0.5130226683
| 40>  H        1.7738954654    -1.0671455082     1.5434477430
| 41>  H        0.3721407397    -0.0889335212     1.2288297198
| 42>  H        1.2397836235     1.6827544813     2.7559855723
| 43>  H        2.8006680312     0.8701693977     2.8352709898
| 44>  H        0.4050727957    -0.1510606168     3.9012233635
| 45> *
| 46>
| 47>                          ****END OF INPUT****
 Total Charge           Charge          ....    1
 Multiplicity           Mult            ....    1
 Number of Electrons    NEL             ....   58
FINAL SINGLE POINT ENERGY      -328.425150135598
FINAL SINGLE POINT ENERGY      -328.425154472475
FINAL SINGLE POINT ENERGY      -328.425161789595
FINAL SINGLE POINT ENERGY      -328.425165696643
FINAL SINGLE POINT ENERGY      -328.425170331478
FINAL SINGLE POINT ENERGY      -328.425172887713
FINAL SINGLE POINT ENERGY      -328.425174173650

CARTESIAN COORDINATES (ANGSTROEM)
---------------------------------
  C     -1.278036    0.921472   -1.699615
  C     -0.720219   -0.118765   -0.734363
  C      0.433837   -0.892531   -1.353351
  N      1.589724    0.023216   -1.668985
  C     -0.389490    0.488690    0.630077
  C      0.033784   -0.512869    1.699695
  O     -0.022838    0.024737    2.990013
  H     -1.512358    0.490208   -2.676501
  H     -0.597997    1.769442   -1.845856
  H     -2.199917    1.347735   -1.302947
  H     -1.492705   -0.880612   -0.576509
  H      0.827431   -1.665099   -0.693122
  H      0.146452   -1.352836   -2.299615
  H      1.929034    0.479524   -0.819705
  H      1.293914    0.759059   -2.314284
  H      2.369931   -0.479349   -2.094514
  H     -1.285871    0.995920    0.996323
  H      0.363374    1.287615    0.536125
  H      1.032508   -0.930242    1.490896
  H     -0.663903   -1.356153    1.698530
  H      0.689522    0.655563    3.122614

FINAL SINGLE POINT ENERGY      -328.425174734852
                    ***********************HURRAY********************
 Multiplicity           Mult            ....    1
 Number of Electrons    NEL             ....   58
 Basis Dimension        Dim             ....  301
FINAL SINGLE POINT ENERGY      -328.425174980129

VIBRATIONAL FREQUENCIES
-----------------------

   0:         0.00 cm**-1
   1:         0.00 cm**-1
   2:         0.00 cm**-1
   3:         0.00 cm**-1
   4:         0.00 cm**-1
   5:         0.00 cm**-1
   6:        43.22 cm**-1
   7:        87.05 cm**-1
   8:       142.45 cm**-1
   9:       170.71 cm**-1
  10:       194.62 cm**-1
  11:       230.36 cm**-1
  12:       245.06 cm**-1
  13:       258.06 cm**-1
  14:       329.26 cm**-1
  15:       403.03 cm**-1
  16:       467.08 cm**-1
  17:       551.55 cm**-1
  18:       771.87 cm**-1
  19:       802.46 cm**-1
  20:       841.57 cm**-1
  21:       912.92 cm**-1
  22:       954.33 cm**-1
  23:       977.79 cm**-1
  24:      1005.00 cm**-1
  25:      1029.65 cm**-1
  26:      1045.41 cm**-1
  27:      1105.56 cm**-1
  28:      1134.63 cm**-1
  29:      1149.61 cm**-1
  30:      1183.75 cm**-1
  31:      1218.71 cm**-1
  32:      1285.89 cm**-1
  33:      1303.40 cm**-1
  34:      1336.86 cm**-1
  35:      1372.44 cm**-1
  36:      1377.70 cm**-1
  37:      1399.70 cm**-1
  38:      1401.43 cm**-1
  39:      1420.21 cm**-1
  40:      1426.35 cm**-1
  41:      1480.05 cm**-1
  42:      1480.99 cm**-1
  43:      1490.98 cm**-1
  44:      1498.06 cm**-1
  45:      1502.26 cm**-1
  46:      1510.27 cm**-1
  47:      1650.09 cm**-1
  48:      1662.26 cm**-1
  49:      2963.23 cm**-1
  50:      2987.69 cm**-1
  51:      3030.39 cm**-1
  52:      3057.94 cm**-1
  53:      3078.70 cm**-1
  54:      3102.12 cm**-1
  55:      3103.18 cm**-1
  56:      3106.26 cm**-1
  57:      3145.98 cm**-1
  58:      3162.43 cm**-1
  59:      3424.76 cm**-1
  60:      3500.21 cm**-1
  61:      3517.59 cm**-1
  62:      3863.56 cm**-1

IR SPECTRUM
-----------

 Mode    freq (cm**-1)   T**2         TX         TY         TZ
-------------------------------------------------------------------
   6:        43.22   10.782073  ( -1.325918   1.269243   2.722689)
   7:        87.05    2.976832  (  0.475059  -1.495300   0.717794)
   8:       142.45   12.119301  ( -2.381489   1.464859  -2.074125)
   9:       170.71   11.818497  (  1.662837  -1.307101   2.710158)
  10:       194.62    1.404553  ( -0.575721   0.775439  -0.686872)
  11:       230.36   46.495063  (  2.552260  -3.772978   5.074019)
  12:       245.06    7.061998  (  0.908064  -1.761252   1.770709)
  13:       258.06   82.631566  (  7.313240  -5.339584   0.798074)
  14:       329.26    2.009186  ( -0.816833   0.789283  -0.847940)
  15:       403.03    3.245619  ( -1.072655   1.430848  -0.218413)
  16:       467.08    1.438040  ( -0.817865   0.844953  -0.234925)
  17:       551.55    7.029947  (  2.456419   0.071739  -0.995394)
  18:       771.87    1.193729  ( -0.123711  -0.099009  -1.081028)
  19:       802.46    2.946282  ( -0.582754   0.884602   1.350614)
  20:       841.57   13.337953  (  1.318057  -0.875742   3.291467)
  21:       912.92    8.291788  (  2.859798  -0.032996  -0.335043)
  22:       954.33    3.231337  ( -0.521638  -1.700310  -0.261106)
  23:       977.79    8.922092  ( -0.832891   0.217081  -2.860290)
  24:      1005.00    3.457089  ( -1.322462   0.840933   1.000507)
  25:      1029.65   14.084143  ( -1.507123   1.166582   3.232926)
  26:      1045.41   35.343176  ( -2.196523   2.954771   4.667739)
  27:      1105.56   68.804179  ( -1.612230   0.323565  -8.130203)
  28:      1134.63   28.860735  ( -1.283606   2.139405   4.757734)
  29:      1149.61   38.913043  (  0.938741  -3.200849  -5.271278)
  30:      1183.75    1.516491  (  0.725125  -0.950756   0.294529)
  31:      1218.71    3.748882  ( -1.137335   0.932858   1.259018)
  32:      1285.89    8.717061  (  0.630212  -0.091609   2.882968)
  33:      1303.40    8.836641  ( -1.067629   0.295205   2.758562)
  34:      1336.86    8.101509  ( -0.686131   0.394242  -2.734101)
  35:      1372.44    3.187238  ( -0.464184  -0.104086  -1.720737)
  36:      1377.70    5.051809  (  0.460443   0.351329   2.171720)
  37:      1399.70   11.261904  ( -0.837370   1.089396   3.061688)
  38:      1401.43    3.374091  ( -0.150584   1.712789  -0.646351)
  39:      1420.21   20.742272  (  1.992536  -0.239724   4.088350)
  40:      1426.35   14.061759  ( -1.225881   1.498360   3.211525)
  41:      1480.05   87.071105  (  8.421359   2.741563  -2.938649)
  42:      1480.99    0.057920  ( -0.055444   0.056127   0.227368)
  43:      1490.98   13.911942  ( -1.018614  -3.525847   0.665409)
  44:      1498.06   48.136344  (  5.920948   0.148770  -3.613389)
  45:      1502.26    4.735366  (  1.169585   1.220163   1.370635)
  46:      1510.27   73.840792  (  4.998623   6.988993  -0.092395)
  47:      1650.09   38.467235  (  2.574552  -1.082393   5.537810)
  48:      1662.26   32.612410  ( -3.938176   3.119480   2.715148)
  49:      2963.23   71.300076  (  5.056164  -5.510502  -3.920414)
  50:      2987.69   36.271014  ( -4.832927  -2.957845   2.040829)
  51:      3030.39   18.992984  (  2.593458   2.380941  -2.568672)
  52:      3057.94    3.592407  (  0.357334   1.627475  -0.903352)
  53:      3078.70   16.100121  ( -2.528390  -3.012470  -0.795228)
  54:      3102.12    2.398849  ( -1.271061   0.367788   0.804975)
  55:      3103.18    4.463517  (  2.087463  -0.263670  -0.191032)
  56:      3106.26   17.842226  ( -2.556516  -2.774872  -1.899089)
  57:      3145.98    2.918498  ( -0.642711   0.430506   1.523182)
  58:      3162.43    1.192230  (  0.523278  -0.325951   0.901202)
  59:      3424.76   24.602044  ( -3.468367  -3.208036   1.510292)
  60:      3500.21   90.163243  (  4.088514  -2.321206   8.249806)
  61:      3517.59  121.586980  (  6.932400  -6.889159  -5.105712)
  62:      3863.56   49.769038  ( -3.990995  -3.845350  -4.365120)

--------------------------
THERMOCHEMISTRY AT 298.15K
--------------------------

Temperature         ... 298.15 K
Pressure            ... 1.00 atm
Total Mass          ... 104.17 AMU

Throughout the following assumptions are being made:
  (1) The electronic state is orbitally nondegenerate
  (2) There are no thermally accessible electronically excited states
  (3) Hindered rotations indicated by low frequency modes) are not
      treated as such but are treated as vibrations and this may
      case some error
  (4) All equations used are the standard statistical mechanics
      equations for an ideal gas
  (5) All vibrations are strinctly harmonic

------------
INNER ENERGY
------------

The inner energy is: U= E(el) + E(ZPE) + E(vib) + E(rot) + E(trans)
    E(el)   - is the total energy from the electronic structure calculation
              = E(kin-el) + E(nuc-el) + E(el-el) + E(nuc-nuc)
    E(ZPE)  - the the zero temperature vibrational energy from the frequency calculation
    E(vib)  - the the finite temperature correction to E(ZPE) due to population
              of excietd vibrational states
    E(rot)  - is the rotational thermal energy
    E(trans)- is the translational thermal energy

Summary of contributions to the inner energy U:
Electronic energy                ...   -328.42517498 Eh
Zero point energy                ...      0.19796972 Eh     124.23 kcal/mol
Thermal vibrational correction   ...      0.00673599 Eh       4.23 kcal/mol
Thermal rotational correction    ...      0.00141627 Eh       0.89 kcal/mol
Thermal translational correction ...      0.00141627 Eh       0.89 kcal/mol
-----------------------------------------------------------------------
Total thermal energy                   -328.21763674 Eh

Summary of corrections to the electronic energy:
(perhaps to be used in another calculation)
Total thermal correction                  0.00956853 Eh       6.00 kcal/mol
Non-thermal (ZPE) correction              0.19796972 Eh     124.23 kcal/mol
-----------------------------------------------------------------------
Total correction                          0.20753825 Eh     130.23 kcal/mol

--------
ENTHALPY
--------

The enthalpy is H = U + kB*T
                kB is Boltzmann's constant
Total free energy                 ...   -328.21763674 Eh
Thermal Enthalpy correction       ...      0.00094421 Eh       0.59 kcal/mol
-----------------------------------------------------------------------
Total Enthalpy                    ...   -328.21669253 Eh

-------
ENTROPY
-------

The entropy contributions are T*S = T*(S(el)+S(vib)+S(rot)+S(trans)
     S(el)   - electronic entropy
     S(vib)  - vibrational entropy
     S(rot)  - rotational entropy
     S(trans)- translational entropy
The entropies will be listed as mutliplied by the temperature to get
units of energy

Electronic entropy                ...      0.00000000 Eh      0.00 kcal/mol
Vibrational entropy               ...      0.01271725 Eh      7.98 kcal/mol
Rotational entropy                ...      0.01242946 Eh      7.80 kcal/mol
Translational entropy             ...      0.01892914 Eh     11.88 kcal/mol
-----------------------------------------------------------------------
Final entropy term                ...      0.04407585 Eh     27.66 kcal/mol

CAUTION: The rotational entropy is not quite correctly treated here
         because it includes a symmetry number that is not yet correctly
         implemented in ORCA!
For a nonlinear molecule the correct rotational entropy is:
    S(rot) = R*(ln(qrot/sn)+1.5)
    R    = 8.31441 J/mol/K = 1.987191683e-3 kcal/mol/K
    qrot = 349020.8714760
    sn is the rotational symmetry number. We have assumed 3 here
       if it is different for your molecule then you should correct
       the printed rotational entropy by manually evaluating the equation
       as given above

For convenience we print out the resulting values for sn=1 - 12:
 sn= 1  qrot/sn=  349020.8715 T*S(rot)=     8.45 kcal/mol T*S(tot)=    28.31 kcal/mol
 sn= 2  qrot/sn=  174510.4357 T*S(rot)=     8.04 kcal/mol T*S(tot)=    27.90 kcal/mol
 sn= 3  qrot/sn=  116340.2905 T*S(rot)=     7.80 kcal/mol T*S(tot)=    27.66 kcal/mol
 sn= 4  qrot/sn=   87255.2179 T*S(rot)=     7.63 kcal/mol T*S(tot)=    27.49 kcal/mol
 sn= 5  qrot/sn=   69804.1743 T*S(rot)=     7.50 kcal/mol T*S(tot)=    27.36 kcal/mol
 sn= 6  qrot/sn=   58170.1452 T*S(rot)=     7.39 kcal/mol T*S(tot)=    27.25 kcal/mol
 sn= 7  qrot/sn=   49860.1245 T*S(rot)=     7.30 kcal/mol T*S(tot)=    27.16 kcal/mol
 sn= 8  qrot/sn=   43627.6089 T*S(rot)=     7.22 kcal/mol T*S(tot)=    27.08 kcal/mol
 sn= 9  qrot/sn=   38780.0968 T*S(rot)=     7.15 kcal/mol T*S(tot)=    27.01 kcal/mol
 sn=10  qrot/sn=   34902.0871 T*S(rot)=     7.09 kcal/mol T*S(tot)=    26.94 kcal/mol
 sn=11  qrot/sn=   31729.1701 T*S(rot)=     7.03 kcal/mol T*S(tot)=    26.89 kcal/mol
 sn=12  qrot/sn=   29085.0726 T*S(rot)=     6.98 kcal/mol T*S(tot)=    26.84 kcal/mol

-------------------
GIBBS FREE ENTHALPY
-------------------

The Gibbs free enthalpy is G = H - T*S

Total enthalpy                    ...   -328.21669253 Eh
Total entropy correction          ...     -0.04407585 Eh    -27.66 kcal/mol
-----------------------------------------------------------------------
Final Gibbs free enthalpy         ...   -328.26076838 Eh

For completeness - the Gibbs free enthalpy minus the electronic energy
G-E(el)                           ...      0.16440660 Eh    103.17 kcal/mol

                             ****ORCA TERMINATED NORMALLY****
TOTAL RUN TIME: 0 days 0 hours 58 minutes 6 seconds 222 msec
