                         Program Version 3.0.3 - RELEASE   -
|  1> ! NORI PBE0 def2-TZVP UseSym TightOPT Freq TightSCF Grid3 FinalGrid5 XYZFile
|  2> % pal
|  3>     nprocs 8
|  4> end
|  5> %method
|  6>     SymThresh 5.0e-2
|  7> end
|  8> % geom
|  9>     MaxIter 10
| 10> end
| 11> % maxcore 2000
| 12> % output
| 13>     printlevel mini
| 14>     print[ P_Basis ] 0
| 15>     print[ P_SCFInfo ] 1
| 16>     print[ P_SCFIterInfo ] 1
| 17>     print[ P_OrbEn ] 0
| 18>     print[ P_Cartesian ] 0
| 19> end
| 20> % elprop
| 21>     Dipole false
| 22> end
| 23> *xyz 1 1
| 24>  C        1.0944115999     0.0839561652     0.0258305243
| 25>  C        2.5745317120    -0.0138518802     0.2000515956
| 26>  C        3.3252168368    -0.7466012971    -0.8824204588
| 27>  N        4.1681833389     0.2094523545    -1.6793060586
| 28>  C        3.2239523825     0.5054603711     1.2452518308
| 29>  C        4.7057833286     0.4153426428     1.4669998091
| 30>  O        5.4692694951     1.0884042803     0.4439431912
| 31>  H        0.8280874259     0.5671036160    -0.9207761345
| 32>  H        0.6333559775     0.6482655261     0.8354247937
| 33>  H        0.6423635731    -0.9129766320     0.0053585940
| 34>  H        4.0161857186    -1.4871308163    -0.4737317326
| 35>  H        2.6495542756    -1.2520451899    -1.5717144695
| 36>  H        4.8051345584     0.7048168033    -0.9887940816
| 37>  H        3.5893482122     0.9057740106    -2.1480835427
| 38>  H        4.7250757278    -0.2700823426    -2.3869618065
| 39>  H        2.6439079095     1.0320398779     1.9972917401
| 40>  H        4.9768520750     0.8186623644     2.4425123107
| 41>  H        5.0468774430    -0.6235400988     1.4465638023
| 42>  H        5.6075284098     2.0069902449     0.6942600929
| 43> *
| 44>
| 45>                          ****END OF INPUT****
 Total Charge           Charge          ....    1
 Multiplicity           Mult            ....    1
 Number of Electrons    NEL             ....   56
FINAL SINGLE POINT ENERGY      -327.218712766042
FINAL SINGLE POINT ENERGY      -327.218712677525
FINAL SINGLE POINT ENERGY      -327.218714802024
FINAL SINGLE POINT ENERGY      -327.218715150114
FINAL SINGLE POINT ENERGY      -327.218713256732
FINAL SINGLE POINT ENERGY      -327.218715897946

CARTESIAN COORDINATES (ANGSTROEM)
---------------------------------
  C     -0.494328    0.793287   -2.308220
  C     -0.331889    0.118057   -0.985858
  C      0.934966   -0.675757   -0.792762
  N      1.836841    0.003857    0.199896
  C     -1.240166    0.193837   -0.009365
  C     -1.122258   -0.479281    1.327094
  O      0.001419   -0.003503    2.098455
  H      0.334670    1.477723   -2.518797
  H     -1.422497    1.361188   -2.354023
  H     -0.504521    0.056575   -3.117887
  H      0.736941   -1.669680   -0.386002
  H      1.487705   -0.789433   -1.724587
  H      1.275549    0.116434    1.093798
  H      2.117689    0.926668   -0.130449
  H      2.680878   -0.539161    0.383555
  H     -2.134587    0.783147   -0.187472
  H     -2.036252   -0.352601    1.906859
  H     -0.961842   -1.555309    1.215431
  H     -0.271209    0.741893    2.642323

FINAL SINGLE POINT ENERGY      -327.218716075618
                    ***********************HURRAY********************
 Multiplicity           Mult            ....    1
 Number of Electrons    NEL             ....   56
 Basis Dimension        Dim             ....  289
FINAL SINGLE POINT ENERGY      -327.218716481035

VIBRATIONAL FREQUENCIES
-----------------------

   0:         0.00 cm**-1
   1:         0.00 cm**-1
   2:         0.00 cm**-1
   3:         0.00 cm**-1
   4:         0.00 cm**-1
   5:         0.00 cm**-1
   6:        92.58 cm**-1
   7:       139.04 cm**-1
   8:       185.96 cm**-1
   9:       230.50 cm**-1
  10:       270.03 cm**-1
  11:       301.56 cm**-1
  12:       321.36 cm**-1
  13:       363.40 cm**-1
  14:       412.50 cm**-1
  15:       441.05 cm**-1
  16:       549.40 cm**-1
  17:       645.67 cm**-1
  18:       777.78 cm**-1
  19:       867.19 cm**-1
  20:       890.48 cm**-1
  21:       920.99 cm**-1
  22:       987.37 cm**-1
  23:       996.65 cm**-1
  24:      1030.71 cm**-1
  25:      1054.23 cm**-1
  26:      1087.91 cm**-1
  27:      1126.16 cm**-1
  28:      1159.17 cm**-1
  29:      1178.11 cm**-1
  30:      1258.42 cm**-1
  31:      1347.69 cm**-1
  32:      1349.31 cm**-1
  33:      1372.69 cm**-1
  34:      1396.85 cm**-1
  35:      1412.07 cm**-1
  36:      1417.95 cm**-1
  37:      1468.51 cm**-1
  38:      1474.34 cm**-1
  39:      1490.36 cm**-1
  40:      1506.27 cm**-1
  41:      1554.10 cm**-1
  42:      1651.49 cm**-1
  43:      1689.33 cm**-1
  44:      1733.95 cm**-1
  45:      2784.88 cm**-1
  46:      3040.02 cm**-1
  47:      3072.43 cm**-1
  48:      3092.93 cm**-1
  49:      3095.66 cm**-1
  50:      3139.13 cm**-1
  51:      3156.55 cm**-1
  52:      3159.62 cm**-1
  53:      3186.71 cm**-1
  54:      3468.90 cm**-1
  55:      3533.76 cm**-1
  56:      3853.20 cm**-1

IR SPECTRUM
-----------

 Mode    freq (cm**-1)   T**2         TX         TY         TZ
-------------------------------------------------------------------
   6:        92.58    7.150233  ( -0.016983   1.044170   2.461636)
   7:       139.04    1.647683  (  0.379141   0.510767  -1.114922)
   8:       185.96    4.181112  ( -0.834973   0.285906  -1.844503)
   9:       230.50    5.753787  (  1.302191  -0.779600   1.857501)
  10:       270.03   11.025250  (  0.043577  -2.711917   1.915426)
  11:       301.56   38.714877  ( -4.904837   1.587265   3.483969)
  12:       321.36  109.960620  ( -2.294090  -4.311788   9.279345)
  13:       363.40    6.408739  (  0.643046  -2.049065   1.340359)
  14:       412.50   17.529815  (  0.827817   1.567462  -3.793098)
  15:       441.05    0.675689  (  0.781732  -0.111762  -0.228239)
  16:       549.40   20.931095  ( -3.682510  -2.066464   1.760666)
  17:       645.67    8.109859  (  0.267716   0.360471   2.812161)
  18:       777.78    1.424444  ( -1.133296  -0.151589   0.342206)
  19:       867.19   16.380362  (  0.338263   2.437401  -3.213256)
  20:       890.48   12.909086  (  0.552812   0.172216  -3.545959)
  21:       920.99    3.919024  (  1.481476  -0.382674   1.256111)
  22:       987.37    3.168716  ( -0.717035   0.251602   1.609743)
  23:       996.65   95.109317  (  7.683446   3.718252   4.716840)
  24:      1030.71   16.089734  ( -0.754832  -0.093769   3.938422)
  25:      1054.23   12.495415  (  1.471003   2.701193   1.742160)
  26:      1087.91   11.145723  ( -3.237560   0.580676   0.571612)
  27:      1126.16   12.812490  (  2.412352  -2.609852   0.426286)
  28:      1159.17   42.464069  (  1.410232  -2.671545  -5.773921)
  29:      1178.11   19.634395  (  4.255646   0.435090   1.155237)
  30:      1258.42    6.743965  (  2.518213   0.025773  -0.633959)
  31:      1347.69    6.866579  ( -0.800511   0.510286  -2.442410)
  32:      1349.31    0.379320  (  0.054658   0.609889  -0.066088)
  33:      1372.69   23.786026  (  3.166996   0.456027   3.680788)
  34:      1396.85    2.455182  (  0.584324  -0.352240  -1.410558)
  35:      1412.07    1.827127  ( -1.146222   0.561906   0.444482)
  36:      1417.95    9.358138  (  0.101494  -1.058139   2.868480)
  37:      1468.51   15.364937  ( -0.010124  -3.435462  -1.887442)
  38:      1474.34   19.613799  (  4.121366  -0.626372  -1.495259)
  39:      1490.36    0.793584  (  0.408728  -0.496089  -0.616783)
  40:      1506.27   17.365344  ( -0.122276   4.065785  -0.905418)
  41:      1554.10  165.544714  ( 12.052952   3.843351   2.345145)
  42:      1651.49    8.274260  ( -0.579878  -2.495606   1.307652)
  43:      1689.33   21.399644  ( -0.815961   4.294911  -1.512480)
  44:      1733.95    9.518328  ( -0.218248  -0.717300   2.992687)
  45:      2784.88  740.994249  ( 18.155019  -1.299235 -20.241085)
  46:      3040.02    4.419564  ( -1.339841  -0.913300   1.338011)
  47:      3072.43    9.581094  (  0.730904   2.977161   0.428233)
  48:      3092.93    1.210190  (  0.508265  -0.972955   0.072211)
  49:      3095.66    4.074850  ( -1.318124  -1.511812  -0.227650)
  50:      3139.13    5.834747  ( -1.937883   0.317322   1.406649)
  51:      3156.55    0.590370  ( -0.372137   0.184381  -0.646442)
  52:      3159.62    2.743636  (  1.495145  -0.712600   0.019469)
  53:      3186.71    1.834720  (  0.452891  -0.656542   1.094788)
  54:      3468.90   64.317772  ( -7.826532  -1.084547   1.373653)
  55:      3533.76   71.840583  ( -2.168466   7.715601  -2.758232)
  56:      3853.20  111.095898  (  1.399677  -6.894049  -7.849133)

--------------------------
THERMOCHEMISTRY AT 298.15K
--------------------------

Temperature         ... 298.15 K
Pressure            ... 1.00 atm
Total Mass          ... 102.16 AMU

Throughout the following assumptions are being made:
  (1) The electronic state is orbitally nondegenerate
  (2) There are no thermally accessible electronically excited states
  (3) Hindered rotations indicated by low frequency modes) are not
      treated as such but are treated as vibrations and this may
      case some error
  (4) All equations used are the standard statistical mechanics
      equations for an ideal gas
  (5) All vibrations are strinctly harmonic

------------
INNER ENERGY
------------

The inner energy is: U= E(el) + E(ZPE) + E(vib) + E(rot) + E(trans)
    E(el)   - is the total energy from the electronic structure calculation
              = E(kin-el) + E(nuc-el) + E(el-el) + E(nuc-nuc)
    E(ZPE)  - the the zero temperature vibrational energy from the frequency calculation
    E(vib)  - the the finite temperature correction to E(ZPE) due to population
              of excietd vibrational states
    E(rot)  - is the rotational thermal energy
    E(trans)- is the translational thermal energy

Summary of contributions to the inner energy U:
Electronic energy                ...   -327.21871648 Eh
Zero point energy                ...      0.17481952 Eh     109.70 kcal/mol
Thermal vibrational correction   ...      0.00559309 Eh       3.51 kcal/mol
Thermal rotational correction    ...      0.00141627 Eh       0.89 kcal/mol
Thermal translational correction ...      0.00141627 Eh       0.89 kcal/mol
-----------------------------------------------------------------------
Total thermal energy                   -327.03547133 Eh

Summary of corrections to the electronic energy:
(perhaps to be used in another calculation)
Total thermal correction                  0.00842563 Eh       5.29 kcal/mol
Non-thermal (ZPE) correction              0.17481952 Eh     109.70 kcal/mol
-----------------------------------------------------------------------
Total correction                          0.18324515 Eh     114.99 kcal/mol

--------
ENTHALPY
--------

The enthalpy is H = U + kB*T
                kB is Boltzmann's constant
Total free energy                 ...   -327.03547133 Eh
Thermal Enthalpy correction       ...      0.00094421 Eh       0.59 kcal/mol
-----------------------------------------------------------------------
Total Enthalpy                    ...   -327.03452713 Eh

-------
ENTROPY
-------

The entropy contributions are T*S = T*(S(el)+S(vib)+S(rot)+S(trans)
     S(el)   - electronic entropy
     S(vib)  - vibrational entropy
     S(rot)  - rotational entropy
     S(trans)- translational entropy
The entropies will be listed as mutliplied by the temperature to get
units of energy

Electronic entropy                ...      0.00000000 Eh      0.00 kcal/mol
Vibrational entropy               ...      0.00954737 Eh      5.99 kcal/mol
Rotational entropy                ...      0.01217879 Eh      7.64 kcal/mol
Translational entropy             ...      0.01890147 Eh     11.86 kcal/mol
-----------------------------------------------------------------------
Final entropy term                ...      0.04062762 Eh     25.49 kcal/mol

CAUTION: The rotational entropy is not quite correctly treated here
         because it includes a symmetry number that is not yet correctly
         implemented in ORCA!
For a nonlinear molecule the correct rotational entropy is:
    S(rot) = R*(ln(qrot/sn)+1.5)
    R    = 8.31441 J/mol/K = 1.987191683e-3 kcal/mol/K
    qrot = 267639.3677472
    sn is the rotational symmetry number. We have assumed 3 here
       if it is different for your molecule then you should correct
       the printed rotational entropy by manually evaluating the equation
       as given above

For convenience we print out the resulting values for sn=1 - 12:
 sn= 1  qrot/sn=  267639.3677 T*S(rot)=     8.29 kcal/mol T*S(tot)=    26.15 kcal/mol
 sn= 2  qrot/sn=  133819.6839 T*S(rot)=     7.88 kcal/mol T*S(tot)=    25.73 kcal/mol
 sn= 3  qrot/sn=   89213.1226 T*S(rot)=     7.64 kcal/mol T*S(tot)=    25.49 kcal/mol
 sn= 4  qrot/sn=   66909.8419 T*S(rot)=     7.47 kcal/mol T*S(tot)=    25.32 kcal/mol
 sn= 5  qrot/sn=   53527.8735 T*S(rot)=     7.34 kcal/mol T*S(tot)=    25.19 kcal/mol
 sn= 6  qrot/sn=   44606.5613 T*S(rot)=     7.23 kcal/mol T*S(tot)=    25.08 kcal/mol
 sn= 7  qrot/sn=   38234.1954 T*S(rot)=     7.14 kcal/mol T*S(tot)=    24.99 kcal/mol
 sn= 8  qrot/sn=   33454.9210 T*S(rot)=     7.06 kcal/mol T*S(tot)=    24.91 kcal/mol
 sn= 9  qrot/sn=   29737.7075 T*S(rot)=     6.99 kcal/mol T*S(tot)=    24.84 kcal/mol
 sn=10  qrot/sn=   26763.9368 T*S(rot)=     6.93 kcal/mol T*S(tot)=    24.78 kcal/mol
 sn=11  qrot/sn=   24330.8516 T*S(rot)=     6.87 kcal/mol T*S(tot)=    24.72 kcal/mol
 sn=12  qrot/sn=   22303.2806 T*S(rot)=     6.82 kcal/mol T*S(tot)=    24.67 kcal/mol

-------------------
GIBBS FREE ENTHALPY
-------------------

The Gibbs free enthalpy is G = H - T*S

Total enthalpy                    ...   -327.03452713 Eh
Total entropy correction          ...     -0.04062762 Eh    -25.49 kcal/mol
-----------------------------------------------------------------------
Final Gibbs free enthalpy         ...   -327.07515475 Eh

For completeness - the Gibbs free enthalpy minus the electronic energy
G-E(el)                           ...      0.14356173 Eh     90.09 kcal/mol

                             ****ORCA TERMINATED NORMALLY****
TOTAL RUN TIME: 0 days 0 hours 51 minutes 29 seconds 887 msec
