                         Program Version 3.0.3 - RELEASE   -
|  1> ! NORI PBE0 def2-TZVP UseSym TightOPT Freq TightSCF Grid3 FinalGrid5 XYZFile
|  2> % pal
|  3>     nprocs 8
|  4> end
|  5> %method
|  6>     SymThresh 5.0e-2
|  7> end
|  8> % geom
|  9>     MaxIter 10
| 10> end
| 11> % maxcore 2000
| 12> % output
| 13>     printlevel mini
| 14>     print[ P_Basis ] 0
| 15>     print[ P_SCFInfo ] 1
| 16>     print[ P_SCFIterInfo ] 1
| 17>     print[ P_OrbEn ] 0
| 18>     print[ P_Cartesian ] 0
| 19> end
| 20> % elprop
| 21>     Dipole false
| 22> end
| 23> *xyz 1 1
| 24>  C        0.7879082932    -0.1217597564    -0.3795401498
| 25>  C        2.1641149321    -0.7682088341    -0.4272586167
| 26>  C        2.8198713745    -0.9506204563     0.9286799480
| 27>  N        1.9300277366    -1.7803913927     1.8282129434
| 28>  C        4.1844671286    -1.6214486199     0.8771825725
| 29>  C        4.9337037491    -1.6180129939     2.1954832397
| 30>  O        4.1144559697    -2.2629675738     3.1735342619
| 31>  H        0.4267443556     0.0717464758    -1.3896161298
| 32>  H        0.8116003008     0.8360381897     0.1465475447
| 33>  H        0.0340748104    -0.7572763648     0.0957052557
| 34>  H        2.8398644838    -0.1476592728    -1.0215043337
| 35>  H        2.1190283695    -1.7366181821    -0.9393624423
| 36>  H        2.8999372286     0.0156400450     1.4372279793
| 37>  H        1.6563095977    -2.6468154220     1.3626576629
| 38>  H        1.0808027289    -1.2815696633     2.0888579092
| 39>  H        2.4982614029    -2.0289889732     2.6680725420
| 40>  H        4.7900836267    -1.0922648019     0.1378425826
| 41>  H        4.0784317803    -2.6489951787     0.5097591362
| 42>  H        5.1533233568    -0.5909217092     2.5081862140
| 43>  H        5.8796688101    -2.1534450950     2.0829952302
| 44>  H        4.5736999639    -2.3216704206     4.0160566497
| 45> *
| 46>
| 47>                          ****END OF INPUT****
 Total Charge           Charge          ....    1
 Multiplicity           Mult            ....    1
 Number of Electrons    NEL             ....   58
FINAL SINGLE POINT ENERGY      -328.454607763568
FINAL SINGLE POINT ENERGY      -328.454609593777
FINAL SINGLE POINT ENERGY      -328.454609934808
FINAL SINGLE POINT ENERGY      -328.454611490553

CARTESIAN COORDINATES (ANGSTROEM)
---------------------------------
  C      0.971358   -0.506067   -2.773145
  C     -0.058548    0.221088   -1.922769
  C     -0.084906   -0.205255   -0.467141
  N      1.279850   -0.004245    0.155152
  C     -1.100521    0.541639    0.384018
  C     -1.273131   -0.013415    1.783805
  O      0.000983    0.011448    2.432186
  H      0.866407   -0.221475   -3.820209
  H      0.845588   -1.590668   -2.716961
  H      2.002198   -0.263943   -2.495481
  H     -1.059321    0.037580   -2.322073
  H      0.091143    1.306304   -1.977568
  H     -0.262789   -1.283463   -0.396432
  H      1.615753    0.944657   -0.015724
  H      1.968115   -0.654152   -0.221485
  H      1.164080   -0.126780    1.185506
  H     -2.065668    0.490905   -0.125392
  H     -0.833650    1.603743    0.432431
  H     -1.654074   -1.040277    1.744240
  H     -1.989681    0.599139    2.337043
  H     -0.075649   -0.287094    3.342841

FINAL SINGLE POINT ENERGY      -328.454611773470
                    ***********************HURRAY********************
 Multiplicity           Mult            ....    1
 Number of Electrons    NEL             ....   58
 Basis Dimension        Dim             ....  301
FINAL SINGLE POINT ENERGY      -328.454611902956

VIBRATIONAL FREQUENCIES
-----------------------

   0:         0.00 cm**-1
   1:         0.00 cm**-1
   2:         0.00 cm**-1
   3:         0.00 cm**-1
   4:         0.00 cm**-1
   5:         0.00 cm**-1
   6:        80.73 cm**-1
   7:       104.62 cm**-1
   8:       189.34 cm**-1
   9:       211.21 cm**-1
  10:       256.05 cm**-1
  11:       307.17 cm**-1
  12:       321.07 cm**-1
  13:       342.77 cm**-1
  14:       357.73 cm**-1
  15:       437.36 cm**-1
  16:       448.96 cm**-1
  17:       529.11 cm**-1
  18:       764.73 cm**-1
  19:       825.30 cm**-1
  20:       853.43 cm**-1
  21:       909.45 cm**-1
  22:       940.67 cm**-1
  23:      1001.40 cm**-1
  24:      1015.37 cm**-1
  25:      1036.28 cm**-1
  26:      1066.05 cm**-1
  27:      1091.42 cm**-1
  28:      1127.48 cm**-1
  29:      1178.56 cm**-1
  30:      1210.73 cm**-1
  31:      1224.81 cm**-1
  32:      1256.16 cm**-1
  33:      1304.13 cm**-1
  34:      1309.32 cm**-1
  35:      1331.74 cm**-1
  36:      1377.42 cm**-1
  37:      1407.51 cm**-1
  38:      1417.60 cm**-1
  39:      1420.80 cm**-1
  40:      1443.65 cm**-1
  41:      1461.71 cm**-1
  42:      1477.96 cm**-1
  43:      1489.97 cm**-1
  44:      1499.71 cm**-1
  45:      1507.58 cm**-1
  46:      1519.13 cm**-1
  47:      1641.13 cm**-1
  48:      1670.20 cm**-1
  49:      3041.20 cm**-1
  50:      3042.35 cm**-1
  51:      3046.01 cm**-1
  52:      3053.28 cm**-1
  53:      3076.64 cm**-1
  54:      3081.89 cm**-1
  55:      3099.05 cm**-1
  56:      3104.68 cm**-1
  57:      3118.99 cm**-1
  58:      3124.17 cm**-1
  59:      3147.88 cm**-1
  60:      3469.67 cm**-1
  61:      3536.63 cm**-1
  62:      3863.99 cm**-1

IR SPECTRUM
-----------

 Mode    freq (cm**-1)   T**2         TX         TY         TZ
-------------------------------------------------------------------
   6:        80.73    6.664852  ( -0.363265  -2.528303   0.374934)
   7:       104.62    0.636348  ( -0.474210  -0.018496  -0.641195)
   8:       189.34    3.507461  ( -1.368883  -1.226726  -0.358833)
   9:       211.21    9.811159  (  1.581875  -2.035599  -1.779092)
  10:       256.05    8.970054  (  0.461258  -2.139449  -2.044518)
  11:       307.17   13.222483  ( -1.418403  -2.579539  -2.134618)
  12:       321.07   65.245523  ( -0.905165  -7.845808   1.693957)
  13:       342.77   15.925129  (  1.268847   0.818141  -3.694023)
  14:       357.73   89.437132  (  2.791837  -6.307586  -6.469709)
  15:       437.36    0.803487  (  0.468955   0.079316  -0.759787)
  16:       448.96    8.439130  (  2.043750  -1.838333  -0.939547)
  17:       529.11   20.137497  (  0.795076  -0.406013   4.397784)
  18:       764.73    3.145334  (  0.608846   1.194805   1.160638)
  19:       825.30    6.848086  ( -1.599056   0.087762  -2.069639)
  20:       853.43   11.226422  (  1.497344  -0.222678   2.989113)
  21:       909.45    7.037787  (  0.465427  -0.420038  -2.577738)
  22:       940.67    2.407693  ( -0.376455   0.868260   1.229674)
  23:      1001.40   12.769067  ( -2.626207   1.302421  -2.043479)
  24:      1015.37   11.577530  (  2.196752   0.981677  -2.405852)
  25:      1036.28   30.818932  ( -0.817098   0.110694  -5.489903)
  26:      1066.05    8.786732  ( -2.341261   0.192395   1.807820)
  27:      1091.42   36.249783  (  5.518524  -1.079586   2.151782)
  28:      1127.48   15.513482  ( -3.348516  -0.904694  -1.866132)
  29:      1178.56   10.053922  (  1.860334  -0.853427  -2.421723)
  30:      1210.73   13.458485  ( -2.329477  -1.112488   2.606605)
  31:      1224.81   67.529442  (  4.503499   1.790239   6.636489)
  32:      1256.16    6.844131  ( -0.047897   0.230478  -2.605517)
  33:      1304.13   10.095741  (  2.843466  -0.032028  -1.417540)
  34:      1309.32   12.134998  ( -3.461986  -0.046692  -0.384023)
  35:      1331.74   13.750455  (  3.668575   0.041456   0.538786)
  36:      1377.42    1.628439  ( -0.924295  -0.363898   0.801060)
  37:      1407.51   17.333529  (  2.631101  -2.075255   2.470659)
  38:      1417.60    5.857914  ( -1.275108   1.083680   1.748614)
  39:      1420.80    0.743596  ( -0.037899   0.524735   0.683237)
  40:      1443.65   12.791899  (  2.721556  -0.555191   2.253174)
  41:      1461.71    4.738222  (  0.587878  -1.955073   0.755188)
  42:      1477.96    9.023486  (  2.043031  -2.184621  -0.277384)
  43:      1489.97   60.638097  (  7.366994  -0.620917   2.445394)
  44:      1499.71   15.908656  ( -3.283831   2.177630   0.618900)
  45:      1507.58   93.123020  (  9.291812   2.507974  -0.703787)
  46:      1519.13   44.366491  (  5.973100   2.105718  -2.062649)
  47:      1641.13   19.261453  (  1.135395  -4.226532   0.329778)
  48:      1670.20   37.324089  ( -2.820467   4.013920   3.641085)
  49:      3041.20   30.283734  ( -4.033501  -2.676922   2.617000)
  50:      3042.35    4.631779  ( -0.433586   0.853242   1.927631)
  51:      3046.01   16.927763  ( -3.274993   1.965187  -1.529780)
  52:      3053.28   13.380089  (  2.783095   1.719053  -1.636866)
  53:      3076.64   30.114344  (  1.440773  -2.787875  -4.501808)
  54:      3081.89  520.706254  ( -6.600867  -0.941679  21.823108)
  55:      3099.05    1.474341  (  0.404876   0.773000   0.844326)
  56:      3104.68   10.977749  ( -1.436926   2.841478   0.915965)
  57:      3118.99   10.611298  (  2.730580   1.656441  -0.641433)
  58:      3124.17   13.763638  (  2.362846   2.824206  -0.452170)
  59:      3147.88    2.561919  ( -0.357209   1.137516  -1.067885)
  60:      3469.67   64.548235  ( -6.130401  -2.763347   4.396628)
  61:      3536.63   68.244744  ( -3.128215   7.300558   2.271755)
  62:      3863.99  120.596299  (  1.010686  -2.619145  10.616727)

--------------------------
THERMOCHEMISTRY AT 298.15K
--------------------------

Temperature         ... 298.15 K
Pressure            ... 1.00 atm
Total Mass          ... 104.17 AMU

Throughout the following assumptions are being made:
  (1) The electronic state is orbitally nondegenerate
  (2) There are no thermally accessible electronically excited states
  (3) Hindered rotations indicated by low frequency modes) are not
      treated as such but are treated as vibrations and this may
      case some error
  (4) All equations used are the standard statistical mechanics
      equations for an ideal gas
  (5) All vibrations are strinctly harmonic

------------
INNER ENERGY
------------

The inner energy is: U= E(el) + E(ZPE) + E(vib) + E(rot) + E(trans)
    E(el)   - is the total energy from the electronic structure calculation
              = E(kin-el) + E(nuc-el) + E(el-el) + E(nuc-nuc)
    E(ZPE)  - the the zero temperature vibrational energy from the frequency calculation
    E(vib)  - the the finite temperature correction to E(ZPE) due to population
              of excietd vibrational states
    E(rot)  - is the rotational thermal energy
    E(trans)- is the translational thermal energy

Summary of contributions to the inner energy U:
Electronic energy                ...   -328.45461190 Eh
Zero point energy                ...      0.19859695 Eh     124.62 kcal/mol
Thermal vibrational correction   ...      0.00603688 Eh       3.79 kcal/mol
Thermal rotational correction    ...      0.00141627 Eh       0.89 kcal/mol
Thermal translational correction ...      0.00141627 Eh       0.89 kcal/mol
-----------------------------------------------------------------------
Total thermal energy                   -328.24714553 Eh

Summary of corrections to the electronic energy:
(perhaps to be used in another calculation)
Total thermal correction                  0.00886943 Eh       5.57 kcal/mol
Non-thermal (ZPE) correction              0.19859695 Eh     124.62 kcal/mol
-----------------------------------------------------------------------
Total correction                          0.20746637 Eh     130.19 kcal/mol

--------
ENTHALPY
--------

The enthalpy is H = U + kB*T
                kB is Boltzmann's constant
Total free energy                 ...   -328.24714553 Eh
Thermal Enthalpy correction       ...      0.00094421 Eh       0.59 kcal/mol
-----------------------------------------------------------------------
Total Enthalpy                    ...   -328.24620132 Eh

-------
ENTROPY
-------

The entropy contributions are T*S = T*(S(el)+S(vib)+S(rot)+S(trans)
     S(el)   - electronic entropy
     S(vib)  - vibrational entropy
     S(rot)  - rotational entropy
     S(trans)- translational entropy
The entropies will be listed as mutliplied by the temperature to get
units of energy

Electronic entropy                ...      0.00000000 Eh      0.00 kcal/mol
Vibrational entropy               ...      0.01051706 Eh      6.60 kcal/mol
Rotational entropy                ...      0.01226315 Eh      7.70 kcal/mol
Translational entropy             ...      0.01892914 Eh     11.88 kcal/mol
-----------------------------------------------------------------------
Final entropy term                ...      0.04170935 Eh     26.17 kcal/mol

CAUTION: The rotational entropy is not quite correctly treated here
         because it includes a symmetry number that is not yet correctly
         implemented in ORCA!
For a nonlinear molecule the correct rotational entropy is:
    S(rot) = R*(ln(qrot/sn)+1.5)
    R    = 8.31441 J/mol/K = 1.987191683e-3 kcal/mol/K
    qrot = 292655.2828685
    sn is the rotational symmetry number. We have assumed 3 here
       if it is different for your molecule then you should correct
       the printed rotational entropy by manually evaluating the equation
       as given above

For convenience we print out the resulting values for sn=1 - 12:
 sn= 1  qrot/sn=  292655.2829 T*S(rot)=     8.35 kcal/mol T*S(tot)=    26.82 kcal/mol
 sn= 2  qrot/sn=  146327.6414 T*S(rot)=     7.94 kcal/mol T*S(tot)=    26.41 kcal/mol
 sn= 3  qrot/sn=   97551.7610 T*S(rot)=     7.70 kcal/mol T*S(tot)=    26.17 kcal/mol
 sn= 4  qrot/sn=   73163.8207 T*S(rot)=     7.52 kcal/mol T*S(tot)=    26.00 kcal/mol
 sn= 5  qrot/sn=   58531.0566 T*S(rot)=     7.39 kcal/mol T*S(tot)=    25.87 kcal/mol
 sn= 6  qrot/sn=   48775.8805 T*S(rot)=     7.28 kcal/mol T*S(tot)=    25.76 kcal/mol
 sn= 7  qrot/sn=   41807.8976 T*S(rot)=     7.19 kcal/mol T*S(tot)=    25.67 kcal/mol
 sn= 8  qrot/sn=   36581.9104 T*S(rot)=     7.11 kcal/mol T*S(tot)=    25.59 kcal/mol
 sn= 9  qrot/sn=   32517.2537 T*S(rot)=     7.04 kcal/mol T*S(tot)=    25.52 kcal/mol
 sn=10  qrot/sn=   29265.5283 T*S(rot)=     6.98 kcal/mol T*S(tot)=    25.46 kcal/mol
 sn=11  qrot/sn=   26605.0257 T*S(rot)=     6.93 kcal/mol T*S(tot)=    25.40 kcal/mol
 sn=12  qrot/sn=   24387.9402 T*S(rot)=     6.87 kcal/mol T*S(tot)=    25.35 kcal/mol

-------------------
GIBBS FREE ENTHALPY
-------------------

The Gibbs free enthalpy is G = H - T*S

Total enthalpy                    ...   -328.24620132 Eh
Total entropy correction          ...     -0.04170935 Eh    -26.17 kcal/mol
-----------------------------------------------------------------------
Final Gibbs free enthalpy         ...   -328.28791067 Eh

For completeness - the Gibbs free enthalpy minus the electronic energy
G-E(el)                           ...      0.16670123 Eh    104.61 kcal/mol

                             ****ORCA TERMINATED NORMALLY****
TOTAL RUN TIME: 0 days 0 hours 52 minutes 45 seconds 81 msec
