                         Program Version 3.0.3 - RELEASE   -
|  1> ! NORI PBE0 def2-TZVP UseSym TightOPT Freq TightSCF Grid3 FinalGrid5 XYZFile
|  2> % pal
|  3>     nprocs 8
|  4> end
|  5> %method
|  6>     SymThresh 5.0e-2
|  7> end
|  8> % geom
|  9>     MaxIter 10
| 10> end
| 11> % maxcore 2000
| 12> % output
| 13>     printlevel mini
| 14>     print[ P_Basis ] 0
| 15>     print[ P_SCFInfo ] 1
| 16>     print[ P_SCFIterInfo ] 1
| 17>     print[ P_OrbEn ] 0
| 18>     print[ P_Cartesian ] 0
| 19> end
| 20> % elprop
| 21>     Dipole false
| 22> end
| 23> *xyz 1 1
| 24>  C        0.8240078964    -0.0808509651     0.3284686438
| 25>  C        2.3433178488    -0.1028532578     0.2556078016
| 26>  C        2.9555858107     1.1914733413    -0.2373943517
| 27>  N        2.5633581157     2.3395253428     0.6635051963
| 28>  C        4.4809086195     1.2199999429    -0.3097517915
| 29>  C        5.0203892035     0.3580312968    -1.4275344540
| 30>  O        4.7862856146     2.5955672973    -0.4917841651
| 31>  H        0.4438551855    -1.0665153426     0.5965929444
| 32>  H        0.3807305861     0.1886295443    -0.6337523272
| 33>  H        0.4433616933     0.6091894083     1.0881322138
| 34>  H        2.7747944365    -0.3606512518     1.2304875396
| 35>  H        2.6611498192    -0.8898939932    -0.4310404635
| 36>  H        2.5577803388     1.4643906034    -1.2194916980
| 37>  H        2.7044342438     2.1022361920     1.6472540797
| 38>  H        1.5900237276     2.6134893873     0.5387604055
| 39>  H        3.1938801326     3.1197228633     0.4245747621
| 40>  H        4.8870870691     0.8753597733     0.6540203826
| 41>  H        4.6123555220     0.6705607857    -2.3910559516
| 42>  H        4.7908824481    -0.6965503003    -1.2675531634
| 43>  H        6.1083358081     0.4439728601    -1.4711309327
| 44>  H        5.7298058800     2.7218964720    -0.6275146706
| 45> *
| 46>
| 47>                          ****END OF INPUT****
 Total Charge           Charge          ....    1
 Multiplicity           Mult            ....    1
 Number of Electrons    NEL             ....   58
FINAL SINGLE POINT ENERGY      -328.450942259011
FINAL SINGLE POINT ENERGY      -328.450943886429
FINAL SINGLE POINT ENERGY      -328.450944950988

CARTESIAN COORDINATES (ANGSTROEM)
---------------------------------
  C      0.790475   -0.395230   -2.651030
  C     -0.081585    0.255914   -1.587548
  C      0.185943   -0.239509   -0.182475
  N      1.629719   -0.000923    0.196999
  C     -0.648749    0.405779    0.922048
  C     -2.096455   -0.026222    0.876375
  O     -0.000533   -0.001678    2.119300
  H      0.487139   -0.062571   -3.643744
  H      0.702255   -1.484524   -2.630837
  H      1.848927   -0.133696   -2.552650
  H      0.025201    1.347145   -1.615578
  H     -1.131700    0.050749   -1.805712
  H      0.061787   -1.324816   -0.118655
  H      1.915911    0.955300   -0.020345
  H      2.264463   -0.639435   -0.279974
  H      1.683366   -0.131273    1.218412
  H     -0.584263    1.500099    0.820278
  H     -2.181174   -1.112502    0.949600
  H     -2.585958    0.309888   -0.038672
  H     -2.642637    0.417785    1.711114
  H     -0.491285    0.294936    2.891161

FINAL SINGLE POINT ENERGY      -328.450945375674
                    ***********************HURRAY********************
 Multiplicity           Mult            ....    1
 Number of Electrons    NEL             ....   58
 Basis Dimension        Dim             ....  301
FINAL SINGLE POINT ENERGY      -328.450945615829

VIBRATIONAL FREQUENCIES
-----------------------

   0:         0.00 cm**-1
   1:         0.00 cm**-1
   2:         0.00 cm**-1
   3:         0.00 cm**-1
   4:         0.00 cm**-1
   5:         0.00 cm**-1
   6:        84.78 cm**-1
   7:        97.20 cm**-1
   8:       192.82 cm**-1
   9:       215.81 cm**-1
  10:       225.05 cm**-1
  11:       244.98 cm**-1
  12:       285.06 cm**-1
  13:       293.71 cm**-1
  14:       365.59 cm**-1
  15:       388.99 cm**-1
  16:       437.66 cm**-1
  17:       495.71 cm**-1
  18:       525.67 cm**-1
  19:       765.56 cm**-1
  20:       831.67 cm**-1
  21:       888.84 cm**-1
  22:       935.16 cm**-1
  23:       959.67 cm**-1
  24:       996.17 cm**-1
  25:      1004.88 cm**-1
  26:      1057.54 cm**-1
  27:      1095.70 cm**-1
  28:      1107.33 cm**-1
  29:      1151.26 cm**-1
  30:      1183.79 cm**-1
  31:      1205.40 cm**-1
  32:      1254.45 cm**-1
  33:      1304.71 cm**-1
  34:      1317.95 cm**-1
  35:      1371.82 cm**-1
  36:      1377.61 cm**-1
  37:      1409.97 cm**-1
  38:      1417.18 cm**-1
  39:      1420.30 cm**-1
  40:      1424.40 cm**-1
  41:      1460.32 cm**-1
  42:      1476.44 cm**-1
  43:      1488.06 cm**-1
  44:      1491.00 cm**-1
  45:      1495.67 cm**-1
  46:      1502.93 cm**-1
  47:      1635.30 cm**-1
  48:      1664.02 cm**-1
  49:      2996.60 cm**-1
  50:      3043.85 cm**-1
  51:      3046.90 cm**-1
  52:      3062.85 cm**-1
  53:      3088.48 cm**-1
  54:      3106.19 cm**-1
  55:      3126.36 cm**-1
  56:      3141.28 cm**-1
  57:      3149.83 cm**-1
  58:      3152.83 cm**-1
  59:      3326.29 cm**-1
  60:      3474.17 cm**-1
  61:      3536.49 cm**-1
  62:      3862.95 cm**-1

IR SPECTRUM
-----------

 Mode    freq (cm**-1)   T**2         TX         TY         TZ
-------------------------------------------------------------------
   6:        84.78    5.399462  (  0.512196   2.134855  -0.761256)
   7:        97.20    5.790270  ( -0.738428  -2.140366  -0.814755)
   8:       192.82    5.391297  (  2.081599   0.923871   0.452442)
   9:       215.81   13.972403  ( -0.381789  -3.568567  -1.044974)
  10:       225.05    1.926713  (  0.765819   1.071408   0.438541)
  11:       244.98    9.975315  ( -1.791278  -2.441903  -0.896521)
  12:       285.06   15.762284  ( -2.151074  -1.416418   3.021411)
  13:       293.71   90.394993  (  4.595184   8.314862   0.377283)
  14:       365.59   28.997227  (  1.730221  -0.327590  -5.088836)
  15:       388.99   15.422310  (  3.156076   0.607013  -2.256774)
  16:       437.66    7.242690  ( -2.495972  -0.275568  -0.967924)
  17:       495.71    5.722776  ( -0.904232   0.718783  -2.094873)
  18:       525.67    2.457869  ( -0.106521  -1.011776  -1.192825)
  19:       765.56    4.283205  (  0.859651   1.021363   1.581462)
  20:       831.67    1.287442  (  0.738215   0.282501  -0.814048)
  21:       888.84    3.709881  ( -1.819684   0.279094   0.566335)
  22:       935.16   14.293200  (  0.580153  -0.173028  -3.731847)
  23:       959.67   45.596401  (  3.345446  -0.703521   5.823182)
  24:       996.17   11.134344  ( -0.510355  -2.425906   2.233576)
  25:      1004.88   28.285804  ( -2.566273   1.424475   4.435191)
  26:      1057.54   10.480208  ( -0.848101  -0.660830   3.053561)
  27:      1095.70   14.736426  (  1.295031  -1.664372   3.207676)
  28:      1107.33   50.013719  (  4.167243  -0.999362   5.625751)
  29:      1151.26   42.697742  (  0.668332  -1.978361   6.191701)
  30:      1183.79   14.108790  (  2.087770  -1.293070   2.842178)
  31:      1205.40   12.131681  (  2.652526  -0.363196  -2.227976)
  32:      1254.45   14.057528  ( -1.126759   1.146202  -3.387354)
  33:      1304.71    9.774329  ( -2.248908   1.968478  -0.917514)
  34:      1317.95    3.570196  (  0.265731   0.122211  -1.866721)
  35:      1371.82   10.699127  ( -2.249175  -0.137136  -2.370977)
  36:      1377.61    4.797696  ( -1.600019   1.477685  -0.232561)
  37:      1409.97    7.830726  (  2.174511  -1.325206   1.160198)
  38:      1417.18   23.747594  ( -4.674960  -0.778887  -1.133876)
  39:      1420.30    1.733575  ( -0.199876   0.890900   0.948642)
  40:      1424.40    2.726553  (  0.470119   0.074708   1.581126)
  41:      1460.32  198.517646  ( 13.920439  -0.389955   2.141720)
  42:      1476.44    2.573305  ( -0.695630   1.016710   1.027474)
  43:      1488.06   10.331953  (  1.587188  -2.743790   0.533295)
  44:      1491.00   17.785674  (  2.226014   0.204255   3.576145)
  45:      1495.67    1.287231  (  0.043514   1.028987  -0.475943)
  46:      1502.93   32.580778  (  4.284264   3.771414  -0.047953)
  47:      1635.30   34.073307  (  0.487223  -5.332247   2.324449)
  48:      1664.02   37.430095  (  1.754900  -3.871748  -4.399998)
  49:      2996.60   22.503357  (  0.832100   4.210371  -2.020827)
  50:      3043.85    5.631581  ( -1.301532  -1.764808  -0.907221)
  51:      3046.90   17.001067  (  3.500460  -2.107592  -0.553082)
  52:      3062.85    1.322589  ( -1.016154  -0.519021   0.143656)
  53:      3088.48    4.453603  ( -0.277278   2.085600  -0.164286)
  54:      3106.19    4.407957  ( -1.203817  -1.342032  -1.075980)
  55:      3126.36   13.290488  (  2.695254   2.446086  -0.206771)
  56:      3141.28    5.980954  (  0.158912  -1.721339  -1.729940)
  57:      3149.83    2.082942  (  0.455656  -0.962065   0.974551)
  58:      3152.83    5.460869  ( -0.564452   1.603536  -1.603414)
  59:      3326.29  136.720397  (  0.642529   0.478875 -11.665257)
  60:      3474.17   83.804492  ( -5.722176  -3.568602   6.190821)
  61:      3536.49   84.031057  ( -4.002127   7.528294   3.367316)
  62:      3862.95  106.131055  ( -2.937975   1.980171   9.673587)

--------------------------
THERMOCHEMISTRY AT 298.15K
--------------------------

Temperature         ... 298.15 K
Pressure            ... 1.00 atm
Total Mass          ... 104.17 AMU

Throughout the following assumptions are being made:
  (1) The electronic state is orbitally nondegenerate
  (2) There are no thermally accessible electronically excited states
  (3) Hindered rotations indicated by low frequency modes) are not
      treated as such but are treated as vibrations and this may
      case some error
  (4) All equations used are the standard statistical mechanics
      equations for an ideal gas
  (5) All vibrations are strinctly harmonic

------------
INNER ENERGY
------------

The inner energy is: U= E(el) + E(ZPE) + E(vib) + E(rot) + E(trans)
    E(el)   - is the total energy from the electronic structure calculation
              = E(kin-el) + E(nuc-el) + E(el-el) + E(nuc-nuc)
    E(ZPE)  - the the zero temperature vibrational energy from the frequency calculation
    E(vib)  - the the finite temperature correction to E(ZPE) due to population
              of excietd vibrational states
    E(rot)  - is the rotational thermal energy
    E(trans)- is the translational thermal energy

Summary of contributions to the inner energy U:
Electronic energy                ...   -328.45094562 Eh
Zero point energy                ...      0.19743329 Eh     123.89 kcal/mol
Thermal vibrational correction   ...      0.00649655 Eh       4.08 kcal/mol
Thermal rotational correction    ...      0.00141627 Eh       0.89 kcal/mol
Thermal translational correction ...      0.00141627 Eh       0.89 kcal/mol
-----------------------------------------------------------------------
Total thermal energy                   -328.24418323 Eh

Summary of corrections to the electronic energy:
(perhaps to be used in another calculation)
Total thermal correction                  0.00932910 Eh       5.85 kcal/mol
Non-thermal (ZPE) correction              0.19743329 Eh     123.89 kcal/mol
-----------------------------------------------------------------------
Total correction                          0.20676239 Eh     129.75 kcal/mol

--------
ENTHALPY
--------

The enthalpy is H = U + kB*T
                kB is Boltzmann's constant
Total free energy                 ...   -328.24418323 Eh
Thermal Enthalpy correction       ...      0.00094421 Eh       0.59 kcal/mol
-----------------------------------------------------------------------
Total Enthalpy                    ...   -328.24323902 Eh

-------
ENTROPY
-------

The entropy contributions are T*S = T*(S(el)+S(vib)+S(rot)+S(trans)
     S(el)   - electronic entropy
     S(vib)  - vibrational entropy
     S(rot)  - rotational entropy
     S(trans)- translational entropy
The entropies will be listed as mutliplied by the temperature to get
units of energy

Electronic entropy                ...      0.00000000 Eh      0.00 kcal/mol
Vibrational entropy               ...      0.01136570 Eh      7.13 kcal/mol
Rotational entropy                ...      0.01227274 Eh      7.70 kcal/mol
Translational entropy             ...      0.01892914 Eh     11.88 kcal/mol
-----------------------------------------------------------------------
Final entropy term                ...      0.04256758 Eh     26.71 kcal/mol

CAUTION: The rotational entropy is not quite correctly treated here
         because it includes a symmetry number that is not yet correctly
         implemented in ORCA!
For a nonlinear molecule the correct rotational entropy is:
    S(rot) = R*(ln(qrot/sn)+1.5)
    R    = 8.31441 J/mol/K = 1.987191683e-3 kcal/mol/K
    qrot = 295643.3485786
    sn is the rotational symmetry number. We have assumed 3 here
       if it is different for your molecule then you should correct
       the printed rotational entropy by manually evaluating the equation
       as given above

For convenience we print out the resulting values for sn=1 - 12:
 sn= 1  qrot/sn=  295643.3486 T*S(rot)=     8.35 kcal/mol T*S(tot)=    27.36 kcal/mol
 sn= 2  qrot/sn=  147821.6743 T*S(rot)=     7.94 kcal/mol T*S(tot)=    26.95 kcal/mol
 sn= 3  qrot/sn=   98547.7829 T*S(rot)=     7.70 kcal/mol T*S(tot)=    26.71 kcal/mol
 sn= 4  qrot/sn=   73910.8371 T*S(rot)=     7.53 kcal/mol T*S(tot)=    26.54 kcal/mol
 sn= 5  qrot/sn=   59128.6697 T*S(rot)=     7.40 kcal/mol T*S(tot)=    26.41 kcal/mol
 sn= 6  qrot/sn=   49273.8914 T*S(rot)=     7.29 kcal/mol T*S(tot)=    26.30 kcal/mol
 sn= 7  qrot/sn=   42234.7641 T*S(rot)=     7.20 kcal/mol T*S(tot)=    26.21 kcal/mol
 sn= 8  qrot/sn=   36955.4186 T*S(rot)=     7.12 kcal/mol T*S(tot)=    26.13 kcal/mol
 sn= 9  qrot/sn=   32849.2610 T*S(rot)=     7.05 kcal/mol T*S(tot)=    26.06 kcal/mol
 sn=10  qrot/sn=   29564.3349 T*S(rot)=     6.99 kcal/mol T*S(tot)=    26.00 kcal/mol
 sn=11  qrot/sn=   26876.6681 T*S(rot)=     6.93 kcal/mol T*S(tot)=    25.94 kcal/mol
 sn=12  qrot/sn=   24636.9457 T*S(rot)=     6.88 kcal/mol T*S(tot)=    25.89 kcal/mol

-------------------
GIBBS FREE ENTHALPY
-------------------

The Gibbs free enthalpy is G = H - T*S

Total enthalpy                    ...   -328.24323902 Eh
Total entropy correction          ...     -0.04256758 Eh    -26.71 kcal/mol
-----------------------------------------------------------------------
Final Gibbs free enthalpy         ...   -328.28580660 Eh

For completeness - the Gibbs free enthalpy minus the electronic energy
G-E(el)                           ...      0.16513901 Eh    103.63 kcal/mol

                             ****ORCA TERMINATED NORMALLY****
TOTAL RUN TIME: 0 days 1 hours 2 minutes 13 seconds 745 msec
