                         Program Version 3.0.3 - RELEASE   -
|  1> ! NORI PBE0 def2-TZVP UseSym TightOPT Freq TightSCF Grid3 FinalGrid5 XYZFile
|  2> % pal
|  3>     nprocs 8
|  4> end
|  5> %method
|  6>     SymThresh 5.0e-2
|  7> end
|  8> % geom
|  9>     MaxIter 10
| 10> end
| 11> % maxcore 2000
| 12> % output
| 13>     printlevel mini
| 14>     print[ P_Basis ] 0
| 15>     print[ P_SCFInfo ] 1
| 16>     print[ P_SCFIterInfo ] 1
| 17>     print[ P_OrbEn ] 0
| 18>     print[ P_Cartesian ] 0
| 19> end
| 20> % elprop
| 21>     Dipole false
| 22> end
| 23> *xyz 1 1
| 24>  C        3.0004534104     1.0221461882    -0.9861866074
| 25>  C        2.6554583544    -0.1136076708    -0.0358029760
| 26>  C        3.4600085075    -1.3904804299    -0.2550083641
| 27>  N        3.2804895608    -1.9670945930    -1.6245033127
| 28>  C        2.5235393438    -3.2417103851    -1.7034604520
| 29>  C        4.9587938412    -1.1892194808    -0.0934885647
| 30>  O        5.7185485742    -1.5122663778    -0.9639513541
| 31>  H        2.4001565166     1.8996455569    -0.7461242524
| 32>  H        2.7877898508     0.7906921933    -2.0361862329
| 33>  H        4.0511780466     1.3131326084    -0.9175074298
| 34>  H        1.5893366533    -0.3567964877    -0.0854143061
| 35>  H        2.8371558990     0.1954432411     0.9980195739
| 36>  H        3.1496869241    -2.1516911341     0.4685798815
| 37>  H        2.8476471703    -1.2638426798    -2.2248853435
| 38>  H        4.2552527472    -2.0898990894    -1.9698844719
| 39>  H        1.5260860492    -3.0926265139    -1.2941720799
| 40>  H        3.0561426897    -3.9990555278    -1.1314486751
| 41>  H        2.4568689003    -3.5470395618    -2.7464837264
| 42>  H        5.2962669607    -0.7403598559     0.8543386937
| 43> *
| 44>
| 45>                          ****END OF INPUT****
 Total Charge           Charge          ....    1
 Multiplicity           Mult            ....    1
 Number of Electrons    NEL             ....   56
FINAL SINGLE POINT ENERGY      -327.218780221622
FINAL SINGLE POINT ENERGY      -327.218775146260
FINAL SINGLE POINT ENERGY      -327.218784945035
FINAL SINGLE POINT ENERGY      -327.218786121294
FINAL SINGLE POINT ENERGY      -327.218788000081

CARTESIAN COORDINATES (ANGSTROEM)
---------------------------------
  C     -1.357014    1.637148   -0.962731
  C     -1.190536    0.142645   -1.190883
  C     -0.261591   -0.551939   -0.200631
  N      1.129182    0.001313   -0.212128
  C      2.178280   -0.884487   -0.775546
  C     -0.731355   -0.436636    1.241382
  O     -0.002137   -0.006418    2.091577
  H     -2.067693    2.042790   -1.682897
  H     -0.430091    2.203721   -1.103606
  H     -1.736992    1.863963    0.036353
  H     -0.838301   -0.061116   -2.206766
  H     -2.159725   -0.358428   -1.111336
  H     -0.195724   -1.618036   -0.442111
  H      1.124952    0.897109   -0.701569
  H      1.318947    0.213531    0.789290
  H      1.932618   -1.120041   -1.809356
  H      2.220298   -1.795837   -0.182176
  H      3.136966   -0.370646   -0.728115
  H     -1.759438   -0.772156    1.453740

FINAL SINGLE POINT ENERGY      -327.218788366205
                    ***********************HURRAY********************
 Multiplicity           Mult            ....    1
 Number of Electrons    NEL             ....   56
 Basis Dimension        Dim             ....  289
FINAL SINGLE POINT ENERGY      -327.218788575963

VIBRATIONAL FREQUENCIES
-----------------------

   0:         0.00 cm**-1
   1:         0.00 cm**-1
   2:         0.00 cm**-1
   3:         0.00 cm**-1
   4:         0.00 cm**-1
   5:         0.00 cm**-1
   6:        34.60 cm**-1
   7:        91.26 cm**-1
   8:       134.46 cm**-1
   9:       206.18 cm**-1
  10:       224.27 cm**-1
  11:       255.26 cm**-1
  12:       308.28 cm**-1
  13:       325.41 cm**-1
  14:       388.08 cm**-1
  15:       546.54 cm**-1
  16:       701.01 cm**-1
  17:       771.49 cm**-1
  18:       795.16 cm**-1
  19:       858.10 cm**-1
  20:       931.39 cm**-1
  21:       970.84 cm**-1
  22:       981.93 cm**-1
  23:      1045.79 cm**-1
  24:      1078.33 cm**-1
  25:      1091.54 cm**-1
  26:      1141.59 cm**-1
  27:      1185.07 cm**-1
  28:      1200.82 cm**-1
  29:      1272.66 cm**-1
  30:      1306.78 cm**-1
  31:      1346.38 cm**-1
  32:      1369.84 cm**-1
  33:      1376.36 cm**-1
  34:      1398.28 cm**-1
  35:      1425.36 cm**-1
  36:      1435.05 cm**-1
  37:      1465.27 cm**-1
  38:      1474.57 cm**-1
  39:      1485.76 cm**-1
  40:      1495.50 cm**-1
  41:      1495.52 cm**-1
  42:      1504.03 cm**-1
  43:      1657.29 cm**-1
  44:      1831.65 cm**-1
  45:      3028.65 cm**-1
  46:      3042.53 cm**-1
  47:      3064.57 cm**-1
  48:      3080.20 cm**-1
  49:      3090.16 cm**-1
  50:      3098.47 cm**-1
  51:      3119.20 cm**-1
  52:      3151.56 cm**-1
  53:      3170.31 cm**-1
  54:      3190.38 cm**-1
  55:      3193.78 cm**-1
  56:      3474.47 cm**-1

IR SPECTRUM
-----------

 Mode    freq (cm**-1)   T**2         TX         TY         TZ
-------------------------------------------------------------------
   7:        91.26    2.474875  ( -1.267449   0.924552   0.116834)
   8:       134.46    4.512268  ( -0.867273   1.920619   0.267071)
   9:       206.18    0.947842  (  0.638784  -0.049015   0.733072)
  10:       224.27    4.756868  ( -1.687155  -0.870894   1.073276)
  11:       255.26   16.173596  ( -3.306450   1.870723   1.319613)
  12:       308.28    6.640973  ( -2.342111   0.101198   1.070163)
  13:       325.41   29.456290  ( -2.843129  -2.071958   4.132783)
  14:       388.08   10.603184  ( -1.388492   0.367572   2.922356)
  15:       546.54    3.051597  ( -1.346578   1.036289  -0.405499)
  16:       701.01    4.766472  (  0.099598  -1.032750   1.920932)
  17:       771.49    4.508774  (  0.913830   0.647235  -1.804099)
  18:       795.16   12.572701  (  2.775738  -0.649888  -2.108466)
  19:       858.10   29.790796  ( -1.076674  -1.133399   5.229434)
  20:       931.39    1.388406  (  1.023237  -0.481688   0.330711)
  21:       970.84    8.070080  ( -1.962683  -0.506934  -1.990220)
  22:       981.93   16.616859  (  0.106844   0.150958  -4.072181)
  23:      1045.79    5.398191  ( -1.584624   1.699098   0.014958)
  24:      1078.33    8.323109  (  2.404016   1.028429  -1.219077)
  25:      1091.54    1.144224  (  0.171360  -0.110311  -1.050091)
  26:      1141.59    9.354812  (  1.988642  -0.591393   2.247302)
  27:      1185.07   19.166381  ( -3.079225   0.028606   3.111903)
  28:      1200.82    7.095212  (  0.462284  -0.367766   2.597355)
  29:      1272.66    4.534516  ( -0.401498  -0.192621   2.082357)
  30:      1306.78    2.440267  ( -0.401505   0.239577   1.490525)
  31:      1346.38   38.754915  ( -5.632488  -1.444489   2.223386)
  32:      1369.84    1.281428  (  0.593282   0.928043  -0.261114)
  33:      1376.36    2.288248  ( -0.283862  -1.465323   0.245966)
  34:      1398.28    4.831183  ( -1.991218   0.754119  -0.545473)
  35:      1425.36   60.510714  (  7.339430  -1.882171  -1.760943)
  36:      1435.05   36.541635  ( -5.651812  -2.047052   0.638930)
  37:      1465.27   14.547205  (  3.482268  -1.149842  -1.048273)
  38:      1474.57    4.921112  ( -0.302900   1.979788   0.953836)
  39:      1485.76    9.088345  (  1.952336   0.734566   2.176498)
  40:      1495.50   37.213013  (  5.510643   1.480851   2.157060)
  41:      1495.52    6.519143  (  0.852429  -1.494685   1.886379)
  42:      1504.03   38.474709  (  4.337466   2.211270  -3.843356)
  43:      1657.29   39.865022  (  2.234511   5.639271   1.752314)
  44:      1831.65  106.960585  (  3.851017   2.394420   9.294999)
  45:      3028.65   13.980896  (  3.445053   1.005264  -1.049737)
  46:      3042.53   14.097679  (  3.379268   1.365817   0.901539)
  47:      3064.57    6.896885  (  0.105075   1.926552   1.781640)
  48:      3080.20    0.698556  (  0.127927   0.518009  -0.643318)
  49:      3090.16    1.420358  (  0.355385  -0.422758  -1.056094)
  50:      3098.47    1.241410  ( -1.071326   0.011165   0.305853)
  51:      3119.20   10.160336  (  2.794080   0.544164  -1.434343)
  52:      3151.56    1.282530  (  0.272946  -0.077905   1.096340)
  53:      3170.31  193.426778  ( -4.083328   1.741183  13.180345)
  54:      3190.38    6.429358  ( -0.682101   0.700453   2.339543)
  55:      3193.78    9.654615  ( -0.753158   0.346197   2.994581)
  56:      3474.47   69.271808  (  1.051877  -6.890635   4.548023)

--------------------------
THERMOCHEMISTRY AT 298.15K
--------------------------

Temperature         ... 298.15 K
Pressure            ... 1.00 atm
Total Mass          ... 102.16 AMU

Throughout the following assumptions are being made:
  (1) The electronic state is orbitally nondegenerate
  (2) There are no thermally accessible electronically excited states
  (3) Hindered rotations indicated by low frequency modes) are not
      treated as such but are treated as vibrations and this may
      case some error
  (4) All equations used are the standard statistical mechanics
      equations for an ideal gas
  (5) All vibrations are strinctly harmonic

------------
INNER ENERGY
------------

The inner energy is: U= E(el) + E(ZPE) + E(vib) + E(rot) + E(trans)
    E(el)   - is the total energy from the electronic structure calculation
              = E(kin-el) + E(nuc-el) + E(el-el) + E(nuc-nuc)
    E(ZPE)  - the the zero temperature vibrational energy from the frequency calculation
    E(vib)  - the the finite temperature correction to E(ZPE) due to population
              of excietd vibrational states
    E(rot)  - is the rotational thermal energy
    E(trans)- is the translational thermal energy

Summary of contributions to the inner energy U:
Electronic energy                ...   -327.21878858 Eh
Zero point energy                ...      0.17377268 Eh     109.04 kcal/mol
Thermal vibrational correction   ...      0.00500396 Eh       3.14 kcal/mol
Thermal rotational correction    ...      0.00141627 Eh       0.89 kcal/mol
Thermal translational correction ...      0.00141627 Eh       0.89 kcal/mol
-----------------------------------------------------------------------
Total thermal energy                   -327.03717940 Eh

Summary of corrections to the electronic energy:
(perhaps to be used in another calculation)
Total thermal correction                  0.00783650 Eh       4.92 kcal/mol
Non-thermal (ZPE) correction              0.17377268 Eh     109.04 kcal/mol
-----------------------------------------------------------------------
Total correction                          0.18160918 Eh     113.96 kcal/mol

--------
ENTHALPY
--------

The enthalpy is H = U + kB*T
                kB is Boltzmann's constant
Total free energy                 ...   -327.03717940 Eh
Thermal Enthalpy correction       ...      0.00094421 Eh       0.59 kcal/mol
-----------------------------------------------------------------------
Total Enthalpy                    ...   -327.03623519 Eh

-------
ENTROPY
-------

The entropy contributions are T*S = T*(S(el)+S(vib)+S(rot)+S(trans)
     S(el)   - electronic entropy
     S(vib)  - vibrational entropy
     S(rot)  - rotational entropy
     S(trans)- translational entropy
The entropies will be listed as mutliplied by the temperature to get
units of energy

Electronic entropy                ...      0.00000000 Eh      0.00 kcal/mol
Vibrational entropy               ...      0.00867916 Eh      5.45 kcal/mol
Rotational entropy                ...      0.01223120 Eh      7.68 kcal/mol
Translational entropy             ...      0.01890147 Eh     11.86 kcal/mol
-----------------------------------------------------------------------
Final entropy term                ...      0.03981183 Eh     24.98 kcal/mol

CAUTION: The rotational entropy is not quite correctly treated here
         because it includes a symmetry number that is not yet correctly
         implemented in ORCA!
For a nonlinear molecule the correct rotational entropy is:
    S(rot) = R*(ln(qrot/sn)+1.5)
    R    = 8.31441 J/mol/K = 1.987191683e-3 kcal/mol/K
    qrot = 282916.9959679
    sn is the rotational symmetry number. We have assumed 3 here
       if it is different for your molecule then you should correct
       the printed rotational entropy by manually evaluating the equation
       as given above

For convenience we print out the resulting values for sn=1 - 12:
 sn= 1  qrot/sn=  282916.9960 T*S(rot)=     8.33 kcal/mol T*S(tot)=    25.63 kcal/mol
 sn= 2  qrot/sn=  141458.4980 T*S(rot)=     7.92 kcal/mol T*S(tot)=    25.22 kcal/mol
 sn= 3  qrot/sn=   94305.6653 T*S(rot)=     7.68 kcal/mol T*S(tot)=    24.98 kcal/mol
 sn= 4  qrot/sn=   70729.2490 T*S(rot)=     7.50 kcal/mol T*S(tot)=    24.81 kcal/mol
 sn= 5  qrot/sn=   56583.3992 T*S(rot)=     7.37 kcal/mol T*S(tot)=    24.68 kcal/mol
 sn= 6  qrot/sn=   47152.8327 T*S(rot)=     7.26 kcal/mol T*S(tot)=    24.57 kcal/mol
 sn= 7  qrot/sn=   40416.7137 T*S(rot)=     7.17 kcal/mol T*S(tot)=    24.48 kcal/mol
 sn= 8  qrot/sn=   35364.6245 T*S(rot)=     7.09 kcal/mol T*S(tot)=    24.40 kcal/mol
 sn= 9  qrot/sn=   31435.2218 T*S(rot)=     7.02 kcal/mol T*S(tot)=    24.33 kcal/mol
 sn=10  qrot/sn=   28291.6996 T*S(rot)=     6.96 kcal/mol T*S(tot)=    24.27 kcal/mol
 sn=11  qrot/sn=   25719.7269 T*S(rot)=     6.91 kcal/mol T*S(tot)=    24.21 kcal/mol
 sn=12  qrot/sn=   23576.4163 T*S(rot)=     6.85 kcal/mol T*S(tot)=    24.16 kcal/mol

-------------------
GIBBS FREE ENTHALPY
-------------------

The Gibbs free enthalpy is G = H - T*S

Total enthalpy                    ...   -327.03623519 Eh
Total entropy correction          ...     -0.03981183 Eh    -24.98 kcal/mol
-----------------------------------------------------------------------
Final Gibbs free enthalpy         ...   -327.07604702 Eh

For completeness - the Gibbs free enthalpy minus the electronic energy
G-E(el)                           ...      0.14274156 Eh     89.57 kcal/mol

                             ****ORCA TERMINATED NORMALLY****
TOTAL RUN TIME: 0 days 1 hours 3 minutes 24 seconds 618 msec
