                         Program Version 3.0.3 - RELEASE   -
|  1> ! NORI PBE0 def2-TZVP UseSym TightOPT Freq TightSCF Grid3 FinalGrid5 XYZFile
|  2> % pal
|  3>     nprocs 8
|  4> end
|  5> %method
|  6>     SymThresh 5.0e-2
|  7> end
|  8> % geom
|  9>     MaxIter 10
| 10> end
| 11> % maxcore 2000
| 12> % output
| 13>     printlevel mini
| 14>     print[ P_Basis ] 0
| 15>     print[ P_SCFInfo ] 1
| 16>     print[ P_SCFIterInfo ] 1
| 17>     print[ P_OrbEn ] 0
| 18>     print[ P_Cartesian ] 0
| 19> end
| 20> % elprop
| 21>     Dipole false
| 22> end
| 23> *xyz 1 1
| 24>  C        0.7829461174     0.4632069210    -0.2815681567
| 25>  C        2.2877232026     0.2415108038    -0.2602248569
| 26>  C        2.6562507356    -0.8712996999     0.6947715312
| 27>  N        4.1444649685    -1.0955304215     0.7208142800
| 28>  C        4.5979750336    -2.1670573438     1.6503961257
| 29>  C        6.0973440411    -2.4189511940     1.5583807927
| 30>  O        6.7031131579    -2.8672617185     2.4770467058
| 31>  H        0.5310356498     1.2644211075    -0.9760473231
| 32>  H        0.4075339392     0.7469821324     0.7037578230
| 33>  H        0.2518571278    -0.4350357200    -0.6040036430
| 34>  H        2.7927765122     1.1673241933     0.0389140323
| 35>  H        2.6389991716    -0.0057529555    -1.2687129337
| 36>  H        2.2064430949    -1.8240224443     0.4083130088
| 37>  H        2.3602859368    -0.6457219656     1.7210064922
| 38>  H        4.5976468850    -0.2115925596     0.9673536995
| 39>  H        4.4547190337    -1.3080962032    -0.2312241801
| 40>  H        4.0667314610    -3.0849641575     1.3827245356
| 41>  H        4.3270431487    -1.8902943352     2.6690326636
| 42>  H        6.5813107825    -2.1889544394     0.5832294030
| 43> *
| 44>
| 45>                          ****END OF INPUT****
 Total Charge           Charge          ....    1
 Multiplicity           Mult            ....    1
 Number of Electrons    NEL             ....   56
FINAL SINGLE POINT ENERGY      -327.203594487782
FINAL SINGLE POINT ENERGY      -327.203594025275
FINAL SINGLE POINT ENERGY      -327.203596210204

CARTESIAN COORDINATES (ANGSTROEM)
---------------------------------
  C     -0.362372    0.234336   -3.728534
  C      0.449804    0.225752   -2.441819
  C     -0.442880    0.012543   -1.239414
  N      0.357310    0.000823    0.035992
  C     -0.447773   -0.187775    1.275557
  C      0.421774   -0.297916    2.521664
  O     -0.001084   -0.009136    3.593796
  H      0.293204    0.387727   -4.585288
  H     -1.101823    1.037814   -3.728033
  H     -0.885966   -0.712463   -3.876198
  H      0.986842    1.175625   -2.338671
  H      1.204029   -0.568344   -2.487136
  H     -0.967924   -0.943687   -1.282037
  H     -1.183422    0.807307   -1.132140
  H      0.879763    0.878667    0.095053
  H      1.063997   -0.736170   -0.034563
  H     -1.021023   -1.112014    1.161063
  H     -1.143193    0.645133    1.376768
  H      1.453629   -0.688946    2.375323

FINAL SINGLE POINT ENERGY      -327.203596784976
                    ***********************HURRAY********************
 Multiplicity           Mult            ....    1
 Number of Electrons    NEL             ....   56
 Basis Dimension        Dim             ....  289
FINAL SINGLE POINT ENERGY      -327.203597614913

VIBRATIONAL FREQUENCIES
-----------------------

   0:         0.00 cm**-1
   1:         0.00 cm**-1
   2:         0.00 cm**-1
   3:         0.00 cm**-1
   4:         0.00 cm**-1
   5:         0.00 cm**-1
   6:        27.60 cm**-1
   7:        55.69 cm**-1
   8:        96.98 cm**-1
   9:       111.54 cm**-1
  10:       135.68 cm**-1
  11:       240.70 cm**-1
  12:       256.51 cm**-1
  13:       322.47 cm**-1
  14:       429.36 cm**-1
  15:       544.59 cm**-1
  16:       724.21 cm**-1
  17:       757.64 cm**-1
  18:       817.47 cm**-1
  19:       913.45 cm**-1
  20:       919.68 cm**-1
  21:       964.45 cm**-1
  22:      1025.88 cm**-1
  23:      1042.33 cm**-1
  24:      1048.75 cm**-1
  25:      1069.75 cm**-1
  26:      1153.43 cm**-1
  27:      1162.16 cm**-1
  28:      1230.79 cm**-1
  29:      1285.52 cm**-1
  30:      1321.90 cm**-1
  31:      1346.84 cm**-1
  32:      1351.57 cm**-1
  33:      1399.21 cm**-1
  34:      1403.15 cm**-1
  35:      1413.18 cm**-1
  36:      1419.05 cm**-1
  37:      1434.09 cm**-1
  38:      1459.75 cm**-1
  39:      1480.87 cm**-1
  40:      1491.53 cm**-1
  41:      1493.79 cm**-1
  42:      1507.06 cm**-1
  43:      1653.28 cm**-1
  44:      1879.85 cm**-1
  45:      2897.87 cm**-1
  46:      3035.86 cm**-1
  47:      3064.45 cm**-1
  48:      3076.47 cm**-1
  49:      3086.97 cm**-1
  50:      3090.57 cm**-1
  51:      3138.57 cm**-1
  52:      3150.42 cm**-1
  53:      3156.63 cm**-1
  54:      3163.47 cm**-1
  55:      3422.67 cm**-1
  56:      3472.14 cm**-1

IR SPECTRUM
-----------

 Mode    freq (cm**-1)   T**2         TX         TY         TZ
-------------------------------------------------------------------
   7:        55.69    6.815395  (  1.619043  -2.046731  -0.070628)
   8:        96.98    2.388945  (  1.062351  -1.098310  -0.232532)
   9:       111.54    7.480428  (  2.638589  -0.538993   0.477245)
  10:       135.68    3.102041  ( -0.001255   1.736141   0.296400)
  11:       240.70    0.309302  ( -0.254381   0.481344   0.113579)
  12:       256.51    4.914535  ( -2.101091   0.400432   0.582757)
  13:       322.47    0.744191  ( -0.821851  -0.232930   0.120395)
  14:       429.36    1.813940  (  0.992915  -0.399613  -0.817539)
  15:       544.59   18.592324  ( -1.665104   0.013990  -3.977381)
  16:       724.21    7.525747  (  0.130826   2.701793   0.457106)
  17:       757.64    8.575528  (  0.368120  -2.888736  -0.308579)
  18:       817.47    2.472505  (  0.829650  -1.306640   0.277268)
  19:       913.45    8.164073  (  1.781402  -1.723038   1.421908)
  20:       919.68    9.635165  ( -2.207024  -0.330405  -2.157555)
  21:       964.45   35.932375  ( -2.163202   0.794417  -5.533700)
  22:      1025.88   15.100462  ( -1.132997  -0.366013   3.699029)
  23:      1042.33   26.255208  ( -2.176518   0.211164  -4.633938)
  24:      1048.75   31.897852  (  0.782804  -1.302854   5.439452)
  25:      1069.75    0.823639  (  0.841147   0.340256   0.018344)
  26:      1153.43    1.029257  ( -0.457804   0.197041   0.883656)
  27:      1162.16    2.356915  ( -1.205621  -0.018291  -0.950295)
  28:      1230.79    0.154509  (  0.193111  -0.337613   0.056870)
  29:      1285.52   11.741729  (  0.468432  -0.202324   3.388416)
  30:      1321.90    0.107194  (  0.110947   0.238221  -0.195284)
  31:      1346.84    0.263320  ( -0.262392   0.012037  -0.440825)
  32:      1351.57    8.807279  ( -0.273433   2.953216  -0.105004)
  33:      1399.21    1.154612  ( -0.637054  -0.370503   0.781986)
  34:      1403.15    0.967303  (  0.582504   0.192946  -0.768611)
  35:      1413.18   24.557145  ( -1.419340  -0.248388   4.741405)
  36:      1419.05    3.005924  ( -1.477572   0.162053  -0.892437)
  37:      1434.09   70.978871  (  1.680253  -0.363232   8.247647)
  38:      1459.75   22.011023  ( -2.828768  -0.051763  -3.742515)
  39:      1480.87    5.931665  ( -0.782400  -0.253781   2.292403)
  40:      1491.53    0.437098  (  0.593487   0.077555   0.280815)
  41:      1493.79   13.918373  (  0.442806  -3.691823  -0.304535)
  42:      1507.06   20.060514  ( -4.282783  -0.643338   1.142104)
  43:      1653.28   38.775620  ( -6.182798  -0.687974  -0.274445)
  44:      1879.85  155.749221  ( -2.105856   2.175462  12.107104)
  45:      2897.87   56.408439  (  6.915649  -2.507461  -1.514884)
  46:      3035.86   13.380767  (  3.022393   0.138533   2.055898)
  47:      3064.45    8.225595  (  2.305138   0.158762   1.699037)
  48:      3076.47    5.190890  (  0.322159  -2.242150  -0.244677)
  49:      3086.97    4.608480  (  1.982805   0.408138   0.714414)
  50:      3090.57    2.152032  (  0.934648   0.269877  -1.098013)
  51:      3138.57    8.749599  ( -0.356223   2.924964   0.259408)
  52:      3150.42    3.907795  ( -0.198231   1.965584   0.070557)
  53:      3156.63    3.281682  ( -1.618253  -0.233658   0.779964)
  54:      3163.47    2.211291  (  0.383347  -1.394546  -0.345801)
  55:      3422.67   34.112052  (  5.800728   0.616115   0.289834)
  56:      3472.14   63.489000  ( -0.416665   7.943920   0.457733)

--------------------------
THERMOCHEMISTRY AT 298.15K
--------------------------

Temperature         ... 298.15 K
Pressure            ... 1.00 atm
Total Mass          ... 102.16 AMU

Throughout the following assumptions are being made:
  (1) The electronic state is orbitally nondegenerate
  (2) There are no thermally accessible electronically excited states
  (3) Hindered rotations indicated by low frequency modes) are not
      treated as such but are treated as vibrations and this may
      case some error
  (4) All equations used are the standard statistical mechanics
      equations for an ideal gas
  (5) All vibrations are strinctly harmonic

------------
INNER ENERGY
------------

The inner energy is: U= E(el) + E(ZPE) + E(vib) + E(rot) + E(trans)
    E(el)   - is the total energy from the electronic structure calculation
              = E(kin-el) + E(nuc-el) + E(el-el) + E(nuc-nuc)
    E(ZPE)  - the the zero temperature vibrational energy from the frequency calculation
    E(vib)  - the the finite temperature correction to E(ZPE) due to population
              of excietd vibrational states
    E(rot)  - is the rotational thermal energy
    E(trans)- is the translational thermal energy

Summary of contributions to the inner energy U:
Electronic energy                ...   -327.20359761 Eh
Zero point energy                ...      0.17341460 Eh     108.82 kcal/mol
Thermal vibrational correction   ...      0.00548484 Eh       3.44 kcal/mol
Thermal rotational correction    ...      0.00141627 Eh       0.89 kcal/mol
Thermal translational correction ...      0.00141627 Eh       0.89 kcal/mol
-----------------------------------------------------------------------
Total thermal energy                   -327.02186563 Eh

Summary of corrections to the electronic energy:
(perhaps to be used in another calculation)
Total thermal correction                  0.00831738 Eh       5.22 kcal/mol
Non-thermal (ZPE) correction              0.17341460 Eh     108.82 kcal/mol
-----------------------------------------------------------------------
Total correction                          0.18173198 Eh     114.04 kcal/mol

--------
ENTHALPY
--------

The enthalpy is H = U + kB*T
                kB is Boltzmann's constant
Total free energy                 ...   -327.02186563 Eh
Thermal Enthalpy correction       ...      0.00094421 Eh       0.59 kcal/mol
-----------------------------------------------------------------------
Total Enthalpy                    ...   -327.02092142 Eh

-------
ENTROPY
-------

The entropy contributions are T*S = T*(S(el)+S(vib)+S(rot)+S(trans)
     S(el)   - electronic entropy
     S(vib)  - vibrational entropy
     S(rot)  - rotational entropy
     S(trans)- translational entropy
The entropies will be listed as mutliplied by the temperature to get
units of energy

Electronic entropy                ...      0.00000000 Eh      0.00 kcal/mol
Vibrational entropy               ...      0.01055148 Eh      6.62 kcal/mol
Rotational entropy                ...      0.01226561 Eh      7.70 kcal/mol
Translational entropy             ...      0.01890147 Eh     11.86 kcal/mol
-----------------------------------------------------------------------
Final entropy term                ...      0.04171855 Eh     26.18 kcal/mol

CAUTION: The rotational entropy is not quite correctly treated here
         because it includes a symmetry number that is not yet correctly
         implemented in ORCA!
For a nonlinear molecule the correct rotational entropy is:
    S(rot) = R*(ln(qrot/sn)+1.5)
    R    = 8.31441 J/mol/K = 1.987191683e-3 kcal/mol/K
    qrot = 293417.3672749
    sn is the rotational symmetry number. We have assumed 3 here
       if it is different for your molecule then you should correct
       the printed rotational entropy by manually evaluating the equation
       as given above

For convenience we print out the resulting values for sn=1 - 12:
 sn= 1  qrot/sn=  293417.3673 T*S(rot)=     8.35 kcal/mol T*S(tot)=    26.83 kcal/mol
 sn= 2  qrot/sn=  146708.6836 T*S(rot)=     7.94 kcal/mol T*S(tot)=    26.42 kcal/mol
 sn= 3  qrot/sn=   97805.7891 T*S(rot)=     7.70 kcal/mol T*S(tot)=    26.18 kcal/mol
 sn= 4  qrot/sn=   73354.3418 T*S(rot)=     7.53 kcal/mol T*S(tot)=    26.01 kcal/mol
 sn= 5  qrot/sn=   58683.4735 T*S(rot)=     7.39 kcal/mol T*S(tot)=    25.88 kcal/mol
 sn= 6  qrot/sn=   48902.8945 T*S(rot)=     7.29 kcal/mol T*S(tot)=    25.77 kcal/mol
 sn= 7  qrot/sn=   41916.7668 T*S(rot)=     7.19 kcal/mol T*S(tot)=    25.68 kcal/mol
 sn= 8  qrot/sn=   36677.1709 T*S(rot)=     7.12 kcal/mol T*S(tot)=    25.60 kcal/mol
 sn= 9  qrot/sn=   32601.9297 T*S(rot)=     7.05 kcal/mol T*S(tot)=    25.53 kcal/mol
 sn=10  qrot/sn=   29341.7367 T*S(rot)=     6.98 kcal/mol T*S(tot)=    25.47 kcal/mol
 sn=11  qrot/sn=   26674.3061 T*S(rot)=     6.93 kcal/mol T*S(tot)=    25.41 kcal/mol
 sn=12  qrot/sn=   24451.4473 T*S(rot)=     6.88 kcal/mol T*S(tot)=    25.36 kcal/mol

-------------------
GIBBS FREE ENTHALPY
-------------------

The Gibbs free enthalpy is G = H - T*S

Total enthalpy                    ...   -327.02092142 Eh
Total entropy correction          ...     -0.04171855 Eh    -26.18 kcal/mol
-----------------------------------------------------------------------
Final Gibbs free enthalpy         ...   -327.06263998 Eh

For completeness - the Gibbs free enthalpy minus the electronic energy
G-E(el)                           ...      0.14095764 Eh     88.45 kcal/mol

                             ****ORCA TERMINATED NORMALLY****
TOTAL RUN TIME: 0 days 0 hours 49 minutes 18 seconds 359 msec
