                         Program Version 3.0.3 - RELEASE   -
|  1> ! NORI PBE0 def2-TZVP UseSym TightOPT Freq TightSCF Grid3 FinalGrid5 XYZFile
|  2> % pal
|  3>     nprocs 8
|  4> end
|  5> %method
|  6>     SymThresh 5.0e-2
|  7> end
|  8> % geom
|  9>     MaxIter 10
| 10> end
| 11> % maxcore 2000
| 12> % output
| 13>     printlevel mini
| 14>     print[ P_Basis ] 0
| 15>     print[ P_SCFInfo ] 1
| 16>     print[ P_SCFIterInfo ] 1
| 17>     print[ P_OrbEn ] 0
| 18>     print[ P_Cartesian ] 0
| 19> end
| 20> % elprop
| 21>     Dipole false
| 22> end
| 23> *xyz 1 1
| 24>  C        1.0305578293    -0.0207234985    -0.2511804294
| 25>  C        2.4611579527     0.0577362101     0.2537832388
| 26>  C        2.7363837181    -0.9497667394     1.3617999257
| 27>  N        3.4085303049    -0.2385928176    -0.8963892851
| 28>  C        2.8150740903     1.4499939965     0.7093759630
| 29>  N        3.8724776482     1.9755606188     0.2578323608
| 30>  O        4.1397404229     3.2063650508     0.7475395014
| 31>  H        0.8442978744     0.6985487361    -1.0527631909
| 32>  H        0.3455970770     0.2106960175     0.5656223551
| 33>  H        0.7923985203    -1.0266596385    -0.6040680040
| 34>  H        2.4560603547    -1.9600106660     1.0516797739
| 35>  H        2.1373764406    -0.6980666601     2.2377834735
| 36>  H        3.7855212758    -0.9363782024     1.6648471836
| 37>  H        2.9897107402     0.0088112004    -1.7934965119
| 38>  H        3.6852001474    -1.2188959557    -0.9224933500
| 39>  H        4.2300526364     0.3808417216    -0.7598991173
| 40>  H        2.1691159046     1.9449299029     1.4330768304
| 41>  H        4.9577470623     3.4800707236     0.3160592823
| 42> *
| 43>
| 44>                          ****END OF INPUT****
 Total Charge           Charge          ....    1
 Multiplicity           Mult            ....    1
 Number of Electrons    NEL             ....   56
FINAL SINGLE POINT ENERGY      -343.221349729200

CARTESIAN COORDINATES (ANGSTROEM)
---------------------------------
  C     -0.662996    1.228554   -1.659306
  C     -0.163427    0.021344   -0.884106
  C     -0.669838   -1.289560   -1.470815
  N      1.355093   -0.000167   -0.928771
  C     -0.515691    0.114005    0.578249
  N      0.405766   -0.057446    1.426540
  O     -0.000342   -0.000788    2.714185
  H     -0.286498    2.164239   -1.238103
  H     -1.752324    1.261530   -1.614761
  H     -0.379223    1.165082   -2.712359
  H     -0.444196   -1.354403   -2.538623
  H     -1.753661   -1.341187   -1.361014
  H     -0.244570   -2.152052   -0.952543
  H      1.734839    0.940235   -1.042387
  H      1.708097   -0.590045   -1.681178
  H      1.666032   -0.346930   -0.001048
  H     -1.552746    0.293252    0.857363
  H      0.797512   -0.135929    3.239024

FINAL SINGLE POINT ENERGY      -343.221350579018
                    ***********************HURRAY********************
 Multiplicity           Mult            ....    1
 Number of Electrons    NEL             ....   56
 Basis Dimension        Dim             ....  283
FINAL SINGLE POINT ENERGY      -343.221350720192

VIBRATIONAL FREQUENCIES
-----------------------

   0:         0.00 cm**-1
   1:         0.00 cm**-1
   2:         0.00 cm**-1
   3:         0.00 cm**-1
   4:         0.00 cm**-1
   5:         0.00 cm**-1
   6:        88.47 cm**-1
   7:       144.65 cm**-1
   8:       222.51 cm**-1
   9:       236.09 cm**-1
  10:       245.67 cm**-1
  11:       288.43 cm**-1
  12:       328.02 cm**-1
  13:       354.59 cm**-1
  14:       380.92 cm**-1
  15:       470.82 cm**-1
  16:       489.35 cm**-1
  17:       494.44 cm**-1
  18:       584.21 cm**-1
  19:       770.29 cm**-1
  20:       930.60 cm**-1
  21:       953.49 cm**-1
  22:       954.19 cm**-1
  23:       964.08 cm**-1
  24:       977.57 cm**-1
  25:      1048.60 cm**-1
  26:      1057.79 cm**-1
  27:      1125.37 cm**-1
  28:      1206.42 cm**-1
  29:      1273.56 cm**-1
  30:      1286.16 cm**-1
  31:      1321.34 cm**-1
  32:      1407.07 cm**-1
  33:      1422.70 cm**-1
  34:      1443.54 cm**-1
  35:      1466.96 cm**-1
  36:      1475.72 cm**-1
  37:      1478.90 cm**-1
  38:      1493.34 cm**-1
  39:      1503.65 cm**-1
  40:      1612.20 cm**-1
  41:      1661.15 cm**-1
  42:      1751.36 cm**-1
  43:      3054.07 cm**-1
  44:      3056.97 cm**-1
  45:      3135.18 cm**-1
  46:      3137.32 cm**-1
  47:      3151.14 cm**-1
  48:      3154.67 cm**-1
  49:      3162.46 cm**-1
  50:      3212.44 cm**-1
  51:      3475.08 cm**-1
  52:      3539.07 cm**-1
  53:      3824.47 cm**-1

IR SPECTRUM
-----------

 Mode    freq (cm**-1)   T**2         TX         TY         TZ
-------------------------------------------------------------------
   6:        88.47    1.445466  (  0.520949   0.373267  -1.017227)
   7:       144.65    4.986879  ( -0.835501   0.037139   2.070613)
   8:       222.51   10.022157  (  0.865087   0.341402  -3.026091)
   9:       236.09    1.880379  ( -0.240839   0.943513   0.965484)
  10:       245.67    0.332355  (  0.065318   0.303640  -0.485686)
  11:       288.43    4.863616  ( -0.224386  -0.018787   2.193835)
  12:       328.02    1.437428  ( -0.405549  -0.152077   1.117958)
  13:       354.59    2.106904  (  0.215077  -1.284579   0.640704)
  14:       380.92   14.354652  (  0.238932   0.573123   3.737525)
  15:       470.82  125.651281  (  1.233566  11.122529   0.647264)
  16:       489.35   24.694241  ( -1.805763  -4.519072   1.005710)
  17:       494.44   20.950043  ( -3.516288   0.371252   2.906533)
  18:       584.21    0.718668  (  0.115440   0.144723  -0.827283)
  19:       770.29    0.209252  (  0.411479   0.144631   0.137911)
  20:       930.60    3.565943  (  1.285625  -1.159499  -0.754104)
  21:       953.49   11.659144  (  0.332314  -1.930718  -2.796612)
  22:       954.19    3.517590  ( -0.052216   1.115338   1.506945)
  23:       964.08   16.135238  ( -1.257508  -2.531922   2.853643)
  24:       977.57    8.208861  ( -0.311472  -2.614079   1.130680)
  25:      1048.60   11.391605  ( -0.484385  -0.067052  -3.339533)
  26:      1057.79   39.625410  ( -0.170229  -0.153367  -6.290700)
  27:      1125.37  149.362191  (  3.943033  -0.698214  11.546739)
  28:      1206.42    7.689508  (  2.339141   0.977830  -1.123288)
  29:      1273.56   28.315345  (  2.933802   0.765373  -4.372912)
  30:      1286.16   19.349765  ( -1.361568   4.173302   0.281870)
  31:      1321.34    8.733283  ( -2.445802   0.820267   1.441699)
  32:      1407.07   18.131809  ( -0.201728   4.253073   0.049846)
  33:      1422.70   39.925452  ( -5.832312   0.360082  -2.404147)
  34:      1443.54  193.756443  (  8.855981  -0.768747 -10.711539)
  35:      1466.96    1.132686  ( -1.057811  -0.109270   0.042216)
  36:      1475.72   94.691385  ( -9.486781   1.793485  -1.214817)
  37:      1478.90   22.341457  ( -4.532825  -1.337073  -0.084769)
  38:      1493.34    4.176625  ( -1.986380  -0.259283  -0.404589)
  39:      1503.65    2.723923  ( -1.181933   0.033653   1.151445)
  40:      1612.20   31.275155  ( -2.257518  -5.105529  -0.335165)
  41:      1661.15   29.739914  ( -0.330998   1.258900   5.295803)
  42:      1751.36    3.481763  ( -0.160293  -0.021187  -1.858930)
  43:      3054.07    1.263291  (  0.344967  -0.942160  -0.506580)
  44:      3056.97    2.635878  (  1.351205   0.387631  -0.812322)
  45:      3135.18    2.002084  (  0.063048   1.375734  -0.324752)
  46:      3137.32    5.590529  (  0.418791   0.439586   2.285149)
  47:      3151.14    1.069974  ( -0.148394  -1.011861   0.155210)
  48:      3154.67    0.527469  (  0.582588  -0.422471  -0.097870)
  49:      3162.46    1.193267  (  0.798211  -0.179079   0.723918)
  50:      3212.44  174.030553  (  0.010948   2.272886 -12.994784)
  51:      3475.08   84.460438  ( -5.375427  -3.107888   6.775415)
  52:      3539.07   81.751420  ( -0.847545   8.019410   4.089273)
  53:      3824.47  186.072548  ( -7.830154   1.306498 -11.092984)

--------------------------
THERMOCHEMISTRY AT 298.15K
--------------------------

Temperature         ... 298.15 K
Pressure            ... 1.00 atm
Total Mass          ... 103.14 AMU

Throughout the following assumptions are being made:
  (1) The electronic state is orbitally nondegenerate
  (2) There are no thermally accessible electronically excited states
  (3) Hindered rotations indicated by low frequency modes) are not
      treated as such but are treated as vibrations and this may
      case some error
  (4) All equations used are the standard statistical mechanics
      equations for an ideal gas
  (5) All vibrations are strinctly harmonic

------------
INNER ENERGY
------------

The inner energy is: U= E(el) + E(ZPE) + E(vib) + E(rot) + E(trans)
    E(el)   - is the total energy from the electronic structure calculation
              = E(kin-el) + E(nuc-el) + E(el-el) + E(nuc-nuc)
    E(ZPE)  - the the zero temperature vibrational energy from the frequency calculation
    E(vib)  - the the finite temperature correction to E(ZPE) due to population
              of excietd vibrational states
    E(rot)  - is the rotational thermal energy
    E(trans)- is the translational thermal energy

Summary of contributions to the inner energy U:
Electronic energy                ...   -343.22135072 Eh
Zero point energy                ...      0.16133322 Eh     101.24 kcal/mol
Thermal vibrational correction   ...      0.00580985 Eh       3.65 kcal/mol
Thermal rotational correction    ...      0.00141627 Eh       0.89 kcal/mol
Thermal translational correction ...      0.00141627 Eh       0.89 kcal/mol
-----------------------------------------------------------------------
Total thermal energy                   -343.05137511 Eh

Summary of corrections to the electronic energy:
(perhaps to be used in another calculation)
Total thermal correction                  0.00864239 Eh       5.42 kcal/mol
Non-thermal (ZPE) correction              0.16133322 Eh     101.24 kcal/mol
-----------------------------------------------------------------------
Total correction                          0.16997561 Eh     106.66 kcal/mol

--------
ENTHALPY
--------

The enthalpy is H = U + kB*T
                kB is Boltzmann's constant
Total free energy                 ...   -343.05137511 Eh
Thermal Enthalpy correction       ...      0.00094421 Eh       0.59 kcal/mol
-----------------------------------------------------------------------
Total Enthalpy                    ...   -343.05043090 Eh

-------
ENTROPY
-------

The entropy contributions are T*S = T*(S(el)+S(vib)+S(rot)+S(trans)
     S(el)   - electronic entropy
     S(vib)  - vibrational entropy
     S(rot)  - rotational entropy
     S(trans)- translational entropy
The entropies will be listed as mutliplied by the temperature to get
units of energy

Electronic entropy                ...      0.00000000 Eh      0.00 kcal/mol
Vibrational entropy               ...      0.00984735 Eh      6.18 kcal/mol
Rotational entropy                ...      0.01217663 Eh      7.64 kcal/mol
Translational entropy             ...      0.01891510 Eh     11.87 kcal/mol
-----------------------------------------------------------------------
Final entropy term                ...      0.04093908 Eh     25.69 kcal/mol

CAUTION: The rotational entropy is not quite correctly treated here
         because it includes a symmetry number that is not yet correctly
         implemented in ORCA!
For a nonlinear molecule the correct rotational entropy is:
    S(rot) = R*(ln(qrot/sn)+1.5)
    R    = 8.31441 J/mol/K = 1.987191683e-3 kcal/mol/K
    qrot = 267029.7808358
    sn is the rotational symmetry number. We have assumed 3 here
       if it is different for your molecule then you should correct
       the printed rotational entropy by manually evaluating the equation
       as given above

For convenience we print out the resulting values for sn=1 - 12:
 sn= 1  qrot/sn=  267029.7808 T*S(rot)=     8.29 kcal/mol T*S(tot)=    26.34 kcal/mol
 sn= 2  qrot/sn=  133514.8904 T*S(rot)=     7.88 kcal/mol T*S(tot)=    25.93 kcal/mol
 sn= 3  qrot/sn=   89009.9269 T*S(rot)=     7.64 kcal/mol T*S(tot)=    25.69 kcal/mol
 sn= 4  qrot/sn=   66757.4452 T*S(rot)=     7.47 kcal/mol T*S(tot)=    25.52 kcal/mol
 sn= 5  qrot/sn=   53405.9562 T*S(rot)=     7.34 kcal/mol T*S(tot)=    25.39 kcal/mol
 sn= 6  qrot/sn=   44504.9635 T*S(rot)=     7.23 kcal/mol T*S(tot)=    25.28 kcal/mol
 sn= 7  qrot/sn=   38147.1115 T*S(rot)=     7.14 kcal/mol T*S(tot)=    25.19 kcal/mol
 sn= 8  qrot/sn=   33378.7226 T*S(rot)=     7.06 kcal/mol T*S(tot)=    25.11 kcal/mol
 sn= 9  qrot/sn=   29669.9756 T*S(rot)=     6.99 kcal/mol T*S(tot)=    25.04 kcal/mol
 sn=10  qrot/sn=   26702.9781 T*S(rot)=     6.93 kcal/mol T*S(tot)=    24.98 kcal/mol
 sn=11  qrot/sn=   24275.4346 T*S(rot)=     6.87 kcal/mol T*S(tot)=    24.92 kcal/mol
 sn=12  qrot/sn=   22252.4817 T*S(rot)=     6.82 kcal/mol T*S(tot)=    24.87 kcal/mol

-------------------
GIBBS FREE ENTHALPY
-------------------

The Gibbs free enthalpy is G = H - T*S

Total enthalpy                    ...   -343.05043090 Eh
Total entropy correction          ...     -0.04093908 Eh    -25.69 kcal/mol
-----------------------------------------------------------------------
Final Gibbs free enthalpy         ...   -343.09136998 Eh

For completeness - the Gibbs free enthalpy minus the electronic energy
G-E(el)                           ...      0.12998074 Eh     81.56 kcal/mol

                             ****ORCA TERMINATED NORMALLY****
TOTAL RUN TIME: 0 days 0 hours 44 minutes 55 seconds 978 msec
