                         Program Version 3.0.3 - RELEASE   -
|  1> ! NORI PBE0 def2-TZVP UseSym TightOPT Freq TightSCF Grid3 FinalGrid5 XYZFile
|  2> % pal
|  3>     nprocs 8
|  4> end
|  5> %method
|  6>     SymThresh 5.0e-2
|  7> end
|  8> % geom
|  9>     MaxIter 10
| 10> end
| 11> % maxcore 2000
| 12> % output
| 13>     printlevel mini
| 14>     print[ P_Basis ] 0
| 15>     print[ P_SCFInfo ] 1
| 16>     print[ P_SCFIterInfo ] 1
| 17>     print[ P_OrbEn ] 0
| 18>     print[ P_Cartesian ] 0
| 19> end
| 20> % elprop
| 21>     Dipole false
| 22> end
| 23> *xyz 1 1
| 24>  C        1.0262483153     0.0302106420     0.2853496952
| 25>  C        2.5452912718    -0.0354438963     0.3155155274
| 26>  C        3.0962361249    -0.4213584243     1.6788567883
| 27>  N        3.0182863616    -1.0271651553    -0.7169753022
| 28>  C        3.1779843279     1.2756973074    -0.2242590796
| 29>  N        2.9971655519     2.3901227178     0.4706885976
| 30>  O        3.8073553359     1.2140890193    -1.2727761716
| 31>  H        0.6528712823     0.2975790457    -0.7062776129
| 32>  H        0.6631167603     0.7807576661     0.9870195650
| 33>  H        0.5956485517    -0.9283243243     0.5852182238
| 34>  H        4.1884119889    -0.4639103831     1.6767922241
| 35>  H        2.6992923048    -1.3896773744     1.9919255156
| 36>  H        2.7956413347     0.3059946625     2.4332638866
| 37>  H        3.5450713681    -0.3811393449    -1.3888155761
| 38>  H        2.2526929591    -1.4983292698    -1.1942772148
| 39>  H        3.6507215644    -1.7274375622    -0.3342049466
| 40>  H        3.4010293095     3.2464664187     0.1228194181
| 41>  H        2.4879652870     2.4220482551     1.3358764621
| 42> *
| 43>
| 44>                          ****END OF INPUT****
 Total Charge           Charge          ....    1
 Multiplicity           Mult            ....    1
 Number of Electrons    NEL             ....   56
FINAL SINGLE POINT ENERGY      -343.309832940463
FINAL SINGLE POINT ENERGY      -343.309834645579
FINAL SINGLE POINT ENERGY      -343.309835671522
FINAL SINGLE POINT ENERGY      -343.309836298480

CARTESIAN COORDINATES (ANGSTROEM)
---------------------------------
  C      0.136494    1.300270   -1.322144
  C      0.329578    0.008994   -0.541619
  C      0.150382   -1.234699   -1.397140
  N      1.706708    0.001747    0.072963
  C     -0.560443   -0.022612    0.729896
  N     -1.876257   -0.052997    0.569766
  O      0.000170   -0.012823    1.818274
  H      0.283955    2.179624   -0.690392
  H     -0.873769    1.352298   -1.727869
  H      0.827420    1.344140   -2.167363
  H      0.294136   -2.149775   -0.817264
  H      0.851489   -1.226605   -2.234975
  H     -0.853833   -1.267142   -1.819909
  H      1.461249    0.013818    1.114716
  H      2.258837    0.819250   -0.177968
  H      2.236552   -0.837676   -0.153685
  H     -2.462994   -0.068454    1.390179
  H     -2.318552   -0.061761   -0.331994

FINAL SINGLE POINT ENERGY      -343.309836891844
                    ***********************HURRAY********************
 Multiplicity           Mult            ....    1
 Number of Electrons    NEL             ....   56
 Basis Dimension        Dim             ....  283
FINAL SINGLE POINT ENERGY      -343.309837328158

VIBRATIONAL FREQUENCIES
-----------------------

   0:         0.00 cm**-1
   1:         0.00 cm**-1
   2:         0.00 cm**-1
   3:         0.00 cm**-1
   4:         0.00 cm**-1
   5:         0.00 cm**-1
   6:        37.31 cm**-1
   7:       212.44 cm**-1
   8:       247.07 cm**-1
   9:       266.82 cm**-1
  10:       279.76 cm**-1
  11:       303.79 cm**-1
  12:       345.98 cm**-1
  13:       397.20 cm**-1
  14:       413.86 cm**-1
  15:       448.01 cm**-1
  16:       507.37 cm**-1
  17:       599.23 cm**-1
  18:       607.51 cm**-1
  19:       720.37 cm**-1
  20:       779.74 cm**-1
  21:       845.50 cm**-1
  22:       958.03 cm**-1
  23:       965.13 cm**-1
  24:       996.74 cm**-1
  25:      1051.46 cm**-1
  26:      1055.12 cm**-1
  27:      1108.61 cm**-1
  28:      1200.94 cm**-1
  29:      1262.95 cm**-1
  30:      1296.34 cm**-1
  31:      1383.31 cm**-1
  32:      1410.96 cm**-1
  33:      1421.83 cm**-1
  34:      1455.30 cm**-1
  35:      1472.08 cm**-1
  36:      1477.64 cm**-1
  37:      1497.42 cm**-1
  38:      1506.14 cm**-1
  39:      1627.51 cm**-1
  40:      1636.50 cm**-1
  41:      1651.57 cm**-1
  42:      1794.18 cm**-1
  43:      2766.71 cm**-1
  44:      3058.21 cm**-1
  45:      3059.97 cm**-1
  46:      3136.89 cm**-1
  47:      3138.43 cm**-1
  48:      3153.80 cm**-1
  49:      3158.37 cm**-1
  50:      3490.84 cm**-1
  51:      3558.65 cm**-1
  52:      3599.97 cm**-1
  53:      3729.88 cm**-1

IR SPECTRUM
-----------

 Mode    freq (cm**-1)   T**2         TX         TY         TZ
-------------------------------------------------------------------
   6:        37.31   16.711097  ( -0.150740   4.084258   0.084902)
   7:       212.44    0.433468  ( -0.033072  -0.657440   0.012134)
   8:       247.07    0.562135  (  0.221313  -0.702937  -0.137966)
   9:       266.82    3.757032  (  1.711401   0.080296  -0.906472)
  10:       279.76   14.071211  ( -2.946734  -0.088847   2.319499)
  11:       303.79    0.993599  (  0.262362   0.949337  -0.153378)
  12:       345.98    7.084141  (  2.374141  -0.076770  -1.200709)
  13:       397.20    0.332855  (  0.106850  -0.528875  -0.204279)
  14:       413.86   88.396516  ( -7.179665  -0.070392   6.069924)
  15:       448.01  157.326733  (  0.178188 -12.541652  -0.044165)
  16:       507.37   43.127910  (  6.545952   0.070220  -0.522959)
  17:       599.23   33.794387  (  0.305266  -5.804368  -0.102553)
  18:       607.51    8.939600  ( -2.529019  -0.387215   1.547167)
  19:       720.37   10.312406  (  2.457472   0.067923  -2.066065)
  20:       779.74    4.949966  (  0.005377  -2.224823   0.010012)
  21:       845.50   25.943707  ( -3.370626  -0.149435   3.815790)
  22:       958.03    2.244311  (  0.294791   1.459636  -0.163930)
  23:       965.13   11.150573  ( -2.747180   0.054872   1.897516)
  24:       996.74    2.874546  ( -0.271055   1.655122   0.248284)
  25:      1051.46    2.101219  (  0.505914   1.190147  -0.654844)
  26:      1055.12   46.316837  ( -4.483188   0.074466   5.119797)
  27:      1108.61    6.588603  ( -2.273981  -0.028097   1.190304)
  28:      1200.94   14.715549  ( -3.802681   0.050449   0.502613)
  29:      1262.95   40.833225  (  1.840076   0.156593  -6.117420)
  30:      1296.34   11.423036  ( -0.143469  -3.352144  -0.406920)
  31:      1383.31  452.650052  ( 21.068101   0.281277   2.950601)
  32:      1410.96   14.007298  ( -0.088158  -3.736005  -0.204430)
  33:      1421.83   32.992342  (  5.519234  -0.074127   1.588994)
  34:      1455.30   17.142846  ( -0.260672  -0.160402   4.129064)
  35:      1472.08    0.586346  ( -0.085889   0.757187  -0.075082)
  36:      1477.64    4.506045  (  0.062290   2.121725   0.021186)
  37:      1497.42    6.446621  (  1.750142  -0.116925   1.835743)
  38:      1506.14   28.508912  (  1.754245   0.126280  -5.041388)
  39:      1627.51   51.374634  ( -6.668300   0.736114   2.523201)
  40:      1636.50   78.583435  ( -8.454283  -0.386873   2.637966)
  41:      1651.57   25.334833  ( -0.598711  -4.960142   0.611039)
  42:      1794.18  252.040177  ( 12.134346   0.179680  10.235503)
  43:      2766.71  433.932267  (-11.856756  -0.080166  17.127264)
  44:      3058.21    0.645847  ( -0.013741  -0.803512  -0.005197)
  45:      3059.97    1.149103  ( -0.928681  -0.008969   0.535326)
  46:      3136.89    1.182555  (  0.017533   1.084174  -0.082552)
  47:      3138.43    4.093382  ( -0.726293  -0.011923   1.888316)
  48:      3153.80    1.196950  (  0.406300  -1.013616  -0.066719)
  49:      3158.37    3.402127  ( -1.831109  -0.188737   0.116375)
  50:      3490.84   76.974470  (  8.338310  -0.285179  -2.713987)
  51:      3558.65   82.235072  (  0.346280   9.060650  -0.140676)
  52:      3599.97  120.639462  ( 10.640191   0.276815  -2.710937)
  53:      3729.88   86.196575  ( -0.223669  -0.023223   9.281487)

--------------------------
THERMOCHEMISTRY AT 298.15K
--------------------------

Temperature         ... 298.15 K
Pressure            ... 1.00 atm
Total Mass          ... 103.14 AMU

Throughout the following assumptions are being made:
  (1) The electronic state is orbitally nondegenerate
  (2) There are no thermally accessible electronically excited states
  (3) Hindered rotations indicated by low frequency modes) are not
      treated as such but are treated as vibrations and this may
      case some error
  (4) All equations used are the standard statistical mechanics
      equations for an ideal gas
  (5) All vibrations are strinctly harmonic

------------
INNER ENERGY
------------

The inner energy is: U= E(el) + E(ZPE) + E(vib) + E(rot) + E(trans)
    E(el)   - is the total energy from the electronic structure calculation
              = E(kin-el) + E(nuc-el) + E(el-el) + E(nuc-nuc)
    E(ZPE)  - the the zero temperature vibrational energy from the frequency calculation
    E(vib)  - the the finite temperature correction to E(ZPE) due to population
              of excietd vibrational states
    E(rot)  - is the rotational thermal energy
    E(trans)- is the translational thermal energy

Summary of contributions to the inner energy U:
Electronic energy                ...   -343.30983733 Eh
Zero point energy                ...      0.16196276 Eh     101.63 kcal/mol
Thermal vibrational correction   ...      0.00555479 Eh       3.49 kcal/mol
Thermal rotational correction    ...      0.00141627 Eh       0.89 kcal/mol
Thermal translational correction ...      0.00141627 Eh       0.89 kcal/mol
-----------------------------------------------------------------------
Total thermal energy                   -343.13948723 Eh

Summary of corrections to the electronic energy:
(perhaps to be used in another calculation)
Total thermal correction                  0.00838734 Eh       5.26 kcal/mol
Non-thermal (ZPE) correction              0.16196276 Eh     101.63 kcal/mol
-----------------------------------------------------------------------
Total correction                          0.17035010 Eh     106.90 kcal/mol

--------
ENTHALPY
--------

The enthalpy is H = U + kB*T
                kB is Boltzmann's constant
Total free energy                 ...   -343.13948723 Eh
Thermal Enthalpy correction       ...      0.00094421 Eh       0.59 kcal/mol
-----------------------------------------------------------------------
Total Enthalpy                    ...   -343.13854302 Eh

-------
ENTROPY
-------

The entropy contributions are T*S = T*(S(el)+S(vib)+S(rot)+S(trans)
     S(el)   - electronic entropy
     S(vib)  - vibrational entropy
     S(rot)  - rotational entropy
     S(trans)- translational entropy
The entropies will be listed as mutliplied by the temperature to get
units of energy

Electronic entropy                ...      0.00000000 Eh      0.00 kcal/mol
Vibrational entropy               ...      0.00977086 Eh      6.13 kcal/mol
Rotational entropy                ...      0.01200115 Eh      7.53 kcal/mol
Translational entropy             ...      0.01891510 Eh     11.87 kcal/mol
-----------------------------------------------------------------------
Final entropy term                ...      0.04068711 Eh     25.53 kcal/mol

CAUTION: The rotational entropy is not quite correctly treated here
         because it includes a symmetry number that is not yet correctly
         implemented in ORCA!
For a nonlinear molecule the correct rotational entropy is:
    S(rot) = R*(ln(qrot/sn)+1.5)
    R    = 8.31441 J/mol/K = 1.987191683e-3 kcal/mol/K
    qrot = 221738.3572398
    sn is the rotational symmetry number. We have assumed 3 here
       if it is different for your molecule then you should correct
       the printed rotational entropy by manually evaluating the equation
       as given above

For convenience we print out the resulting values for sn=1 - 12:
 sn= 1  qrot/sn=  221738.3572 T*S(rot)=     8.18 kcal/mol T*S(tot)=    26.18 kcal/mol
 sn= 2  qrot/sn=  110869.1786 T*S(rot)=     7.77 kcal/mol T*S(tot)=    25.77 kcal/mol
 sn= 3  qrot/sn=   73912.7857 T*S(rot)=     7.53 kcal/mol T*S(tot)=    25.53 kcal/mol
 sn= 4  qrot/sn=   55434.5893 T*S(rot)=     7.36 kcal/mol T*S(tot)=    25.36 kcal/mol
 sn= 5  qrot/sn=   44347.6714 T*S(rot)=     7.23 kcal/mol T*S(tot)=    25.23 kcal/mol
 sn= 6  qrot/sn=   36956.3929 T*S(rot)=     7.12 kcal/mol T*S(tot)=    25.12 kcal/mol
 sn= 7  qrot/sn=   31676.9082 T*S(rot)=     7.03 kcal/mol T*S(tot)=    25.03 kcal/mol
 sn= 8  qrot/sn=   27717.2947 T*S(rot)=     6.95 kcal/mol T*S(tot)=    24.95 kcal/mol
 sn= 9  qrot/sn=   24637.5952 T*S(rot)=     6.88 kcal/mol T*S(tot)=    24.88 kcal/mol
 sn=10  qrot/sn=   22173.8357 T*S(rot)=     6.82 kcal/mol T*S(tot)=    24.82 kcal/mol
 sn=11  qrot/sn=   20158.0325 T*S(rot)=     6.76 kcal/mol T*S(tot)=    24.76 kcal/mol
 sn=12  qrot/sn=   18478.1964 T*S(rot)=     6.71 kcal/mol T*S(tot)=    24.71 kcal/mol

-------------------
GIBBS FREE ENTHALPY
-------------------

The Gibbs free enthalpy is G = H - T*S

Total enthalpy                    ...   -343.13854302 Eh
Total entropy correction          ...     -0.04068711 Eh    -25.53 kcal/mol
-----------------------------------------------------------------------
Final Gibbs free enthalpy         ...   -343.17923013 Eh

For completeness - the Gibbs free enthalpy minus the electronic energy
G-E(el)                           ...      0.13060720 Eh     81.96 kcal/mol

                             ****ORCA TERMINATED NORMALLY****
TOTAL RUN TIME: 0 days 0 hours 56 minutes 13 seconds 100 msec
