                         Program Version 3.0.3 - RELEASE   -
|  1> ! NORI PBE0 def2-TZVP UseSym TightOPT Freq TightSCF Grid3 FinalGrid5 XYZFile
|  2> % pal
|  3>     nprocs 8
|  4> end
|  5> %method
|  6>     SymThresh 5.0e-2
|  7> end
|  8> % geom
|  9>     MaxIter 10
| 10> end
| 11> % maxcore 2000
| 12> % output
| 13>     printlevel mini
| 14>     print[ P_Basis ] 0
| 15>     print[ P_SCFInfo ] 1
| 16>     print[ P_SCFIterInfo ] 1
| 17>     print[ P_OrbEn ] 0
| 18>     print[ P_Cartesian ] 0
| 19> end
| 20> % elprop
| 21>     Dipole false
| 22> end
| 23> *xyz 1 1
| 24>  C        0.9486191712    -0.0197003330    -0.1553355293
| 25>  C        2.4375721465    -0.1410574129     0.1552841541
| 26>  C        2.8433860177     0.6284105955     1.4060497936
| 27>  N        2.5086900033     2.0938271630     1.2796427874
| 28>  C        2.8393819863    -1.5722406530     0.3559627051
| 29>  N        3.8826701051    -1.9873899947    -0.2297341068
| 30>  O        4.1449639168    -3.2944023343     0.0302718531
| 31>  H        0.6963744466    -0.6383803906    -1.0170271926
| 32>  H        0.6461070813     0.9992968993    -0.4204472474
| 33>  H        0.3336438907    -0.3575120053     0.6841363558
| 34>  H        3.0320175259     0.2296380789    -0.6877551735
| 35>  H        3.9177175558     0.5675651970     1.5794615664
| 36>  H        2.3184964894     0.2700094041     2.2937496468
| 37>  H        2.9938256034     2.5095291541     0.4813843046
| 38>  H        2.7749628145     2.6168666334     2.1160525045
| 39>  H        1.5054158726     2.2226008717     1.1301841279
| 40>  H        2.2357893339    -2.2261220222     0.9892113419
| 41>  H        4.9322860390    -3.4881988510    -0.4905018915
| 42> *
| 43>
| 44>                          ****END OF INPUT****
 Total Charge           Charge          ....    1
 Multiplicity           Mult            ....    1
 Number of Electrons    NEL             ....   56
FINAL SINGLE POINT ENERGY      -343.205743773387
FINAL SINGLE POINT ENERGY      -343.205744994331

CARTESIAN COORDINATES (ANGSTROEM)
---------------------------------
  C     -1.598671    0.069665   -1.260453
  C     -0.285086   -0.218951   -0.539745
  C      0.912268    0.446868   -1.206025
  N      1.059260   -0.002435   -2.638596
  C     -0.328501    0.249700    0.884509
  N      0.088007   -0.537392    1.785128
  O      0.003158   -0.001146    3.030167
  H     -2.429489   -0.375046   -0.712050
  H     -1.639739   -0.360363   -2.267112
  H     -1.789638    1.144134   -1.333447
  H     -0.103368   -1.299358   -0.502502
  H      1.842949    0.188161   -0.701000
  H      0.812355    1.533697   -1.234234
  H      1.190588   -1.015309   -2.689374
  H      1.858673    0.440942   -3.094786
  H      0.219819    0.225487   -3.175794
  H     -0.715192    1.243031    1.121760
  H      0.311108   -0.703241    3.614052

FINAL SINGLE POINT ENERGY      -343.205745637130
                    ***********************HURRAY********************
 Multiplicity           Mult            ....    1
 Number of Electrons    NEL             ....   56
 Basis Dimension        Dim             ....  283
FINAL SINGLE POINT ENERGY      -343.205745977661

VIBRATIONAL FREQUENCIES
-----------------------

   0:         0.00 cm**-1
   1:         0.00 cm**-1
   2:         0.00 cm**-1
   3:         0.00 cm**-1
   4:         0.00 cm**-1
   5:         0.00 cm**-1
   6:        58.33 cm**-1
   7:        92.01 cm**-1
   8:       178.45 cm**-1
   9:       198.63 cm**-1
  10:       199.87 cm**-1
  11:       261.69 cm**-1
  12:       290.93 cm**-1
  13:       363.00 cm**-1
  14:       440.07 cm**-1
  15:       474.80 cm**-1
  16:       500.92 cm**-1
  17:       594.81 cm**-1
  18:       821.24 cm**-1
  19:       858.79 cm**-1
  20:       925.38 cm**-1
  21:       955.02 cm**-1
  22:       966.86 cm**-1
  23:       985.09 cm**-1
  24:      1023.85 cm**-1
  25:      1085.76 cm**-1
  26:      1160.34 cm**-1
  27:      1184.86 cm**-1
  28:      1190.02 cm**-1
  29:      1282.27 cm**-1
  30:      1318.62 cm**-1
  31:      1335.97 cm**-1
  32:      1369.05 cm**-1
  33:      1403.74 cm**-1
  34:      1419.43 cm**-1
  35:      1454.99 cm**-1
  36:      1480.43 cm**-1
  37:      1489.08 cm**-1
  38:      1496.57 cm**-1
  39:      1507.89 cm**-1
  40:      1653.74 cm**-1
  41:      1663.60 cm**-1
  42:      1740.61 cm**-1
  43:      3038.96 cm**-1
  44:      3054.55 cm**-1
  45:      3096.73 cm**-1
  46:      3108.40 cm**-1
  47:      3117.09 cm**-1
  48:      3148.19 cm**-1
  49:      3162.20 cm**-1
  50:      3421.11 cm**-1
  51:      3500.01 cm**-1
  52:      3510.66 cm**-1
  53:      3833.40 cm**-1

IR SPECTRUM
-----------

 Mode    freq (cm**-1)   T**2         TX         TY         TZ
-------------------------------------------------------------------
   6:        58.33    4.298999  ( -1.206636   0.345412  -1.650369)
   7:        92.01    6.330209  ( -1.320078   2.072823  -0.539450)
   8:       178.45    3.451442  ( -1.529581  -1.011173  -0.298920)
   9:       198.63    1.824363  ( -0.751667  -0.418999   1.041057)
  10:       199.87    0.450056  ( -0.595106   0.264234   0.161508)
  11:       261.69    8.737807  (  2.276692   0.818937  -1.698182)
  12:       290.93    2.594001  ( -1.466023   0.626017  -0.229955)
  13:       363.00   14.036275  ( -2.134866   0.053945   3.078264)
  14:       440.07    2.547050  (  0.109316  -0.550530  -1.493994)
  15:       474.80    1.248884  ( -0.386400   0.317170  -0.999491)
  16:       500.92  143.339434  (-11.247857  -3.999965   0.908533)
  17:       594.81    7.095100  (  0.992714   1.629687   1.858424)
  18:       821.24   14.265464  (  3.111302  -1.638778  -1.378286)
  19:       858.79   12.796400  ( -0.095547  -0.987891   3.436763)
  20:       925.38    2.575942  (  0.774486   0.851945  -1.118170)
  21:       955.02   16.889829  ( -3.662482  -1.863816  -0.047363)
  22:       966.86   23.984401  ( -2.175235  -0.130204   4.385864)
  23:       985.09    8.814057  ( -0.526181   2.335047  -1.756345)
  24:      1023.85   19.146516  ( -4.040521  -1.380198  -0.956954)
  25:      1085.76  183.379101  (  0.304932  -2.097449  13.374858)
  26:      1160.34    2.590966  (  1.412598   0.435857  -0.636837)
  27:      1184.86    6.025221  (  1.815813   0.333450   1.617670)
  28:      1190.02    9.122743  ( -0.789678   2.275841  -1.822005)
  29:      1282.27   17.351147  ( -1.069782   1.906575   3.545657)
  30:      1318.62   50.246604  ( -0.934441  -2.173582  -6.681988)
  31:      1335.97    3.054737  ( -0.136951   1.735419   0.155893)
  32:      1369.05    6.772018  ( -1.598916   1.120975   1.720145)
  33:      1403.74    4.809520  (  1.326509  -0.035876   1.746026)
  34:      1419.43    8.259016  (  2.720337  -0.799264  -0.469001)
  35:      1454.99   49.204367  ( -0.689839   1.360922   6.846633)
  36:      1480.43   21.160721  (  2.246196   0.310313  -4.002378)
  37:      1489.08    8.106588  (  2.069776   1.028819   1.662573)
  38:      1496.57   59.564582  (  2.802710   0.865968  -7.138592)
  39:      1507.89  102.303897  (  0.271352  -5.196849  -8.673121)
  40:      1653.74   48.354527  ( -2.722389   5.746750  -2.813892)
  41:      1663.60   39.242271  ( -5.873280  -1.810943   1.211335)
  42:      1740.61    8.999373  (  0.048171   0.066816  -2.998764)
  43:      3038.96   23.715270  (  0.136321  -0.310604   4.858005)
  44:      3054.55    1.966705  (  0.912053  -0.872625  -0.611057)
  45:      3096.73    1.181564  (  0.636566   0.704867  -0.528687)
  46:      3108.40   14.991570  ( -0.541654   2.423690   2.970506)
  47:      3117.09    6.936696  ( -0.683794   2.090035   1.449440)
  48:      3148.19    1.108607  ( -0.013885  -0.847804   0.624213)
  49:      3162.20    0.352321  ( -0.362143   0.438764   0.169293)
  50:      3421.11   41.325556  (  0.796402  -1.649421  -6.162038)
  51:      3500.01   92.712134  ( -6.588080   6.809507  -1.714631)
  52:      3510.66  111.580166  ( -8.344995  -6.030386   2.361283)
  53:      3833.40  178.019045  ( -3.218415   6.472113 -11.214839)

--------------------------
THERMOCHEMISTRY AT 298.15K
--------------------------

Temperature         ... 298.15 K
Pressure            ... 1.00 atm
Total Mass          ... 103.14 AMU

Throughout the following assumptions are being made:
  (1) The electronic state is orbitally nondegenerate
  (2) There are no thermally accessible electronically excited states
  (3) Hindered rotations indicated by low frequency modes) are not
      treated as such but are treated as vibrations and this may
      case some error
  (4) All equations used are the standard statistical mechanics
      equations for an ideal gas
  (5) All vibrations are strinctly harmonic

------------
INNER ENERGY
------------

The inner energy is: U= E(el) + E(ZPE) + E(vib) + E(rot) + E(trans)
    E(el)   - is the total energy from the electronic structure calculation
              = E(kin-el) + E(nuc-el) + E(el-el) + E(nuc-nuc)
    E(ZPE)  - the the zero temperature vibrational energy from the frequency calculation
    E(vib)  - the the finite temperature correction to E(ZPE) due to population
              of excietd vibrational states
    E(rot)  - is the rotational thermal energy
    E(trans)- is the translational thermal energy

Summary of contributions to the inner energy U:
Electronic energy                ...   -343.20574598 Eh
Zero point energy                ...      0.16270221 Eh     102.10 kcal/mol
Thermal vibrational correction   ...      0.00594983 Eh       3.73 kcal/mol
Thermal rotational correction    ...      0.00141627 Eh       0.89 kcal/mol
Thermal translational correction ...      0.00141627 Eh       0.89 kcal/mol
-----------------------------------------------------------------------
Total thermal energy                   -343.03426139 Eh

Summary of corrections to the electronic energy:
(perhaps to be used in another calculation)
Total thermal correction                  0.00878237 Eh       5.51 kcal/mol
Non-thermal (ZPE) correction              0.16270221 Eh     102.10 kcal/mol
-----------------------------------------------------------------------
Total correction                          0.17148459 Eh     107.61 kcal/mol

--------
ENTHALPY
--------

The enthalpy is H = U + kB*T
                kB is Boltzmann's constant
Total free energy                 ...   -343.03426139 Eh
Thermal Enthalpy correction       ...      0.00094421 Eh       0.59 kcal/mol
-----------------------------------------------------------------------
Total Enthalpy                    ...   -343.03331718 Eh

-------
ENTROPY
-------

The entropy contributions are T*S = T*(S(el)+S(vib)+S(rot)+S(trans)
     S(el)   - electronic entropy
     S(vib)  - vibrational entropy
     S(rot)  - rotational entropy
     S(trans)- translational entropy
The entropies will be listed as mutliplied by the temperature to get
units of energy

Electronic entropy                ...      0.00000000 Eh      0.00 kcal/mol
Vibrational entropy               ...      0.01090255 Eh      6.84 kcal/mol
Rotational entropy                ...      0.01235926 Eh      7.76 kcal/mol
Translational entropy             ...      0.01891510 Eh     11.87 kcal/mol
-----------------------------------------------------------------------
Final entropy term                ...      0.04217690 Eh     26.47 kcal/mol

CAUTION: The rotational entropy is not quite correctly treated here
         because it includes a symmetry number that is not yet correctly
         implemented in ORCA!
For a nonlinear molecule the correct rotational entropy is:
    S(rot) = R*(ln(qrot/sn)+1.5)
    R    = 8.31441 J/mol/K = 1.987191683e-3 kcal/mol/K
    qrot = 324011.8290099
    sn is the rotational symmetry number. We have assumed 3 here
       if it is different for your molecule then you should correct
       the printed rotational entropy by manually evaluating the equation
       as given above

For convenience we print out the resulting values for sn=1 - 12:
 sn= 1  qrot/sn=  324011.8290 T*S(rot)=     8.41 kcal/mol T*S(tot)=    27.12 kcal/mol
 sn= 2  qrot/sn=  162005.9145 T*S(rot)=     8.00 kcal/mol T*S(tot)=    26.71 kcal/mol
 sn= 3  qrot/sn=  108003.9430 T*S(rot)=     7.76 kcal/mol T*S(tot)=    26.47 kcal/mol
 sn= 4  qrot/sn=   81002.9573 T*S(rot)=     7.59 kcal/mol T*S(tot)=    26.30 kcal/mol
 sn= 5  qrot/sn=   64802.3658 T*S(rot)=     7.45 kcal/mol T*S(tot)=    26.16 kcal/mol
 sn= 6  qrot/sn=   54001.9715 T*S(rot)=     7.34 kcal/mol T*S(tot)=    26.06 kcal/mol
 sn= 7  qrot/sn=   46287.4041 T*S(rot)=     7.25 kcal/mol T*S(tot)=    25.96 kcal/mol
 sn= 8  qrot/sn=   40501.4786 T*S(rot)=     7.17 kcal/mol T*S(tot)=    25.89 kcal/mol
 sn= 9  qrot/sn=   36001.3143 T*S(rot)=     7.10 kcal/mol T*S(tot)=    25.82 kcal/mol
 sn=10  qrot/sn=   32401.1829 T*S(rot)=     7.04 kcal/mol T*S(tot)=    25.75 kcal/mol
 sn=11  qrot/sn=   29455.6208 T*S(rot)=     6.99 kcal/mol T*S(tot)=    25.70 kcal/mol
 sn=12  qrot/sn=   27000.9858 T*S(rot)=     6.93 kcal/mol T*S(tot)=    25.64 kcal/mol

-------------------
GIBBS FREE ENTHALPY
-------------------

The Gibbs free enthalpy is G = H - T*S

Total enthalpy                    ...   -343.03331718 Eh
Total entropy correction          ...     -0.04217690 Eh    -26.47 kcal/mol
-----------------------------------------------------------------------
Final Gibbs free enthalpy         ...   -343.07549408 Eh

For completeness - the Gibbs free enthalpy minus the electronic energy
G-E(el)                           ...      0.13025189 Eh     81.73 kcal/mol

                             ****ORCA TERMINATED NORMALLY****
TOTAL RUN TIME: 0 days 0 hours 44 minutes 18 seconds 80 msec
