                         Program Version 3.0.3 - RELEASE   -
|  1> ! NORI PBE0 def2-TZVP UseSym TightOPT Freq TightSCF Grid3 FinalGrid5 XYZFile
|  2> % pal
|  3>     nprocs 8
|  4> end
|  5> %method
|  6>     SymThresh 5.0e-2
|  7> end
|  8> % geom
|  9>     MaxIter 10
| 10> end
| 11> % maxcore 2000
| 12> % output
| 13>     printlevel mini
| 14>     print[ P_Basis ] 0
| 15>     print[ P_SCFInfo ] 1
| 16>     print[ P_SCFIterInfo ] 1
| 17>     print[ P_OrbEn ] 0
| 18>     print[ P_Cartesian ] 0
| 19> end
| 20> % elprop
| 21>     Dipole false
| 22> end
| 23> *xyz 1 1
| 24>  C        0.9172449077    -0.0357138065    -0.1193979072
| 25>  C        2.4272792896    -0.1859055678     0.0673951805
| 26>  C        3.0273834382     0.9182567009     0.9200455168
| 27>  N        2.6437847661     2.2855144464     0.4227053918
| 28>  C        2.7051681699    -1.4853332005     0.8413958501
| 29>  N        2.9062664563    -2.5813057674     0.0928247568
| 30>  O        2.7002719693    -1.4784428135     2.0532846669
| 31>  H        0.5068851797    -0.9085211693    -0.6281152660
| 32>  H        0.6493055202     0.8248581324    -0.7415887811
| 33>  H        0.4123629465     0.0438621467     0.8468865121
| 34>  H        2.9240269082    -0.2208743065    -0.9086065834
| 35>  H        4.1168230617     0.8845568397     0.9362795805
| 36>  H        2.6609813749     0.8292452100     1.9431220263
| 37>  H        2.9945250705     2.4598943545    -0.5212739553
| 38>  H        3.0160288122     3.0150432780     1.0335387834
| 39>  H        1.6263606258     2.3852360168     0.3974878989
| 40>  H        2.9185898248    -2.5634468778    -0.9110653231
| 41>  H        3.0390616782    -3.4638436161     0.5606816520
| 42> *
| 43>
| 44>                          ****END OF INPUT****
 Total Charge           Charge          ....    1
 Multiplicity           Mult            ....    1
 Number of Electrons    NEL             ....   56
FINAL SINGLE POINT ENERGY      -343.293327720444

CARTESIAN COORDINATES (ANGSTROEM)
---------------------------------
  C     -0.503319    1.378989   -0.936819
  C     -0.215847   -0.061994   -0.513615
  C      1.269346   -0.374595   -0.459633
  N      1.971053    0.001129   -1.736518
  C     -0.720648   -0.267798    0.924383
  N     -1.982332   -0.710127    1.044699
  O      0.000579   -0.000350    1.860873
  H     -1.567134    1.599157   -0.843580
  H     -0.249775    1.573165   -1.984447
  H      0.031978    2.085763   -0.297141
  H     -0.723548   -0.759211   -1.189582
  H      1.464438   -1.434176   -0.294197
  H      1.733159    0.194583    0.346327
  H      1.617358   -0.528617   -2.535641
  H      2.975540   -0.172367   -1.667066
  H      1.836930    0.994072   -1.940272
  H     -2.559899   -0.937845    0.255728
  H     -2.370383   -0.806461    1.969680

FINAL SINGLE POINT ENERGY      -343.293328476417
                    ***********************HURRAY********************
 Multiplicity           Mult            ....    1
 Number of Electrons    NEL             ....   56
 Basis Dimension        Dim             ....  283
FINAL SINGLE POINT ENERGY      -343.293328981463

VIBRATIONAL FREQUENCIES
-----------------------

   0:         0.00 cm**-1
   1:         0.00 cm**-1
   2:         0.00 cm**-1
   3:         0.00 cm**-1
   4:         0.00 cm**-1
   5:         0.00 cm**-1
   6:        43.23 cm**-1
   7:        80.47 cm**-1
   8:       194.55 cm**-1
   9:       205.31 cm**-1
  10:       224.73 cm**-1
  11:       282.85 cm**-1
  12:       318.45 cm**-1
  13:       362.78 cm**-1
  14:       367.74 cm**-1
  15:       489.21 cm**-1
  16:       593.22 cm**-1
  17:       623.41 cm**-1
  18:       766.84 cm**-1
  19:       777.03 cm**-1
  20:       846.61 cm**-1
  21:       884.56 cm**-1
  22:       964.44 cm**-1
  23:       989.77 cm**-1
  24:      1011.83 cm**-1
  25:      1070.63 cm**-1
  26:      1116.99 cm**-1
  27:      1159.34 cm**-1
  28:      1193.11 cm**-1
  29:      1278.67 cm**-1
  30:      1319.70 cm**-1
  31:      1362.71 cm**-1
  32:      1394.57 cm**-1
  33:      1413.64 cm**-1
  34:      1427.88 cm**-1
  35:      1484.48 cm**-1
  36:      1489.32 cm**-1
  37:      1500.72 cm**-1
  38:      1509.17 cm**-1
  39:      1631.87 cm**-1
  40:      1656.81 cm**-1
  41:      1664.44 cm**-1
  42:      1807.75 cm**-1
  43:      3040.20 cm**-1
  44:      3055.01 cm**-1
  45:      3108.81 cm**-1
  46:      3113.86 cm**-1
  47:      3148.31 cm**-1
  48:      3170.80 cm**-1
  49:      3424.12 cm**-1
  50:      3502.95 cm**-1
  51:      3511.15 cm**-1
  52:      3605.94 cm**-1
  53:      3739.42 cm**-1

IR SPECTRUM
-----------

 Mode    freq (cm**-1)   T**2         TX         TY         TZ
-------------------------------------------------------------------
   6:        43.23    7.775255  ( -0.386195   2.735578  -0.377784)
   7:        80.47   10.229058  ( -0.374959   2.601501   1.822266)
   8:       194.55    8.701776  ( -0.318968   0.164552  -2.927961)
   9:       205.31    3.902309  ( -0.863335   0.257478   1.758029)
  10:       224.73    3.715078  ( -0.902497   1.656425  -0.396022)
  11:       282.85   12.833460  (  2.879306  -2.128425  -0.113426)
  12:       318.45   13.733432  (  1.745053   1.119270  -3.071719)
  13:       362.78  159.637804  ( -4.955377  11.620724   0.202043)
  14:       367.74   28.004846  (  2.914799   3.998652  -1.876052)
  15:       489.21    0.098966  ( -0.195520  -0.236082  -0.070738)
  16:       593.22   26.471440  ( -1.675087   4.844456  -0.443588)
  17:       623.41    6.382875  ( -1.875270  -0.415875   1.641123)
  18:       766.84    4.879080  ( -0.264091  -2.156737   0.397267)
  19:       777.03   14.071693  (  2.742823  -1.333167  -2.184327)
  20:       846.61   10.463922  (  0.754633   3.125995  -0.350150)
  21:       884.56    2.391081  (  1.163216  -0.219434   0.994917)
  22:       964.44   28.155306  (  4.827265   0.795007  -2.054454)
  23:       989.77    8.161779  ( -0.373645   0.844559   2.703496)
  24:      1011.83    8.495000  ( -1.641976   1.660956  -1.743599)
  25:      1070.63    8.837759  ( -2.599366   0.178255   1.431530)
  26:      1116.99    0.118412  ( -0.174557  -0.224743   0.193474)
  27:      1159.34    8.352255  (  2.466160  -1.492346   0.207879)
  28:      1193.11    2.307206  (  1.302007  -0.450824   0.639329)
  29:      1278.67   28.929778  ( -5.190297  -1.116795   0.862184)
  30:      1319.70    3.962987  (  0.580252  -1.822383  -0.552462)
  31:      1362.71   19.252983  ( -3.668676   0.476439   2.359408)
  32:      1394.57   24.853057  (  3.968116   1.034963  -2.834777)
  33:      1413.64   18.243711  (  2.098158  -1.116967  -3.548778)
  34:      1427.88   73.307958  (  4.913564   4.653043  -5.245383)
  35:      1484.48   62.314917  ( -6.168251  -1.116566   4.798008)
  36:      1489.32    7.644946  ( -2.570264   0.999921  -0.197093)
  37:      1500.72   23.861480  ( -4.417048  -1.647399   1.279548)
  38:      1509.17  108.394341  (  2.907081   1.948207  -9.805494)
  39:      1631.87  111.302911  ( -9.055519  -3.537136   4.097456)
  40:      1656.81   46.928197  (  3.465228   5.471928   2.231231)
  41:      1664.44   41.092934  ( -5.244962   3.671812  -0.317965)
  42:      1807.75  333.090850  (-14.693399  -4.726834  -9.739194)
  43:      3040.20   20.090940  (  2.070445   1.659923  -3.612320)
  44:      3055.01    9.984149  ( -1.442720  -2.280811  -1.643353)
  45:      3108.81    4.431302  ( -1.193170   0.590114   1.630771)
  46:      3113.86    9.631630  (  0.360447  -0.484376  -3.044189)
  47:      3148.31    1.485141  (  1.141498   0.404825   0.135052)
  48:      3170.80    2.446877  (  0.167389   0.157599  -1.547262)
  49:      3424.12   37.098824  (  3.413710   1.636284  -4.771581)
  50:      3502.95  102.868489  ( -3.462377   9.150220   2.674680)
  51:      3511.15  102.185266  ( -9.077531  -0.601096  -4.407083)
  52:      3605.94   96.673388  (  8.524993   3.008899  -3.865800)
  53:      3739.42   69.286261  (  1.468829   0.892806   8.144428)

--------------------------
THERMOCHEMISTRY AT 298.15K
--------------------------

Temperature         ... 298.15 K
Pressure            ... 1.00 atm
Total Mass          ... 103.14 AMU

Throughout the following assumptions are being made:
  (1) The electronic state is orbitally nondegenerate
  (2) There are no thermally accessible electronically excited states
  (3) Hindered rotations indicated by low frequency modes) are not
      treated as such but are treated as vibrations and this may
      case some error
  (4) All equations used are the standard statistical mechanics
      equations for an ideal gas
  (5) All vibrations are strinctly harmonic

------------
INNER ENERGY
------------

The inner energy is: U= E(el) + E(ZPE) + E(vib) + E(rot) + E(trans)
    E(el)   - is the total energy from the electronic structure calculation
              = E(kin-el) + E(nuc-el) + E(el-el) + E(nuc-nuc)
    E(ZPE)  - the the zero temperature vibrational energy from the frequency calculation
    E(vib)  - the the finite temperature correction to E(ZPE) due to population
              of excietd vibrational states
    E(rot)  - is the rotational thermal energy
    E(trans)- is the translational thermal energy

Summary of contributions to the inner energy U:
Electronic energy                ...   -343.29332898 Eh
Zero point energy                ...      0.16386723 Eh     102.83 kcal/mol
Thermal vibrational correction   ...      0.00592213 Eh       3.72 kcal/mol
Thermal rotational correction    ...      0.00141627 Eh       0.89 kcal/mol
Thermal translational correction ...      0.00141627 Eh       0.89 kcal/mol
-----------------------------------------------------------------------
Total thermal energy                   -343.12070708 Eh

Summary of corrections to the electronic energy:
(perhaps to be used in another calculation)
Total thermal correction                  0.00875467 Eh       5.49 kcal/mol
Non-thermal (ZPE) correction              0.16386723 Eh     102.83 kcal/mol
-----------------------------------------------------------------------
Total correction                          0.17262190 Eh     108.32 kcal/mol

--------
ENTHALPY
--------

The enthalpy is H = U + kB*T
                kB is Boltzmann's constant
Total free energy                 ...   -343.12070708 Eh
Thermal Enthalpy correction       ...      0.00094421 Eh       0.59 kcal/mol
-----------------------------------------------------------------------
Total Enthalpy                    ...   -343.11976287 Eh

-------
ENTROPY
-------

The entropy contributions are T*S = T*(S(el)+S(vib)+S(rot)+S(trans)
     S(el)   - electronic entropy
     S(vib)  - vibrational entropy
     S(rot)  - rotational entropy
     S(trans)- translational entropy
The entropies will be listed as mutliplied by the temperature to get
units of energy

Electronic entropy                ...      0.00000000 Eh      0.00 kcal/mol
Vibrational entropy               ...      0.01105264 Eh      6.94 kcal/mol
Rotational entropy                ...      0.01216963 Eh      7.64 kcal/mol
Translational entropy             ...      0.01891510 Eh     11.87 kcal/mol
-----------------------------------------------------------------------
Final entropy term                ...      0.04213737 Eh     26.44 kcal/mol

CAUTION: The rotational entropy is not quite correctly treated here
         because it includes a symmetry number that is not yet correctly
         implemented in ORCA!
For a nonlinear molecule the correct rotational entropy is:
    S(rot) = R*(ln(qrot/sn)+1.5)
    R    = 8.31441 J/mol/K = 1.987191683e-3 kcal/mol/K
    qrot = 265057.4851183
    sn is the rotational symmetry number. We have assumed 3 here
       if it is different for your molecule then you should correct
       the printed rotational entropy by manually evaluating the equation
       as given above

For convenience we print out the resulting values for sn=1 - 12:
 sn= 1  qrot/sn=  265057.4851 T*S(rot)=     8.29 kcal/mol T*S(tot)=    27.09 kcal/mol
 sn= 2  qrot/sn=  132528.7426 T*S(rot)=     7.88 kcal/mol T*S(tot)=    26.68 kcal/mol
 sn= 3  qrot/sn=   88352.4950 T*S(rot)=     7.64 kcal/mol T*S(tot)=    26.44 kcal/mol
 sn= 4  qrot/sn=   66264.3713 T*S(rot)=     7.47 kcal/mol T*S(tot)=    26.27 kcal/mol
 sn= 5  qrot/sn=   53011.4970 T*S(rot)=     7.33 kcal/mol T*S(tot)=    26.14 kcal/mol
 sn= 6  qrot/sn=   44176.2475 T*S(rot)=     7.23 kcal/mol T*S(tot)=    26.03 kcal/mol
 sn= 7  qrot/sn=   37865.3550 T*S(rot)=     7.13 kcal/mol T*S(tot)=    25.94 kcal/mol
 sn= 8  qrot/sn=   33132.1856 T*S(rot)=     7.06 kcal/mol T*S(tot)=    25.86 kcal/mol
 sn= 9  qrot/sn=   29450.8317 T*S(rot)=     6.99 kcal/mol T*S(tot)=    25.79 kcal/mol
 sn=10  qrot/sn=   26505.7485 T*S(rot)=     6.92 kcal/mol T*S(tot)=    25.73 kcal/mol
 sn=11  qrot/sn=   24096.1350 T*S(rot)=     6.87 kcal/mol T*S(tot)=    25.67 kcal/mol
 sn=12  qrot/sn=   22088.1238 T*S(rot)=     6.82 kcal/mol T*S(tot)=    25.62 kcal/mol

-------------------
GIBBS FREE ENTHALPY
-------------------

The Gibbs free enthalpy is G = H - T*S

Total enthalpy                    ...   -343.11976287 Eh
Total entropy correction          ...     -0.04213737 Eh    -26.44 kcal/mol
-----------------------------------------------------------------------
Final Gibbs free enthalpy         ...   -343.16190024 Eh

For completeness - the Gibbs free enthalpy minus the electronic energy
G-E(el)                           ...      0.13142874 Eh     82.47 kcal/mol

                             ****ORCA TERMINATED NORMALLY****
TOTAL RUN TIME: 0 days 0 hours 46 minutes 6 seconds 72 msec
