                         Program Version 3.0.3 - RELEASE   -
|  1> ! NORI PBE0 def2-TZVP UseSym TightOPT Freq TightSCF Grid3 FinalGrid5 XYZFile
|  2> % pal
|  3>     nprocs 8
|  4> end
|  5> %method
|  6>     SymThresh 5.0e-2
|  7> end
|  8> % geom
|  9>     MaxIter 10
| 10> end
| 11> % maxcore 2000
| 12> % output
| 13>     printlevel mini
| 14>     print[ P_Basis ] 0
| 15>     print[ P_SCFInfo ] 1
| 16>     print[ P_SCFIterInfo ] 1
| 17>     print[ P_OrbEn ] 0
| 18>     print[ P_Cartesian ] 0
| 19> end
| 20> % elprop
| 21>     Dipole false
| 22> end
| 23> *xyz 1 1
| 24>  C        2.6180836315    -1.5022307886     0.0567039119
| 25>  C        2.3777176244    -0.0028433651    -0.0035711538
| 26>  C        3.1228122711     0.6746033748    -1.1496870314
| 27>  N        2.7875499026     2.1467427612    -1.1835334275
| 28>  C        4.6179107264     0.5870629018    -1.0448434058
| 29>  N        5.2535237349     1.6690499984    -0.8889856322
| 30>  O        6.5908768843     1.5297306460    -0.7741715955
| 31>  H        1.9985037700    -1.9430605342     0.8374071873
| 32>  H        3.6554637359    -1.7434443059     0.2923525154
| 33>  H        2.3552799498    -1.9888441428    -0.8856218089
| 34>  H        1.3064767634     0.1862119652    -0.1379141573
| 35>  H        2.6802682310     0.4658972907     0.9400035015
| 36>  H        2.7948834376     0.2437474583    -2.1001770351
| 37>  H        3.6858930390     2.6329006234    -0.9619182279
| 38>  H        2.0763938875     2.3873937790    -0.4935711288
| 39>  H        2.4678385552     2.4548708689    -2.1005951695
| 40>  H        5.1050824551    -0.3833990930    -1.0946830931
| 41>  H        6.9340114001     2.4252205619    -0.6694842494
| 42> *
| 43>
| 44>                          ****END OF INPUT****
 Total Charge           Charge          ....    1
 Multiplicity           Mult            ....    1
 Number of Electrons    NEL             ....   56
FINAL SINGLE POINT ENERGY      -343.215726883533
FINAL SINGLE POINT ENERGY      -343.215728105568

CARTESIAN COORDINATES (ANGSTROEM)
---------------------------------
  C     -1.957012    0.177505   -1.910165
  C     -0.495143    0.552629   -1.731969
  C      0.254045   -0.398743   -0.803476
  N      1.708337    0.001096   -0.721276
  C     -0.259807   -0.407994    0.607069
  N      0.520054    0.005639    1.512609
  O     -0.003699    0.001109    2.756279
  H     -2.419562    0.837415   -2.644048
  H     -2.523422    0.277457   -0.982962
  H     -2.066442   -0.847002   -2.273523
  H      0.003570    0.535940   -2.707627
  H     -0.412436    1.571203   -1.335796
  H      0.217170   -1.411552   -1.214941
  H      1.851705    0.297701    0.270613
  H      1.923678    0.770928   -1.354112
  H      2.339324   -0.772672   -0.924645
  H     -1.270350   -0.753482    0.809209
  H      0.699391    0.325088    3.331835

FINAL SINGLE POINT ENERGY      -343.215728415981
                    ***********************HURRAY********************
 Multiplicity           Mult            ....    1
 Number of Electrons    NEL             ....   56
 Basis Dimension        Dim             ....  283
FINAL SINGLE POINT ENERGY      -343.215728522518

VIBRATIONAL FREQUENCIES
-----------------------

   0:         0.00 cm**-1
   1:         0.00 cm**-1
   2:         0.00 cm**-1
   3:         0.00 cm**-1
   4:         0.00 cm**-1
   5:         0.00 cm**-1
   6:       -19.12 cm**-1
   7:       102.94 cm**-1
   8:       167.94 cm**-1
   9:       205.94 cm**-1
  10:       247.58 cm**-1
  11:       265.39 cm**-1
  12:       275.85 cm**-1
  13:       411.55 cm**-1
  14:       456.80 cm**-1
  15:       476.70 cm**-1
  16:       508.83 cm**-1
  17:       666.13 cm**-1
  18:       804.65 cm**-1
  19:       843.62 cm**-1
  20:       941.71 cm**-1
  21:       956.82 cm**-1
  22:      1020.96 cm**-1
  23:      1038.30 cm**-1
  24:      1060.01 cm**-1
  25:      1095.20 cm**-1
  26:      1129.15 cm**-1
  27:      1162.76 cm**-1
  28:      1205.53 cm**-1
  29:      1278.22 cm**-1
  30:      1291.32 cm**-1
  31:      1343.03 cm**-1
  32:      1366.88 cm**-1
  33:      1389.19 cm**-1
  34:      1421.87 cm**-1
  35:      1450.60 cm**-1
  36:      1478.87 cm**-1
  37:      1482.79 cm**-1
  38:      1493.80 cm**-1
  39:      1500.50 cm**-1
  40:      1631.76 cm**-1
  41:      1653.65 cm**-1
  42:      1753.58 cm**-1
  43:      3037.24 cm**-1
  44:      3065.35 cm**-1
  45:      3075.18 cm**-1
  46:      3092.42 cm**-1
  47:      3097.43 cm**-1
  48:      3141.35 cm**-1
  49:      3154.72 cm**-1
  50:      3183.10 cm**-1
  51:      3481.89 cm**-1
  52:      3544.25 cm**-1
  53:      3822.86 cm**-1

IR SPECTRUM
-----------

 Mode    freq (cm**-1)   T**2         TX         TY         TZ
-------------------------------------------------------------------
   7:       102.94    0.760871  (  0.357169   0.795721  -0.011377)
   8:       167.94    0.144507  ( -0.008640  -0.295263   0.239274)
   9:       205.94    8.172196  ( -1.480065   1.566696   1.878049)
  10:       247.58    1.568386  ( -0.643933   0.240682   1.046809)
  11:       265.39    2.573624  (  0.216129   0.225894  -1.573494)
  12:       275.85   21.852807  ( -0.792059  -0.315833   4.596270)
  13:       411.55    6.078931  (  0.526023  -0.158759  -2.403545)
  14:       456.80   26.403189  (  2.296003  -4.587318  -0.296770)
  15:       476.70  122.760185  (  2.753110 -10.414285   2.592923)
  16:       508.83   30.365270  ( -4.229944   0.681257   3.465362)
  17:       666.13    2.056124  ( -1.337757   0.201528   0.475307)
  18:       804.65    5.472513  (  0.188042  -0.494043  -2.278832)
  19:       843.62    1.312500  (  1.135665  -0.145087   0.041406)
  20:       941.71    6.210397  ( -1.829182   0.414848   1.640850)
  21:       956.82   17.005766  ( -0.832503   3.800682  -1.366573)
  22:      1020.96   12.085999  ( -1.805564   2.630669  -1.380406)
  23:      1038.30    5.057730  (  1.892436   0.312295  -1.174261)
  24:      1060.01   21.443455  ( -0.931053  -0.027463   4.536060)
  25:      1095.20  130.886307  ( -1.240368  -1.181772 -11.311552)
  26:      1129.15   15.846947  ( -1.075805   1.823552   3.371090)
  27:      1162.76   53.500359  ( -2.795073  -0.545662  -6.737223)
  28:      1205.53    3.661840  (  0.122183   1.627085   0.999753)
  29:      1278.22   10.798341  (  1.701632   0.264085  -2.798759)
  30:      1291.32   18.811371  ( -3.171898  -0.431769   2.926433)
  31:      1343.03    2.762556  (  0.581103   1.541286   0.222066)
  32:      1366.88    9.014022  ( -2.119576  -0.025049   2.126215)
  33:      1389.19   14.574234  (  3.463026   1.460795  -0.669152)
  34:      1421.87    5.961330  (  2.246052   0.657992   0.695433)
  35:      1450.60  159.086848  ( -8.160012  -1.565670   9.489454)
  36:      1478.87  147.834829  (-11.724933  -2.949486  -1.288921)
  37:      1482.79    5.203285  (  1.122440   0.019385  -1.985708)
  38:      1493.80    6.684673  ( -0.825225   0.301322   2.431642)
  39:      1500.50   17.880957  ( -1.027447  -4.013754  -0.845629)
  40:      1631.76   18.500421  (  2.714827  -2.711023  -1.944348)
  41:      1653.65   26.054099  (  0.021504   3.955875  -3.225630)
  42:      1753.58    3.042284  (  0.279200  -0.014962   1.721658)
  43:      3037.24    9.337145  (  2.554712   1.551903  -0.634184)
  44:      3065.35    6.655321  ( -1.933642  -1.705686   0.083583)
  45:      3075.18    4.522477  ( -0.205884   0.119234   2.113261)
  46:      3092.42   93.624740  ( -1.789510   1.930987   9.310944)
  47:      3097.43  167.391357  ( -3.063840   0.580267  12.556573)
  48:      3141.35   12.529284  (  1.015420  -2.133071  -2.635946)
  49:      3154.72    4.746839  ( -0.298774  -0.894049   1.964243)
  50:      3183.10    1.492405  (  1.144865   0.421756   0.061738)
  51:      3481.89   93.312167  ( -6.565036  -0.374594   7.076167)
  52:      3544.25   98.732390  (  3.816534  -9.049741   1.506201)
  53:      3822.86  189.908786  ( -6.536918  -3.490253 -11.618762)

--------------------------
THERMOCHEMISTRY AT 298.15K
--------------------------

Temperature         ... 298.15 K
Pressure            ... 1.00 atm
Total Mass          ... 103.14 AMU

Throughout the following assumptions are being made:
  (1) The electronic state is orbitally nondegenerate
  (2) There are no thermally accessible electronically excited states
  (3) Hindered rotations indicated by low frequency modes) are not
      treated as such but are treated as vibrations and this may
      case some error
  (4) All equations used are the standard statistical mechanics
      equations for an ideal gas
  (5) All vibrations are strinctly harmonic

------------
INNER ENERGY
------------

The inner energy is: U= E(el) + E(ZPE) + E(vib) + E(rot) + E(trans)
    E(el)   - is the total energy from the electronic structure calculation
              = E(kin-el) + E(nuc-el) + E(el-el) + E(nuc-nuc)
    E(ZPE)  - the the zero temperature vibrational energy from the frequency calculation
    E(vib)  - the the finite temperature correction to E(ZPE) due to population
              of excietd vibrational states
    E(rot)  - is the rotational thermal energy
    E(trans)- is the translational thermal energy

Summary of contributions to the inner energy U:
Electronic energy                ...   -343.21572852 Eh
Zero point energy                ...      0.16237918 Eh     101.89 kcal/mol
Thermal vibrational correction   ...      0.00494459 Eh       3.10 kcal/mol
Thermal rotational correction    ...      0.00141627 Eh       0.89 kcal/mol
Thermal translational correction ...      0.00141627 Eh       0.89 kcal/mol
-----------------------------------------------------------------------
Total thermal energy                   -343.04557221 Eh

Summary of corrections to the electronic energy:
(perhaps to be used in another calculation)
Total thermal correction                  0.00777713 Eh       4.88 kcal/mol
Non-thermal (ZPE) correction              0.16237918 Eh     101.89 kcal/mol
-----------------------------------------------------------------------
Total correction                          0.17015631 Eh     106.77 kcal/mol

--------
ENTHALPY
--------

The enthalpy is H = U + kB*T
                kB is Boltzmann's constant
Total free energy                 ...   -343.04557221 Eh
Thermal Enthalpy correction       ...      0.00094421 Eh       0.59 kcal/mol
-----------------------------------------------------------------------
Total Enthalpy                    ...   -343.04462800 Eh

-------
ENTROPY
-------

The entropy contributions are T*S = T*(S(el)+S(vib)+S(rot)+S(trans)
     S(el)   - electronic entropy
     S(vib)  - vibrational entropy
     S(rot)  - rotational entropy
     S(trans)- translational entropy
The entropies will be listed as mutliplied by the temperature to get
units of energy

Electronic entropy                ...      0.00000000 Eh      0.00 kcal/mol
Vibrational entropy               ...      0.00833493 Eh      5.23 kcal/mol
Rotational entropy                ...      0.01233319 Eh      7.74 kcal/mol
Translational entropy             ...      0.01891510 Eh     11.87 kcal/mol
-----------------------------------------------------------------------
Final entropy term                ...      0.03958322 Eh     24.84 kcal/mol

CAUTION: The rotational entropy is not quite correctly treated here
         because it includes a symmetry number that is not yet correctly
         implemented in ORCA!
For a nonlinear molecule the correct rotational entropy is:
    S(rot) = R*(ln(qrot/sn)+1.5)
    R    = 8.31441 J/mol/K = 1.987191683e-3 kcal/mol/K
    qrot = 315190.7081738
    sn is the rotational symmetry number. We have assumed 3 here
       if it is different for your molecule then you should correct
       the printed rotational entropy by manually evaluating the equation
       as given above

For convenience we print out the resulting values for sn=1 - 12:
 sn= 1  qrot/sn=  315190.7082 T*S(rot)=     8.39 kcal/mol T*S(tot)=    25.49 kcal/mol
 sn= 2  qrot/sn=  157595.3541 T*S(rot)=     7.98 kcal/mol T*S(tot)=    25.08 kcal/mol
 sn= 3  qrot/sn=  105063.5694 T*S(rot)=     7.74 kcal/mol T*S(tot)=    24.84 kcal/mol
 sn= 4  qrot/sn=   78797.6770 T*S(rot)=     7.57 kcal/mol T*S(tot)=    24.67 kcal/mol
 sn= 5  qrot/sn=   63038.1416 T*S(rot)=     7.44 kcal/mol T*S(tot)=    24.54 kcal/mol
 sn= 6  qrot/sn=   52531.7847 T*S(rot)=     7.33 kcal/mol T*S(tot)=    24.43 kcal/mol
 sn= 7  qrot/sn=   45027.2440 T*S(rot)=     7.24 kcal/mol T*S(tot)=    24.34 kcal/mol
 sn= 8  qrot/sn=   39398.8385 T*S(rot)=     7.16 kcal/mol T*S(tot)=    24.26 kcal/mol
 sn= 9  qrot/sn=   35021.1898 T*S(rot)=     7.09 kcal/mol T*S(tot)=    24.19 kcal/mol
 sn=10  qrot/sn=   31519.0708 T*S(rot)=     7.03 kcal/mol T*S(tot)=    24.13 kcal/mol
 sn=11  qrot/sn=   28653.7007 T*S(rot)=     6.97 kcal/mol T*S(tot)=    24.07 kcal/mol
 sn=12  qrot/sn=   26265.8923 T*S(rot)=     6.92 kcal/mol T*S(tot)=    24.02 kcal/mol

-------------------
GIBBS FREE ENTHALPY
-------------------

The Gibbs free enthalpy is G = H - T*S

Total enthalpy                    ...   -343.04462800 Eh
Total entropy correction          ...     -0.03958322 Eh    -24.84 kcal/mol
-----------------------------------------------------------------------
Final Gibbs free enthalpy         ...   -343.08421122 Eh

For completeness - the Gibbs free enthalpy minus the electronic energy
G-E(el)                           ...      0.13151730 Eh     82.53 kcal/mol

                             ****ORCA TERMINATED NORMALLY****
TOTAL RUN TIME: 0 days 0 hours 45 minutes 31 seconds 109 msec
