                         Program Version 3.0.3 - RELEASE   -
|  1> ! NORI PBE0 def2-TZVP UseSym TightOPT Freq TightSCF Grid3 FinalGrid5 XYZFile
|  2> % pal
|  3>     nprocs 8
|  4> end
|  5> %method
|  6>     SymThresh 5.0e-2
|  7> end
|  8> % geom
|  9>     MaxIter 10
| 10> end
| 11> % maxcore 2000
| 12> % output
| 13>     printlevel mini
| 14>     print[ P_Basis ] 0
| 15>     print[ P_SCFInfo ] 1
| 16>     print[ P_SCFIterInfo ] 1
| 17>     print[ P_OrbEn ] 0
| 18>     print[ P_Cartesian ] 0
| 19> end
| 20> % elprop
| 21>     Dipole false
| 22> end
| 23> *xyz 1 1
| 24>  C        3.3012343629     0.8996564861     1.1969049570
| 25>  C        2.9136389928     0.4336316823    -0.1964391692
| 26>  C        3.2797481577    -1.0175270754    -0.5088898219
| 27>  N        2.7646988165    -1.3871092383    -1.8640026641
| 28>  C        4.7929791715    -1.2744495064    -0.6676010892
| 29>  N        5.5424199616    -1.3103101295     0.4246221078
| 30>  O        5.2143736527    -1.4317290986    -1.8059555897
| 31>  H        2.8885775902     1.8926776014     1.3752694381
| 32>  H        4.3818414705     0.9796286016     1.3210641619
| 33>  H        2.8985378578     0.2402434438     1.9701385834
| 34>  H        1.8273948206     0.5220670483    -0.3077378398
| 35>  H        3.3700554733     1.0830737517    -0.9516233812
| 36>  H        2.8456114535    -1.6931778918     0.2305962193
| 37>  H        3.6788808672    -1.4527328427    -2.4126194611
| 38>  H        2.1469027787    -0.6789541024    -2.2572883115
| 39>  H        2.2904711139    -2.2882680547    -1.8863443741
| 40>  H        5.1604114499    -1.1972768463     1.3474979801
| 41>  H        6.5340620085    -1.4705338289     0.3283082544
| 42> *
| 43>
| 44>                          ****END OF INPUT****
 Total Charge           Charge          ....    1
 Multiplicity           Mult            ....    1
 Number of Electrons    NEL             ....   56
FINAL SINGLE POINT ENERGY      -343.304745886476
FINAL SINGLE POINT ENERGY      -343.304748412152
FINAL SINGLE POINT ENERGY      -343.304750423709

CARTESIAN COORDINATES (ANGSTROEM)
---------------------------------
  C     -0.935266    0.681483   -2.165587
  C      0.308590    0.877202   -1.315460
  C      0.606353   -0.267501   -0.347619
  N      1.892292    0.001438    0.368675
  C     -0.388870   -0.384148    0.825877
  N     -1.588114   -0.893418    0.583907
  O     -0.006662    0.006682    1.920923
  H     -0.989584    1.470059   -2.916450
  H     -1.851679    0.741518   -1.577524
  H     -0.913719   -0.271953   -2.700590
  H      1.176204    0.972271   -1.977722
  H      0.232331    1.810279   -0.746063
  H      0.690802   -1.215055   -0.883492
  H      1.531495    0.220829    1.349210
  H      2.402806    0.790915   -0.023219
  H      2.511781   -0.805934    0.408073
  H     -1.861819   -1.227170   -0.323921
  H     -2.248640   -0.962133    1.343598

FINAL SINGLE POINT ENERGY      -343.304751080080
                    ***********************HURRAY********************
 Multiplicity           Mult            ....    1
 Number of Electrons    NEL             ....   56
 Basis Dimension        Dim             ....  283
FINAL SINGLE POINT ENERGY      -343.304751407637

VIBRATIONAL FREQUENCIES
-----------------------

   0:         0.00 cm**-1
   1:         0.00 cm**-1
   2:         0.00 cm**-1
   3:         0.00 cm**-1
   4:         0.00 cm**-1
   5:         0.00 cm**-1
   6:        61.90 cm**-1
   7:       112.86 cm**-1
   8:       206.05 cm**-1
   9:       248.58 cm**-1
  10:       313.33 cm**-1
  11:       321.35 cm**-1
  12:       342.23 cm**-1
  13:       398.98 cm**-1
  14:       469.06 cm**-1
  15:       506.02 cm**-1
  16:       597.05 cm**-1
  17:       668.39 cm**-1
  18:       733.15 cm**-1
  19:       757.87 cm**-1
  20:       854.91 cm**-1
  21:       898.19 cm**-1
  22:      1011.66 cm**-1
  23:      1034.33 cm**-1
  24:      1057.13 cm**-1
  25:      1095.14 cm**-1
  26:      1117.43 cm**-1
  27:      1133.29 cm**-1
  28:      1206.02 cm**-1
  29:      1269.25 cm**-1
  30:      1335.27 cm**-1
  31:      1348.29 cm**-1
  32:      1373.99 cm**-1
  33:      1403.17 cm**-1
  34:      1418.72 cm**-1
  35:      1463.50 cm**-1
  36:      1487.08 cm**-1
  37:      1494.57 cm**-1
  38:      1508.23 cm**-1
  39:      1627.36 cm**-1
  40:      1637.35 cm**-1
  41:      1656.00 cm**-1
  42:      1799.06 cm**-1
  43:      2813.88 cm**-1
  44:      3041.49 cm**-1
  45:      3060.96 cm**-1
  46:      3084.74 cm**-1
  47:      3114.73 cm**-1
  48:      3140.13 cm**-1
  49:      3153.97 cm**-1
  50:      3487.12 cm**-1
  51:      3552.80 cm**-1
  52:      3593.43 cm**-1
  53:      3723.13 cm**-1

IR SPECTRUM
-----------

 Mode    freq (cm**-1)   T**2         TX         TY         TZ
-------------------------------------------------------------------
   6:        61.90   15.751751  (  1.441181  -3.646046   0.617329)
   7:       112.86    3.873775  (  0.191899   1.957904  -0.059661)
   8:       206.05    4.017197  (  1.907685  -0.447286  -0.421745)
   9:       248.58    1.387764  (  0.506895   0.147876  -1.053069)
  10:       313.33    0.970141  ( -0.975828   0.102273  -0.086259)
  11:       321.35    2.087390  ( -0.412608  -1.254113   0.586809)
  12:       342.23   54.516522  ( -5.844008  -0.217027   4.507438)
  13:       398.98   38.757272  ( -5.535573  -0.524645   2.799902)
  14:       469.06  177.392465  ( -3.914822  12.106421  -3.937156)
  15:       506.02   62.661280  (  7.345514   2.594789  -1.404199)
  16:       597.05   29.435256  ( -3.043013   4.314989  -1.247477)
  17:       668.39    2.165707  ( -1.101028   0.029138   0.976010)
  18:       733.15   11.602244  (  1.999038   2.191824  -1.673917)
  19:       757.87   12.941353  ( -2.523516   1.468993   2.101257)
  20:       854.91    2.105993  (  1.449433   0.071180  -0.008434)
  21:       898.19    6.043554  ( -1.739773  -0.562663   1.643214)
  22:      1011.66   10.783705  (  2.540135  -1.945241   0.739903)
  23:      1034.33    8.706207  ( -0.956063   2.578404  -1.069573)
  24:      1057.13   29.294778  ( -4.441809  -0.875264   2.966315)
  25:      1095.14   47.303243  (  4.510133   1.142786  -5.065174)
  26:      1117.43    5.075432  ( -2.229443  -0.289195   0.146220)
  27:      1133.29   19.345464  (  2.289804  -0.440940  -3.729321)
  28:      1206.02    1.675697  ( -0.127659   1.186346  -0.501980)
  29:      1269.25    0.769661  (  0.669374  -0.203122  -0.529473)
  30:      1335.27   17.216477  (  2.683467   1.698151   2.670537)
  31:      1348.29   15.935223  (  3.314235   1.892614  -1.170079)
  32:      1373.99   22.153167  (  2.422451   0.671761   3.979150)
  33:      1403.17  397.575175  ( 18.884331   4.991261   4.005562)
  34:      1418.72    4.997882  (  1.739298   0.709474  -1.212176)
  35:      1463.50   33.777112  (  2.243658   0.657843   5.320748)
  36:      1487.08    1.158988  (  0.425397   0.815481   0.559479)
  37:      1494.57   13.848992  (  2.047936  -0.489278  -3.068478)
  38:      1508.23   14.555338  ( -0.215265  -3.513462   1.471252)
  39:      1627.36   44.230267  (  6.251490  -1.687905  -1.516614)
  40:      1637.35   74.855017  (  7.227588   4.308489  -2.013431)
  41:      1656.00   41.791571  ( -2.896220  -4.975445   2.940822)
  42:      1799.06  261.066164  ( 10.034406   6.108323  11.093477)
  43:      2813.88  394.005180  ( 12.935218  -0.563726 -15.045516)
  44:      3041.49    8.003847  ( -2.669377  -0.899744  -0.262167)
  45:      3060.96    9.654330  ( -2.240199  -2.060508  -0.624615)
  46:      3084.74    2.802318  (  1.051293  -0.373634  -1.247997)
  47:      3114.73    1.546522  (  0.875127   0.883495  -0.010528)
  48:      3140.13    7.872485  (  1.422764  -2.048027  -1.286006)
  49:      3153.97    4.576019  (  1.530085   0.416467  -1.435762)
  50:      3487.12   84.140604  ( -8.941041  -0.104991   2.046305)
  51:      3552.80   94.192540  ( -1.900214   9.210802  -2.396425)
  52:      3593.43  116.340380  ( -9.993938  -3.826417   1.349115)
  53:      3723.13   95.024199  (  1.600412  -1.394106  -9.514166)

--------------------------
THERMOCHEMISTRY AT 298.15K
--------------------------

Temperature         ... 298.15 K
Pressure            ... 1.00 atm
Total Mass          ... 103.14 AMU

Throughout the following assumptions are being made:
  (1) The electronic state is orbitally nondegenerate
  (2) There are no thermally accessible electronically excited states
  (3) Hindered rotations indicated by low frequency modes) are not
      treated as such but are treated as vibrations and this may
      case some error
  (4) All equations used are the standard statistical mechanics
      equations for an ideal gas
  (5) All vibrations are strinctly harmonic

------------
INNER ENERGY
------------

The inner energy is: U= E(el) + E(ZPE) + E(vib) + E(rot) + E(trans)
    E(el)   - is the total energy from the electronic structure calculation
              = E(kin-el) + E(nuc-el) + E(el-el) + E(nuc-nuc)
    E(ZPE)  - the the zero temperature vibrational energy from the frequency calculation
    E(vib)  - the the finite temperature correction to E(ZPE) due to population
              of excietd vibrational states
    E(rot)  - is the rotational thermal energy
    E(trans)- is the translational thermal energy

Summary of contributions to the inner energy U:
Electronic energy                ...   -343.30475141 Eh
Zero point energy                ...      0.16342015 Eh     102.55 kcal/mol
Thermal vibrational correction   ...      0.00537212 Eh       3.37 kcal/mol
Thermal rotational correction    ...      0.00141627 Eh       0.89 kcal/mol
Thermal translational correction ...      0.00141627 Eh       0.89 kcal/mol
-----------------------------------------------------------------------
Total thermal energy                   -343.13312659 Eh

Summary of corrections to the electronic energy:
(perhaps to be used in another calculation)
Total thermal correction                  0.00820466 Eh       5.15 kcal/mol
Non-thermal (ZPE) correction              0.16342015 Eh     102.55 kcal/mol
-----------------------------------------------------------------------
Total correction                          0.17162482 Eh     107.70 kcal/mol

--------
ENTHALPY
--------

The enthalpy is H = U + kB*T
                kB is Boltzmann's constant
Total free energy                 ...   -343.13312659 Eh
Thermal Enthalpy correction       ...      0.00094421 Eh       0.59 kcal/mol
-----------------------------------------------------------------------
Total Enthalpy                    ...   -343.13218238 Eh

-------
ENTROPY
-------

The entropy contributions are T*S = T*(S(el)+S(vib)+S(rot)+S(trans)
     S(el)   - electronic entropy
     S(vib)  - vibrational entropy
     S(rot)  - rotational entropy
     S(trans)- translational entropy
The entropies will be listed as mutliplied by the temperature to get
units of energy

Electronic entropy                ...      0.00000000 Eh      0.00 kcal/mol
Vibrational entropy               ...      0.00946487 Eh      5.94 kcal/mol
Rotational entropy                ...      0.01214718 Eh      7.62 kcal/mol
Translational entropy             ...      0.01891510 Eh     11.87 kcal/mol
-----------------------------------------------------------------------
Final entropy term                ...      0.04052715 Eh     25.43 kcal/mol

CAUTION: The rotational entropy is not quite correctly treated here
         because it includes a symmetry number that is not yet correctly
         implemented in ORCA!
For a nonlinear molecule the correct rotational entropy is:
    S(rot) = R*(ln(qrot/sn)+1.5)
    R    = 8.31441 J/mol/K = 1.987191683e-3 kcal/mol/K
    qrot = 258829.1775889
    sn is the rotational symmetry number. We have assumed 3 here
       if it is different for your molecule then you should correct
       the printed rotational entropy by manually evaluating the equation
       as given above

For convenience we print out the resulting values for sn=1 - 12:
 sn= 1  qrot/sn=  258829.1776 T*S(rot)=     8.27 kcal/mol T*S(tot)=    26.08 kcal/mol
 sn= 2  qrot/sn=  129414.5888 T*S(rot)=     7.86 kcal/mol T*S(tot)=    25.67 kcal/mol
 sn= 3  qrot/sn=   86276.3925 T*S(rot)=     7.62 kcal/mol T*S(tot)=    25.43 kcal/mol
 sn= 4  qrot/sn=   64707.2944 T*S(rot)=     7.45 kcal/mol T*S(tot)=    25.26 kcal/mol
 sn= 5  qrot/sn=   51765.8355 T*S(rot)=     7.32 kcal/mol T*S(tot)=    25.13 kcal/mol
 sn= 6  qrot/sn=   43138.1963 T*S(rot)=     7.21 kcal/mol T*S(tot)=    25.02 kcal/mol
 sn= 7  qrot/sn=   36975.5968 T*S(rot)=     7.12 kcal/mol T*S(tot)=    24.93 kcal/mol
 sn= 8  qrot/sn=   32353.6472 T*S(rot)=     7.04 kcal/mol T*S(tot)=    24.85 kcal/mol
 sn= 9  qrot/sn=   28758.7975 T*S(rot)=     6.97 kcal/mol T*S(tot)=    24.78 kcal/mol
 sn=10  qrot/sn=   25882.9178 T*S(rot)=     6.91 kcal/mol T*S(tot)=    24.72 kcal/mol
 sn=11  qrot/sn=   23529.9252 T*S(rot)=     6.85 kcal/mol T*S(tot)=    24.66 kcal/mol
 sn=12  qrot/sn=   21569.0981 T*S(rot)=     6.80 kcal/mol T*S(tot)=    24.61 kcal/mol

-------------------
GIBBS FREE ENTHALPY
-------------------

The Gibbs free enthalpy is G = H - T*S

Total enthalpy                    ...   -343.13218238 Eh
Total entropy correction          ...     -0.04052715 Eh    -25.43 kcal/mol
-----------------------------------------------------------------------
Final Gibbs free enthalpy         ...   -343.17270953 Eh

For completeness - the Gibbs free enthalpy minus the electronic energy
G-E(el)                           ...      0.13204188 Eh     82.86 kcal/mol

                             ****ORCA TERMINATED NORMALLY****
TOTAL RUN TIME: 0 days 0 hours 50 minutes 33 seconds 942 msec
