                         Program Version 3.0.3 - RELEASE   -
|  1> ! NORI PBE0 def2-TZVP UseSym TightOPT Freq TightSCF Grid3 FinalGrid5 XYZFile
|  2> % pal
|  3>     nprocs 8
|  4> end
|  5> %method
|  6>     SymThresh 5.0e-2
|  7> end
|  8> % geom
|  9>     MaxIter 10
| 10> end
| 11> % maxcore 2000
| 12> % output
| 13>     printlevel mini
| 14>     print[ P_Basis ] 0
| 15>     print[ P_SCFInfo ] 1
| 16>     print[ P_SCFIterInfo ] 1
| 17>     print[ P_OrbEn ] 0
| 18>     print[ P_Cartesian ] 0
| 19> end
| 20> % elprop
| 21>     Dipole false
| 22> end
| 23> *xyz 1 1
| 24>  C        2.8397451625     1.2545697770     0.7633666520
| 25>  C        2.5921804106     0.0519421448    -0.1331270791
| 26>  C        3.1387621268    -1.2406412408     0.4524641312
| 27>  N        2.7175739410    -2.3832411634    -0.4451015274
| 28>  C        4.6561932596    -1.3328121759     0.5109012765
| 29>  O        5.0906242964    -1.4571519637    -0.8150285667
| 30>  C        6.5028167454    -1.5031768775    -0.9574677190
| 31>  H        2.3658343164     2.1379863312     0.3357119316
| 32>  H        3.9027069121     1.4775676303     0.8666017827
| 33>  H        2.4213892742     1.1059387286     1.7614830451
| 34>  H        1.5118177011    -0.0636737689    -0.2802895488
| 35>  H        3.0370305376     0.2180703811    -1.1193164245
| 36>  H        2.7079369082    -1.4289941105     1.4381663695
| 37>  H        3.3831788276    -2.3761745791    -1.2330036655
| 38>  H        1.7653744376    -2.2660287703    -0.7913044754
| 39>  H        2.7879965700    -3.2895429962     0.0190708604
| 40>  H        5.0577739289    -0.4350541609     0.9936021936
| 41>  H        4.9739740481    -2.1991301403     1.1114652164
| 42>  H        6.7127550507    -1.6159058413    -2.0188327150
| 43>  H        6.9231578665    -2.3520762210    -0.4082941050
| 44>  H        6.9552976787    -0.5757309833    -0.5939876326
| 45> *
| 46>
| 47>                          ****END OF INPUT****
 Total Charge           Charge          ....    1
 Multiplicity           Mult            ....    1
 Number of Electrons    NEL             ....   58
FINAL SINGLE POINT ENERGY      -328.429473443854
FINAL SINGLE POINT ENERGY      -328.429474609022

CARTESIAN COORDINATES (ANGSTROEM)
---------------------------------
  C     -1.490454    0.670978   -2.073172
  C     -0.140656    0.924022   -1.421648
  C      0.477579   -0.337171   -0.839261
  N      1.868251    0.000035   -0.347275
  C     -0.238440   -0.902672    0.378412
  O      0.000804   -0.001288    1.423920
  C     -0.645633   -0.343559    2.641403
  H     -1.852596    1.586796   -2.540515
  H     -2.244643    0.359286   -1.349134
  H     -1.424779   -0.093291   -2.851239
  H      0.544682    1.330056   -2.175517
  H     -0.235945    1.675843   -0.631930
  H      0.584409   -1.104460   -1.609151
  H      1.735699    0.445147    0.573728
  H      2.351542    0.639491   -0.978126
  H      2.446898   -0.830270   -0.215706
  H     -1.306486   -1.002985    0.157341
  H      0.142470   -1.904646    0.628634
  H     -0.372487    0.415265    3.371557
  H     -0.317305   -1.326683    2.994182
  H     -1.731638   -0.347892    2.510924

FINAL SINGLE POINT ENERGY      -328.429475157694
                    ***********************HURRAY********************
 Multiplicity           Mult            ....    1
 Number of Electrons    NEL             ....   58
 Basis Dimension        Dim             ....  301
FINAL SINGLE POINT ENERGY      -328.429475219177

VIBRATIONAL FREQUENCIES
-----------------------

   0:         0.00 cm**-1
   1:         0.00 cm**-1
   2:         0.00 cm**-1
   3:         0.00 cm**-1
   4:         0.00 cm**-1
   5:         0.00 cm**-1
   6:        61.71 cm**-1
   7:        89.38 cm**-1
   8:       132.79 cm**-1
   9:       197.83 cm**-1
  10:       206.87 cm**-1
  11:       235.67 cm**-1
  12:       249.13 cm**-1
  13:       257.95 cm**-1
  14:       363.22 cm**-1
  15:       376.86 cm**-1
  16:       452.55 cm**-1
  17:       605.15 cm**-1
  18:       788.48 cm**-1
  19:       823.74 cm**-1
  20:       904.10 cm**-1
  21:       947.84 cm**-1
  22:       987.53 cm**-1
  23:       993.19 cm**-1
  24:      1019.58 cm**-1
  25:      1062.61 cm**-1
  26:      1119.41 cm**-1
  27:      1132.02 cm**-1
  28:      1167.63 cm**-1
  29:      1180.18 cm**-1
  30:      1209.92 cm**-1
  31:      1233.45 cm**-1
  32:      1266.33 cm**-1
  33:      1307.12 cm**-1
  34:      1349.55 cm**-1
  35:      1384.76 cm**-1
  36:      1398.70 cm**-1
  37:      1413.96 cm**-1
  38:      1422.02 cm**-1
  39:      1460.12 cm**-1
  40:      1477.20 cm**-1
  41:      1482.55 cm**-1
  42:      1485.50 cm**-1
  43:      1491.47 cm**-1
  44:      1494.65 cm**-1
  45:      1502.45 cm**-1
  46:      1519.93 cm**-1
  47:      1634.24 cm**-1
  48:      1663.74 cm**-1
  49:      2999.50 cm**-1
  50:      3035.53 cm**-1
  51:      3037.85 cm**-1
  52:      3064.42 cm**-1
  53:      3077.10 cm**-1
  54:      3087.71 cm**-1
  55:      3107.98 cm**-1
  56:      3114.00 cm**-1
  57:      3141.06 cm**-1
  58:      3153.09 cm**-1
  59:      3174.33 cm**-1
  60:      3324.60 cm**-1
  61:      3477.38 cm**-1
  62:      3531.14 cm**-1

IR SPECTRUM
-----------

 Mode    freq (cm**-1)   T**2         TX         TY         TZ
-------------------------------------------------------------------
   6:        61.71    1.515007  ( -1.019269  -0.212338   0.656514)
   7:        89.38    4.635125  ( -1.262075   1.274298  -1.190990)
   8:       132.79    4.467086  (  1.616515  -1.219854  -0.604915)
   9:       197.83   17.913944  (  1.976160  -0.188230  -3.738089)
  10:       206.87    7.012074  (  2.346343  -1.203773  -0.240164)
  11:       235.67    3.168112  (  0.724712  -1.532950  -0.541266)
  12:       249.13    2.401064  ( -0.019569   0.732923   1.365102)
  13:       257.95    1.764903  ( -0.749672  -0.094558   1.092682)
  14:       363.22   11.527068  ( -2.029023  -1.875566   1.972912)
  15:       376.86    4.154766  (  0.050956   1.645140  -1.202366)
  16:       452.55   11.677838  (  3.336872   0.349375  -0.648894)
  17:       605.15   13.487997  ( -2.681309  -1.093081   2.259148)
  18:       788.48    2.687423  ( -0.688056   0.013038   1.487895)
  19:       823.74    3.476884  ( -1.712657  -0.701708   0.226482)
  20:       904.10    4.112255  ( -1.990097   0.357106   0.155708)
  21:       947.84    7.040838  (  0.087001   2.378993  -1.172032)
  22:       987.53   11.187716  (  1.589354   2.102790   2.059112)
  23:       993.19   24.507446  (  4.241662  -1.315067  -2.187772)
  24:      1019.58   22.245813  ( -1.509720  -3.888552   2.201301)
  25:      1062.61    2.652408  ( -1.096948  -0.175538   1.190924)
  26:      1119.41   66.377017  ( -2.123172  -1.834929   7.648673)
  27:      1132.02   13.013938  (  2.529178   0.871495  -2.420267)
  28:      1167.63  112.955618  ( -2.426402  -0.111817  10.346772)
  29:      1180.18   26.318198  (  1.695592  -1.212604  -4.687511)
  30:      1209.92    4.814925  ( -0.342182  -0.536484  -2.100005)
  31:      1233.45   22.356939  ( -0.584186  -2.276662  -4.102740)
  32:      1266.33   12.271879  (  1.759670  -2.919162  -0.808662)
  33:      1307.12    1.750886  ( -0.910538  -0.207634  -0.937387)
  34:      1349.55    4.160680  (  0.525731  -1.776594  -0.853230)
  35:      1384.76   10.156165  ( -0.836602   0.803877   2.968172)
  36:      1398.70    2.600014  ( -1.398822   0.544194  -0.589206)
  37:      1413.96    4.468711  ( -1.854276  -0.440679  -0.914425)
  38:      1422.02    7.657209  ( -2.030648  -0.096231  -1.877343)
  39:      1460.12  139.743303  ( 11.317361   3.190773   1.216388)
  40:      1477.20    1.494305  ( -0.838459   0.508702   0.729736)
  41:      1482.55   18.200687  (  4.123540   1.028322   0.373713)
  42:      1485.50   35.053847  ( -5.497457   1.714764  -1.375281)
  43:      1491.47    4.598425  ( -2.027912  -0.546875   0.432348)
  44:      1494.65   12.333094  ( -0.813862  -1.085511   3.239195)
  45:      1502.45   33.249873  (  2.340987   4.557283   2.645906)
  46:      1519.93   25.028804  ( -3.907228  -2.309464   2.104459)
  47:      1634.24   34.058187  (  2.930413  -5.039895  -0.265193)
  48:      1663.74   41.524847  ( -2.308838  -2.462959   5.488893)
  49:      2999.50   26.623091  (  1.254784  -4.943451  -0.781599)
  50:      3035.53   29.496919  (  1.910878   2.528236  -4.410611)
  51:      3037.85   15.790909  ( -3.414779  -1.813543   0.917201)
  52:      3064.42    6.729182  ( -1.791405  -1.820625  -0.453184)
  53:      3077.10   12.953457  (  3.012617  -0.300728   1.946063)
  54:      3087.71    1.171171  (  0.021046  -0.034989   1.081436)
  55:      3107.98   16.765955  (  3.282861  -2.330842   0.745626)
  56:      3114.00    3.907681  ( -0.237152   1.342560   1.431423)
  57:      3141.06   13.726788  ( -1.822027   1.056340   3.048139)
  58:      3153.09    5.425526  ( -0.604767  -1.821501   1.319817)
  59:      3174.33    4.425068  (  0.658164   1.453964   1.370356)
  60:      3324.60  116.345259  ( -2.133022   2.206403  10.340564)
  61:      3477.38  100.852779  ( -7.980709   1.963001   5.771282)
  62:      3531.14   79.645450  ( -0.368609   7.863071  -4.204960)

--------------------------
THERMOCHEMISTRY AT 298.15K
--------------------------

Temperature         ... 298.15 K
Pressure            ... 1.00 atm
Total Mass          ... 104.17 AMU

Throughout the following assumptions are being made:
  (1) The electronic state is orbitally nondegenerate
  (2) There are no thermally accessible electronically excited states
  (3) Hindered rotations indicated by low frequency modes) are not
      treated as such but are treated as vibrations and this may
      case some error
  (4) All equations used are the standard statistical mechanics
      equations for an ideal gas
  (5) All vibrations are strinctly harmonic

------------
INNER ENERGY
------------

The inner energy is: U= E(el) + E(ZPE) + E(vib) + E(rot) + E(trans)
    E(el)   - is the total energy from the electronic structure calculation
              = E(kin-el) + E(nuc-el) + E(el-el) + E(nuc-nuc)
    E(ZPE)  - the the zero temperature vibrational energy from the frequency calculation
    E(vib)  - the the finite temperature correction to E(ZPE) due to population
              of excietd vibrational states
    E(rot)  - is the rotational thermal energy
    E(trans)- is the translational thermal energy

Summary of contributions to the inner energy U:
Electronic energy                ...   -328.42947522 Eh
Zero point energy                ...      0.19792434 Eh     124.20 kcal/mol
Thermal vibrational correction   ...      0.00653522 Eh       4.10 kcal/mol
Thermal rotational correction    ...      0.00141627 Eh       0.89 kcal/mol
Thermal translational correction ...      0.00141627 Eh       0.89 kcal/mol
-----------------------------------------------------------------------
Total thermal energy                   -328.22218312 Eh

Summary of corrections to the electronic energy:
(perhaps to be used in another calculation)
Total thermal correction                  0.00936776 Eh       5.88 kcal/mol
Non-thermal (ZPE) correction              0.19792434 Eh     124.20 kcal/mol
-----------------------------------------------------------------------
Total correction                          0.20729210 Eh     130.08 kcal/mol

--------
ENTHALPY
--------

The enthalpy is H = U + kB*T
                kB is Boltzmann's constant
Total free energy                 ...   -328.22218312 Eh
Thermal Enthalpy correction       ...      0.00094421 Eh       0.59 kcal/mol
-----------------------------------------------------------------------
Total Enthalpy                    ...   -328.22123891 Eh

-------
ENTROPY
-------

The entropy contributions are T*S = T*(S(el)+S(vib)+S(rot)+S(trans)
     S(el)   - electronic entropy
     S(vib)  - vibrational entropy
     S(rot)  - rotational entropy
     S(trans)- translational entropy
The entropies will be listed as mutliplied by the temperature to get
units of energy

Electronic entropy                ...      0.00000000 Eh      0.00 kcal/mol
Vibrational entropy               ...      0.01206667 Eh      7.57 kcal/mol
Rotational entropy                ...      0.01233223 Eh      7.74 kcal/mol
Translational entropy             ...      0.01892914 Eh     11.88 kcal/mol
-----------------------------------------------------------------------
Final entropy term                ...      0.04332805 Eh     27.19 kcal/mol

CAUTION: The rotational entropy is not quite correctly treated here
         because it includes a symmetry number that is not yet correctly
         implemented in ORCA!
For a nonlinear molecule the correct rotational entropy is:
    S(rot) = R*(ln(qrot/sn)+1.5)
    R    = 8.31441 J/mol/K = 1.987191683e-3 kcal/mol/K
    qrot = 314868.9033867
    sn is the rotational symmetry number. We have assumed 3 here
       if it is different for your molecule then you should correct
       the printed rotational entropy by manually evaluating the equation
       as given above

For convenience we print out the resulting values for sn=1 - 12:
 sn= 1  qrot/sn=  314868.9034 T*S(rot)=     8.39 kcal/mol T*S(tot)=    27.84 kcal/mol
 sn= 2  qrot/sn=  157434.4517 T*S(rot)=     7.98 kcal/mol T*S(tot)=    27.43 kcal/mol
 sn= 3  qrot/sn=  104956.3011 T*S(rot)=     7.74 kcal/mol T*S(tot)=    27.19 kcal/mol
 sn= 4  qrot/sn=   78717.2258 T*S(rot)=     7.57 kcal/mol T*S(tot)=    27.02 kcal/mol
 sn= 5  qrot/sn=   62973.7807 T*S(rot)=     7.44 kcal/mol T*S(tot)=    26.89 kcal/mol
 sn= 6  qrot/sn=   52478.1506 T*S(rot)=     7.33 kcal/mol T*S(tot)=    26.78 kcal/mol
 sn= 7  qrot/sn=   44981.2719 T*S(rot)=     7.24 kcal/mol T*S(tot)=    26.69 kcal/mol
 sn= 8  qrot/sn=   39358.6129 T*S(rot)=     7.16 kcal/mol T*S(tot)=    26.61 kcal/mol
 sn= 9  qrot/sn=   34985.4337 T*S(rot)=     7.09 kcal/mol T*S(tot)=    26.54 kcal/mol
 sn=10  qrot/sn=   31486.8903 T*S(rot)=     7.03 kcal/mol T*S(tot)=    26.48 kcal/mol
 sn=11  qrot/sn=   28624.4458 T*S(rot)=     6.97 kcal/mol T*S(tot)=    26.42 kcal/mol
 sn=12  qrot/sn=   26239.0753 T*S(rot)=     6.92 kcal/mol T*S(tot)=    26.37 kcal/mol

-------------------
GIBBS FREE ENTHALPY
-------------------

The Gibbs free enthalpy is G = H - T*S

Total enthalpy                    ...   -328.22123891 Eh
Total entropy correction          ...     -0.04332805 Eh    -27.19 kcal/mol
-----------------------------------------------------------------------
Final Gibbs free enthalpy         ...   -328.26456695 Eh

For completeness - the Gibbs free enthalpy minus the electronic energy
G-E(el)                           ...      0.16490827 Eh    103.48 kcal/mol

                             ****ORCA TERMINATED NORMALLY****
TOTAL RUN TIME: 0 days 0 hours 57 minutes 22 seconds 213 msec
