                         Program Version 3.0.3 - RELEASE   -
|  1> ! NORI PBE0 def2-TZVP UseSym TightOPT Freq TightSCF Grid3 FinalGrid5 XYZFile
|  2> % pal
|  3>     nprocs 8
|  4> end
|  5> %method
|  6>     SymThresh 5.0e-2
|  7> end
|  8> % geom
|  9>     MaxIter 10
| 10> end
| 11> % maxcore 2000
| 12> % output
| 13>     printlevel mini
| 14>     print[ P_Basis ] 0
| 15>     print[ P_SCFInfo ] 1
| 16>     print[ P_SCFIterInfo ] 1
| 17>     print[ P_OrbEn ] 0
| 18>     print[ P_Cartesian ] 0
| 19> end
| 20> % elprop
| 21>     Dipole false
| 22> end
| 23> *xyz 1 1
| 24>  C        0.9014821875     0.1312481227     0.0432321250
| 25>  C        2.4184538989     0.0474961796     0.0364932857
| 26>  C        2.9426301256    -1.2941232520     0.5337883357
| 27>  N        2.9343125379     0.2779470280    -1.3661849813
| 28>  C        3.0979560700     1.1983944701     0.8150202334
| 29>  O        2.7486353178     1.4001086623     2.0631412535
| 30>  O        3.9434501329     1.8610380590     0.2744111051
| 31>  H        0.4742330413    -0.6357025900    -0.6068692864
| 32>  H        0.5416495186     1.1127985190    -0.2751073447
| 33>  H        0.5076552010    -0.0605938578     1.0425398161
| 34>  H        2.5108810240    -2.1115400290    -0.0486264015
| 35>  H        2.6550164380    -1.4522596945     1.5737139852
| 36>  H        4.0328910161    -1.3465792194     0.4811913533
| 37>  H        3.2776802651    -0.5749250474    -1.8060673845
| 38>  H        3.7106866760     0.9706659525    -1.2282530630
| 39>  H        2.2306156308     0.6992886817    -1.9732422451
| 40>  H        2.0413609184     0.8184580150     2.3678092133
| 41> *
| 42>
| 43>                          ****END OF INPUT****
 Total Charge           Charge          ....    1
 Multiplicity           Mult            ....    1
 Number of Electrons    NEL             ....   56
FINAL SINGLE POINT ENERGY      -363.152073351567
FINAL SINGLE POINT ENERGY      -363.152074419976
FINAL SINGLE POINT ENERGY      -363.152075023317

CARTESIAN COORDINATES (ANGSTROEM)
---------------------------------
  C     -1.429456    1.127203   -0.469676
  C     -0.408890    0.001042   -0.487165
  C     -1.041741   -1.376312   -0.641558
  N      0.564624    0.214772   -1.624245
  C      0.533070    0.010694    0.740010
  O     -0.001465   -0.003235    1.937849
  O      1.723947    0.003069    0.572892
  H     -1.997386    1.141321   -1.402654
  H     -0.961266    2.103245   -0.319881
  H     -2.156615    0.979419    0.330537
  H     -1.667287   -1.410678   -1.536845
  H     -1.685229   -1.596866    0.210799
  H     -0.286581   -2.163974   -0.696078
  H      0.420717   -0.436706   -2.394639
  H      1.500543    0.066110   -1.173015
  H      0.531261    1.166695   -1.989668
  H     -0.966037    0.028471    1.933097

FINAL SINGLE POINT ENERGY      -363.152075465200
                    ***********************HURRAY********************
 Multiplicity           Mult            ....    1
 Number of Electrons    NEL             ....   56
 Basis Dimension        Dim             ....  277
FINAL SINGLE POINT ENERGY      -363.152075679789

VIBRATIONAL FREQUENCIES
-----------------------

   0:         0.00 cm**-1
   1:         0.00 cm**-1
   2:         0.00 cm**-1
   3:         0.00 cm**-1
   4:         0.00 cm**-1
   5:         0.00 cm**-1
   6:        45.13 cm**-1
   7:       208.35 cm**-1
   8:       229.85 cm**-1
   9:       251.18 cm**-1
  10:       267.30 cm**-1
  11:       278.79 cm**-1
  12:       346.39 cm**-1
  13:       392.61 cm**-1
  14:       398.03 cm**-1
  15:       493.73 cm**-1
  16:       522.64 cm**-1
  17:       604.34 cm**-1
  18:       759.79 cm**-1
  19:       773.19 cm**-1
  20:       853.39 cm**-1
  21:       951.20 cm**-1
  22:       960.96 cm**-1
  23:       991.55 cm**-1
  24:      1046.80 cm**-1
  25:      1051.04 cm**-1
  26:      1189.89 cm**-1
  27:      1201.58 cm**-1
  28:      1260.22 cm**-1
  29:      1291.37 cm**-1
  30:      1377.53 cm**-1
  31:      1412.83 cm**-1
  32:      1436.91 cm**-1
  33:      1443.23 cm**-1
  34:      1470.08 cm**-1
  35:      1477.42 cm**-1
  36:      1498.85 cm**-1
  37:      1503.53 cm**-1
  38:      1624.30 cm**-1
  39:      1662.80 cm**-1
  40:      1853.36 cm**-1
  41:      3052.85 cm**-1
  42:      3057.47 cm**-1
  43:      3059.96 cm**-1
  44:      3138.88 cm**-1
  45:      3140.33 cm**-1
  46:      3144.50 cm**-1
  47:      3153.79 cm**-1
  48:      3475.21 cm**-1
  49:      3539.84 cm**-1
  50:      3820.44 cm**-1

IR SPECTRUM
-----------

 Mode    freq (cm**-1)   T**2         TX         TY         TZ
-------------------------------------------------------------------
   6:        45.13   15.219449  (  0.136180  -3.881121   0.371224)
   7:       208.35    5.534272  ( -0.115344   2.324216   0.344945)
   8:       229.85    5.726524  ( -0.126169  -0.388636  -2.357874)
   9:       251.18    3.808918  (  0.283065   1.930956  -0.014109)
  10:       267.30    3.886334  ( -0.310584   0.482492   1.886020)
  11:       278.79   14.261806  (  0.045706  -0.449651   3.749337)
  12:       346.39   11.306323  ( -0.791543  -1.014210   3.106632)
  13:       392.61    0.336399  ( -0.534472  -0.158329  -0.160220)
  14:       398.03   60.901077  (  2.277489  -0.648463   7.435968)
  15:       493.73   98.317762  (  0.122173   9.906636   0.401753)
  16:       522.64    5.583074  ( -0.908340  -0.351408   2.152790)
  17:       604.34    3.243073  ( -0.614976   0.458191  -1.629398)
  18:       759.79    7.121078  (  2.464502  -0.169701  -1.009213)
  19:       773.19    0.637474  (  0.354387   0.706444   0.113228)
  20:       853.39   20.435479  (  3.880072   0.300500   2.300049)
  21:       951.20    8.360950  ( -0.995114  -1.113991  -2.475828)
  22:       960.96    6.284475  (  1.196506  -1.111509   1.901945)
  23:       991.55    6.705827  (  0.746598  -2.154880   1.226747)
  24:      1046.80   14.555536  ( -1.998364  -0.588445  -3.196218)
  25:      1051.04    8.953251  (  1.289241  -1.327328   2.351448)
  26:      1189.89    9.375051  (  1.128521  -0.301411  -2.830308)
  27:      1201.58  121.999345  ( -3.314876  -0.836265  10.502933)
  28:      1260.22   72.833891  (  2.459483   0.529900   8.155001)
  29:      1291.37   15.225770  ( -1.891030   3.270299  -0.977201)
  30:      1377.53  356.298311  ( -6.964964  -0.288632  17.541502)
  31:      1412.83   17.782761  (  1.573788  -3.574889  -1.589377)
  32:      1436.91   72.186565  (  7.233111   1.302021  -4.263029)
  33:      1443.23  110.864652  (  4.727370   0.548244  -9.392340)
  34:      1470.08    1.535523  ( -0.694168  -0.974503   0.322487)
  35:      1477.42    4.334334  ( -0.222061   2.052415   0.269470)
  36:      1498.85   12.151575  (  2.576945   0.921878  -2.158951)
  37:      1503.53   36.327740  (  2.896702   0.126254   5.284025)
  38:      1624.30   31.581820  (  0.486791  -4.042166   3.873725)
  39:      1662.80   31.444478  (  2.230557   3.657795   3.617959)
  40:      1853.36  204.301826  ( 14.099968   0.336759  -2.319336)
  41:      3052.85  236.799253  ( 10.815385  -1.520246  10.840459)
  42:      3057.47    0.066914  ( -0.209557   0.151112   0.012832)
  43:      3059.96   31.988417  (  3.528308  -0.741873   4.357647)
  44:      3138.88    0.542027  ( -0.080536  -0.684844  -0.257932)
  45:      3140.33    2.297426  (  1.159374   0.016144   0.976226)
  46:      3144.50    2.559604  ( -0.109131   1.134007  -1.123264)
  47:      3153.79    1.661069  (  0.008537   0.360032   1.237487)
  48:      3475.21   82.669133  ( -0.633985   2.853256  -8.609653)
  49:      3539.84   89.518493  ( -0.489083  -8.872438  -3.249482)
  50:      3820.44   89.020841  ( -8.782189   0.572142   3.400978)

--------------------------
THERMOCHEMISTRY AT 298.15K
--------------------------

Temperature         ... 298.15 K
Pressure            ... 1.00 atm
Total Mass          ... 104.13 AMU

Throughout the following assumptions are being made:
  (1) The electronic state is orbitally nondegenerate
  (2) There are no thermally accessible electronically excited states
  (3) Hindered rotations indicated by low frequency modes) are not
      treated as such but are treated as vibrations and this may
      case some error
  (4) All equations used are the standard statistical mechanics
      equations for an ideal gas
  (5) All vibrations are strinctly harmonic

------------
INNER ENERGY
------------

The inner energy is: U= E(el) + E(ZPE) + E(vib) + E(rot) + E(trans)
    E(el)   - is the total energy from the electronic structure calculation
              = E(kin-el) + E(nuc-el) + E(el-el) + E(nuc-nuc)
    E(ZPE)  - the the zero temperature vibrational energy from the frequency calculation
    E(vib)  - the the finite temperature correction to E(ZPE) due to population
              of excietd vibrational states
    E(rot)  - is the rotational thermal energy
    E(trans)- is the translational thermal energy

Summary of contributions to the inner energy U:
Electronic energy                ...   -363.15207568 Eh
Zero point energy                ...      0.14970625 Eh      93.94 kcal/mol
Thermal vibrational correction   ...      0.00543267 Eh       3.41 kcal/mol
Thermal rotational correction    ...      0.00141627 Eh       0.89 kcal/mol
Thermal translational correction ...      0.00141627 Eh       0.89 kcal/mol
-----------------------------------------------------------------------
Total thermal energy                   -362.99410422 Eh

Summary of corrections to the electronic energy:
(perhaps to be used in another calculation)
Total thermal correction                  0.00826521 Eh       5.19 kcal/mol
Non-thermal (ZPE) correction              0.14970625 Eh      93.94 kcal/mol
-----------------------------------------------------------------------
Total correction                          0.15797146 Eh      99.13 kcal/mol

--------
ENTHALPY
--------

The enthalpy is H = U + kB*T
                kB is Boltzmann's constant
Total free energy                 ...   -362.99410422 Eh
Thermal Enthalpy correction       ...      0.00094421 Eh       0.59 kcal/mol
-----------------------------------------------------------------------
Total Enthalpy                    ...   -362.99316001 Eh

-------
ENTROPY
-------

The entropy contributions are T*S = T*(S(el)+S(vib)+S(rot)+S(trans)
     S(el)   - electronic entropy
     S(vib)  - vibrational entropy
     S(rot)  - rotational entropy
     S(trans)- translational entropy
The entropies will be listed as mutliplied by the temperature to get
units of energy

Electronic entropy                ...      0.00000000 Eh      0.00 kcal/mol
Vibrational entropy               ...      0.00954539 Eh      5.99 kcal/mol
Rotational entropy                ...      0.01199297 Eh      7.53 kcal/mol
Translational entropy             ...      0.01892854 Eh     11.88 kcal/mol
-----------------------------------------------------------------------
Final entropy term                ...      0.04046691 Eh     25.39 kcal/mol

CAUTION: The rotational entropy is not quite correctly treated here
         because it includes a symmetry number that is not yet correctly
         implemented in ORCA!
For a nonlinear molecule the correct rotational entropy is:
    S(rot) = R*(ln(qrot/sn)+1.5)
    R    = 8.31441 J/mol/K = 1.987191683e-3 kcal/mol/K
    qrot = 219826.8542187
    sn is the rotational symmetry number. We have assumed 3 here
       if it is different for your molecule then you should correct
       the printed rotational entropy by manually evaluating the equation
       as given above

For convenience we print out the resulting values for sn=1 - 12:
 sn= 1  qrot/sn=  219826.8542 T*S(rot)=     8.18 kcal/mol T*S(tot)=    26.04 kcal/mol
 sn= 2  qrot/sn=  109913.4271 T*S(rot)=     7.77 kcal/mol T*S(tot)=    25.63 kcal/mol
 sn= 3  qrot/sn=   73275.6181 T*S(rot)=     7.53 kcal/mol T*S(tot)=    25.39 kcal/mol
 sn= 4  qrot/sn=   54956.7136 T*S(rot)=     7.36 kcal/mol T*S(tot)=    25.22 kcal/mol
 sn= 5  qrot/sn=   43965.3708 T*S(rot)=     7.22 kcal/mol T*S(tot)=    25.09 kcal/mol
 sn= 6  qrot/sn=   36637.8090 T*S(rot)=     7.12 kcal/mol T*S(tot)=    24.98 kcal/mol
 sn= 7  qrot/sn=   31403.8363 T*S(rot)=     7.02 kcal/mol T*S(tot)=    24.89 kcal/mol
 sn= 8  qrot/sn=   27478.3568 T*S(rot)=     6.94 kcal/mol T*S(tot)=    24.81 kcal/mol
 sn= 9  qrot/sn=   24425.2060 T*S(rot)=     6.87 kcal/mol T*S(tot)=    24.74 kcal/mol
 sn=10  qrot/sn=   21982.6854 T*S(rot)=     6.81 kcal/mol T*S(tot)=    24.68 kcal/mol
 sn=11  qrot/sn=   19984.2595 T*S(rot)=     6.76 kcal/mol T*S(tot)=    24.62 kcal/mol
 sn=12  qrot/sn=   18318.9045 T*S(rot)=     6.70 kcal/mol T*S(tot)=    24.57 kcal/mol

-------------------
GIBBS FREE ENTHALPY
-------------------

The Gibbs free enthalpy is G = H - T*S

Total enthalpy                    ...   -362.99316001 Eh
Total entropy correction          ...     -0.04046691 Eh    -25.39 kcal/mol
-----------------------------------------------------------------------
Final Gibbs free enthalpy         ...   -363.03362692 Eh

For completeness - the Gibbs free enthalpy minus the electronic energy
G-E(el)                           ...      0.11844876 Eh     74.33 kcal/mol

                             ****ORCA TERMINATED NORMALLY****
TOTAL RUN TIME: 0 days 0 hours 50 minutes 23 seconds 163 msec
