                         Program Version 3.0.3 - RELEASE   -
|  1> ! NORI PBE0 def2-TZVP UseSym TightOPT Freq TightSCF Grid3 FinalGrid5 XYZFile
|  2> % pal
|  3>     nprocs 8
|  4> end
|  5> %method
|  6>     SymThresh 5.0e-2
|  7> end
|  8> % geom
|  9>     MaxIter 10
| 10> end
| 11> % maxcore 2000
| 12> % output
| 13>     printlevel mini
| 14>     print[ P_Basis ] 0
| 15>     print[ P_SCFInfo ] 1
| 16>     print[ P_SCFIterInfo ] 1
| 17>     print[ P_OrbEn ] 0
| 18>     print[ P_Cartesian ] 0
| 19> end
| 20> % elprop
| 21>     Dipole false
| 22> end
| 23> *xyz 1 1
| 24>  C        1.2341602008    -0.2916340549    -1.2126914044
| 25>  C        2.7154809205    -0.4306471995    -0.8455454371
| 26>  C        3.0111217046    -1.6569137744     0.0175257908
| 27>  N        2.4287421244    -1.4978936412     1.3857972561
| 28>  C        3.1873897569     0.8340865523    -0.1427774308
| 29>  O        3.5640074522     1.8595234443    -0.8713345388
| 30>  O        3.1799354205     0.9305908375     1.0676256767
| 31>  H        1.0734905897     0.5453330854    -1.8936994333
| 32>  H        0.6083691990    -0.1068813761    -0.3359825079
| 33>  H        0.8814916974    -1.1957710916    -1.7122917409
| 34>  H        3.2932506633    -0.5692133896    -1.7650206653
| 35>  H        4.0855518721    -1.7816502229     0.1548941812
| 36>  H        2.6109601892    -2.5620829841    -0.4389036250
| 37>  H        2.6711001374    -0.4920948456     1.6399724304
| 38>  H        2.8319836201    -2.1534661613     2.0531476193
| 39>  H        1.4166016807    -1.6162127191     1.3960251122
| 40>  H        3.5616927711     1.6711275407    -1.8182312831
| 41> *
| 42>
| 43>                          ****END OF INPUT****
 Total Charge           Charge          ....    1
 Multiplicity           Mult            ....    1
 Number of Electrons    NEL             ....   56
FINAL SINGLE POINT ENERGY      -363.160381251808
FINAL SINGLE POINT ENERGY      -363.160380221472
FINAL SINGLE POINT ENERGY      -363.160383803255
FINAL SINGLE POINT ENERGY      -363.160384239280

CARTESIAN COORDINATES (ANGSTROEM)
---------------------------------
  C     -1.388823   -1.284219   -0.357510
  C     -0.868723    0.128572   -0.070255
  C     -0.430600    0.877318   -1.328398
  N      0.807350    0.266491   -1.904436
  C      0.279013    0.056421    0.926916
  O     -0.000526   -0.006462    2.208549
  O      1.436667    0.009897    0.563977
  H     -1.765067   -1.758135    0.549878
  H     -0.606688   -1.938464   -0.751213
  H     -2.210754   -1.246467   -1.074639
  H     -1.682584    0.721247    0.359869
  H     -0.180199    1.912351   -1.093810
  H     -1.217772    0.871367   -2.082127
  H      1.417023    0.096729   -1.046916
  H      1.268784    0.886720   -2.567933
  H      0.624326   -0.620231   -2.371922
  H     -0.945259    0.067113    2.393236

FINAL SINGLE POINT ENERGY      -363.160384674715
                    ***********************HURRAY********************
 Multiplicity           Mult            ....    1
 Number of Electrons    NEL             ....   56
 Basis Dimension        Dim             ....  277
FINAL SINGLE POINT ENERGY      -363.160384930817

VIBRATIONAL FREQUENCIES
-----------------------

   0:         0.00 cm**-1
   1:         0.00 cm**-1
   2:         0.00 cm**-1
   3:         0.00 cm**-1
   4:         0.00 cm**-1
   5:         0.00 cm**-1
   6:        71.88 cm**-1
   7:       153.79 cm**-1
   8:       219.55 cm**-1
   9:       239.46 cm**-1
  10:       303.04 cm**-1
  11:       334.48 cm**-1
  12:       372.87 cm**-1
  13:       399.63 cm**-1
  14:       537.44 cm**-1
  15:       556.29 cm**-1
  16:       704.42 cm**-1
  17:       766.57 cm**-1
  18:       806.84 cm**-1
  19:       862.61 cm**-1
  20:       908.41 cm**-1
  21:       968.24 cm**-1
  22:      1023.11 cm**-1
  23:      1048.59 cm**-1
  24:      1125.28 cm**-1
  25:      1140.01 cm**-1
  26:      1189.51 cm**-1
  27:      1206.60 cm**-1
  28:      1293.50 cm**-1
  29:      1340.98 cm**-1
  30:      1351.76 cm**-1
  31:      1402.09 cm**-1
  32:      1412.28 cm**-1
  33:      1426.54 cm**-1
  34:      1474.42 cm**-1
  35:      1484.33 cm**-1
  36:      1498.08 cm**-1
  37:      1503.36 cm**-1
  38:      1633.37 cm**-1
  39:      1681.05 cm**-1
  40:      1804.89 cm**-1
  41:      2778.45 cm**-1
  42:      3059.12 cm**-1
  43:      3074.47 cm**-1
  44:      3105.12 cm**-1
  45:      3136.38 cm**-1
  46:      3150.88 cm**-1
  47:      3162.29 cm**-1
  48:      3485.07 cm**-1
  49:      3547.12 cm**-1
  50:      3818.55 cm**-1

IR SPECTRUM
-----------

 Mode    freq (cm**-1)   T**2         TX         TY         TZ
-------------------------------------------------------------------
   6:        71.88    9.938044  ( -0.099415   3.081513   0.657603)
   7:       153.79    9.663977  ( -1.574294  -2.170547  -1.572992)
   8:       219.55    3.327220  (  0.453250   1.743001  -0.289366)
   9:       239.46    9.873015  ( -0.027098   2.230235  -2.213218)
  10:       303.04   63.684877  ( -0.867435  -0.583396   7.911516)
  11:       334.48   55.774312  (  0.768751  -0.736947   7.391904)
  12:       372.87   11.622990  (  1.340882   1.265286  -2.867765)
  13:       399.63    0.283559  (  0.507487   0.130970   0.094143)
  14:       537.44   92.706603  ( -0.456733  -9.591328  -0.710229)
  15:       556.29   11.487577  (  1.417548   2.990885   0.729892)
  16:       704.42   25.683086  ( -0.407466   1.314000  -4.877547)
  17:       766.57    0.339629  (  0.292260  -0.392849  -0.316042)
  18:       806.84    5.180708  (  2.163360  -0.466870  -0.531614)
  19:       862.61   25.084068  (  2.944207   1.675230   3.689081)
  20:       908.41   19.554032  ( -0.943785  -0.018069   4.320067)
  21:       968.24    0.774598  (  0.687038  -0.286072   0.469829)
  22:      1023.11   12.669415  ( -0.346951  -0.348982  -3.525231)
  23:      1048.59   24.641465  (  0.567645  -0.740880   4.875484)
  24:      1125.28   52.404242  (  0.321160  -2.869572   6.638272)
  25:      1140.01   10.839431  (  2.085125  -0.539056   2.490202)
  26:      1189.51   25.044964  (  1.140427   1.652644  -4.584011)
  27:      1206.60   94.930742  ( -1.908330  -0.737411   9.526030)
  28:      1293.50   72.985321  (  4.097326   0.437520  -7.483703)
  29:      1340.98  118.213912  (  0.308134  -1.441122 -10.772285)
  30:      1351.76   21.339901  ( -4.584727   0.489000  -0.284715)
  31:      1402.09  119.976256  (  3.597551   0.401674 -10.337918)
  32:      1412.28   22.622108  ( -1.962189   1.740610  -3.967644)
  33:      1426.54  271.465689  ( -5.062221   2.222086  15.521016)
  34:      1474.42   95.268896  ( -8.061799   0.554660   5.474363)
  35:      1484.33   23.765960  ( -2.809624  -0.843128   3.893727)
  36:      1498.08   17.299140  ( -3.077130  -1.619422   2.282078)
  37:      1503.36   45.495094  (  4.381197  -2.707608   4.355348)
  38:      1633.37   22.019100  (  0.890595   3.712655   2.728028)
  39:      1681.05   43.234889  (  3.008747   4.659876  -3.530989)
  40:      1804.89  200.308278  (-12.379532  -0.401378   6.847945)
  41:      2778.45  680.379751  ( -7.416887   3.837990 -24.711118)
  42:      3059.12    3.612793  ( -0.452529   1.252154   1.356510)
  43:      3074.47    1.654883  (  0.127016   0.792546   1.005296)
  44:      3105.12    0.629041  ( -0.267892   0.729800   0.157057)
  45:      3136.38    5.730214  ( -1.979002   0.838974   1.053512)
  46:      3150.88    2.049311  ( -0.246174   0.414071  -1.348056)
  47:      3162.29    0.113050  (  0.284657   0.084380  -0.157801)
  48:      3485.07   82.626772  ( -2.492428   0.855899   8.699541)
  49:      3547.12   90.425081  ( -4.088723  -8.322221   2.109044)
  50:      3818.55  114.095517  (  8.532797  -0.613796  -6.396103)

--------------------------
THERMOCHEMISTRY AT 298.15K
--------------------------

Temperature         ... 298.15 K
Pressure            ... 1.00 atm
Total Mass          ... 104.13 AMU

Throughout the following assumptions are being made:
  (1) The electronic state is orbitally nondegenerate
  (2) There are no thermally accessible electronically excited states
  (3) Hindered rotations indicated by low frequency modes) are not
      treated as such but are treated as vibrations and this may
      case some error
  (4) All equations used are the standard statistical mechanics
      equations for an ideal gas
  (5) All vibrations are strinctly harmonic

------------
INNER ENERGY
------------

The inner energy is: U= E(el) + E(ZPE) + E(vib) + E(rot) + E(trans)
    E(el)   - is the total energy from the electronic structure calculation
              = E(kin-el) + E(nuc-el) + E(el-el) + E(nuc-nuc)
    E(ZPE)  - the the zero temperature vibrational energy from the frequency calculation
    E(vib)  - the the finite temperature correction to E(ZPE) due to population
              of excietd vibrational states
    E(rot)  - is the rotational thermal energy
    E(trans)- is the translational thermal energy

Summary of contributions to the inner energy U:
Electronic energy                ...   -363.16038493 Eh
Zero point energy                ...      0.15164103 Eh      95.16 kcal/mol
Thermal vibrational correction   ...      0.00493623 Eh       3.10 kcal/mol
Thermal rotational correction    ...      0.00141627 Eh       0.89 kcal/mol
Thermal translational correction ...      0.00141627 Eh       0.89 kcal/mol
-----------------------------------------------------------------------
Total thermal energy                   -363.00097513 Eh

Summary of corrections to the electronic energy:
(perhaps to be used in another calculation)
Total thermal correction                  0.00776877 Eh       4.87 kcal/mol
Non-thermal (ZPE) correction              0.15164103 Eh      95.16 kcal/mol
-----------------------------------------------------------------------
Total correction                          0.15940980 Eh     100.03 kcal/mol

--------
ENTHALPY
--------

The enthalpy is H = U + kB*T
                kB is Boltzmann's constant
Total free energy                 ...   -363.00097513 Eh
Thermal Enthalpy correction       ...      0.00094421 Eh       0.59 kcal/mol
-----------------------------------------------------------------------
Total Enthalpy                    ...   -363.00003092 Eh

-------
ENTROPY
-------

The entropy contributions are T*S = T*(S(el)+S(vib)+S(rot)+S(trans)
     S(el)   - electronic entropy
     S(vib)  - vibrational entropy
     S(rot)  - rotational entropy
     S(trans)- translational entropy
The entropies will be listed as mutliplied by the temperature to get
units of energy

Electronic entropy                ...      0.00000000 Eh      0.00 kcal/mol
Vibrational entropy               ...      0.00853061 Eh      5.35 kcal/mol
Rotational entropy                ...      0.01205941 Eh      7.57 kcal/mol
Translational entropy             ...      0.01892854 Eh     11.88 kcal/mol
-----------------------------------------------------------------------
Final entropy term                ...      0.03951856 Eh     24.80 kcal/mol

CAUTION: The rotational entropy is not quite correctly treated here
         because it includes a symmetry number that is not yet correctly
         implemented in ORCA!
For a nonlinear molecule the correct rotational entropy is:
    S(rot) = R*(ln(qrot/sn)+1.5)
    R    = 8.31441 J/mol/K = 1.987191683e-3 kcal/mol/K
    qrot = 235851.8957313
    sn is the rotational symmetry number. We have assumed 3 here
       if it is different for your molecule then you should correct
       the printed rotational entropy by manually evaluating the equation
       as given above

For convenience we print out the resulting values for sn=1 - 12:
 sn= 1  qrot/sn=  235851.8957 T*S(rot)=     8.22 kcal/mol T*S(tot)=    25.45 kcal/mol
 sn= 2  qrot/sn=  117925.9479 T*S(rot)=     7.81 kcal/mol T*S(tot)=    25.04 kcal/mol
 sn= 3  qrot/sn=   78617.2986 T*S(rot)=     7.57 kcal/mol T*S(tot)=    24.80 kcal/mol
 sn= 4  qrot/sn=   58962.9739 T*S(rot)=     7.40 kcal/mol T*S(tot)=    24.63 kcal/mol
 sn= 5  qrot/sn=   47170.3791 T*S(rot)=     7.26 kcal/mol T*S(tot)=    24.50 kcal/mol
 sn= 6  qrot/sn=   39308.6493 T*S(rot)=     7.16 kcal/mol T*S(tot)=    24.39 kcal/mol
 sn= 7  qrot/sn=   33693.1280 T*S(rot)=     7.07 kcal/mol T*S(tot)=    24.30 kcal/mol
 sn= 8  qrot/sn=   29481.4870 T*S(rot)=     6.99 kcal/mol T*S(tot)=    24.22 kcal/mol
 sn= 9  qrot/sn=   26205.7662 T*S(rot)=     6.92 kcal/mol T*S(tot)=    24.15 kcal/mol
 sn=10  qrot/sn=   23585.1896 T*S(rot)=     6.85 kcal/mol T*S(tot)=    24.08 kcal/mol
 sn=11  qrot/sn=   21441.0814 T*S(rot)=     6.80 kcal/mol T*S(tot)=    24.03 kcal/mol
 sn=12  qrot/sn=   19654.3246 T*S(rot)=     6.75 kcal/mol T*S(tot)=    23.98 kcal/mol

-------------------
GIBBS FREE ENTHALPY
-------------------

The Gibbs free enthalpy is G = H - T*S

Total enthalpy                    ...   -363.00003092 Eh
Total entropy correction          ...     -0.03951856 Eh    -24.80 kcal/mol
-----------------------------------------------------------------------
Final Gibbs free enthalpy         ...   -363.03954949 Eh

For completeness - the Gibbs free enthalpy minus the electronic energy
G-E(el)                           ...      0.12083545 Eh     75.83 kcal/mol

                             ****ORCA TERMINATED NORMALLY****
TOTAL RUN TIME: 0 days 0 hours 50 minutes 4 seconds 31 msec
