                         Program Version 3.0.3 - RELEASE   -
|  1> ! NORI PBE0 def2-TZVP UseSym TightOPT Freq TightSCF Grid3 FinalGrid5 XYZFile
|  2> % pal
|  3>     nprocs 8
|  4> end
|  5> %method
|  6>     SymThresh 5.0e-2
|  7> end
|  8> % geom
|  9>     MaxIter 10
| 10> end
| 11> % maxcore 2000
| 12> % output
| 13>     printlevel mini
| 14>     print[ P_Basis ] 0
| 15>     print[ P_SCFInfo ] 1
| 16>     print[ P_SCFIterInfo ] 1
| 17>     print[ P_OrbEn ] 0
| 18>     print[ P_Cartesian ] 0
| 19> end
| 20> % elprop
| 21>     Dipole false
| 22> end
| 23> *xyz 1 1
| 24>  C        1.6123369280    -0.0164144390     0.5229734656
| 25>  C        2.2117339580    -0.1903118787    -0.8634438744
| 26>  C        3.2253650282     0.8811982631    -1.2557813808
| 27>  N        2.6086416233     2.2477991890    -1.2877970024
| 28>  C        4.3838530974     1.0448478246    -0.2584626713
| 29>  O        5.1636875706     0.0143009514    -0.0392613996
| 30>  O        4.5423835932     2.1018439718     0.2917719870
| 31>  H        0.9077109134    -0.8235698125     0.7236061031
| 32>  H        1.0491792553     0.9161049993     0.6344499751
| 33>  H        2.3730155209    -0.0395356436     1.3067459647
| 34>  H        2.7106764305    -1.1612450024    -0.9358361342
| 35>  H        1.4308625486    -0.2185877006    -1.6300411463
| 36>  H        3.6337911427     0.6764847778    -2.2483935826
| 37>  H        3.1950472413     2.7908091528    -0.6042380478
| 38>  H        1.6396915957     2.2379330494    -0.9685824680
| 39>  H        2.6476926843     2.6870288102    -2.2063100445
| 40>  H        4.9328308686    -0.7663265126    -0.5587997436
| 41> *
| 42>
| 43>                          ****END OF INPUT****
 Total Charge           Charge          ....    1
 Multiplicity           Mult            ....    1
 Number of Electrons    NEL             ....   56
FINAL SINGLE POINT ENERGY      -363.147902683105
FINAL SINGLE POINT ENERGY      -363.147904737356

CARTESIAN COORDINATES (ANGSTROEM)
---------------------------------
  C     -1.097443    1.631732   -1.002670
  C     -1.513734    0.209665   -0.661480
  C     -0.358197   -0.722504   -0.308189
  N      0.598064   -0.887669   -1.451708
  C      0.540922   -0.202922    0.825473
  O     -0.002024    0.007524    1.999872
  O      1.706019   -0.001537    0.608449
  H     -1.980595    2.229005   -1.228813
  H     -0.453195    1.692433   -1.885504
  H     -0.573421    2.116271   -0.175779
  H     -2.204884    0.216336    0.186747
  H     -2.080549   -0.243702   -1.480889
  H     -0.733550   -1.713804   -0.041752
  H      1.514622   -0.571701   -1.043904
  H      0.356552   -0.290684   -2.243049
  H      0.675321   -1.849882   -1.777277
  H     -0.942376   -0.209525    2.038028

FINAL SINGLE POINT ENERGY      -363.147905487371
                    ***********************HURRAY********************
 Multiplicity           Mult            ....    1
 Number of Electrons    NEL             ....   56
 Basis Dimension        Dim             ....  277
FINAL SINGLE POINT ENERGY      -363.147905610024

VIBRATIONAL FREQUENCIES
-----------------------

   0:         0.00 cm**-1
   1:         0.00 cm**-1
   2:         0.00 cm**-1
   3:         0.00 cm**-1
   4:         0.00 cm**-1
   5:         0.00 cm**-1
   6:        55.59 cm**-1
   7:        94.83 cm**-1
   8:       185.18 cm**-1
   9:       228.16 cm**-1
  10:       251.87 cm**-1
  11:       303.27 cm**-1
  12:       367.51 cm**-1
  13:       450.73 cm**-1
  14:       512.03 cm**-1
  15:       522.75 cm**-1
  16:       636.49 cm**-1
  17:       746.42 cm**-1
  18:       782.58 cm**-1
  19:       833.22 cm**-1
  20:       890.82 cm**-1
  21:       973.55 cm**-1
  22:      1038.02 cm**-1
  23:      1045.17 cm**-1
  24:      1114.05 cm**-1
  25:      1129.71 cm**-1
  26:      1172.96 cm**-1
  27:      1200.73 cm**-1
  28:      1272.87 cm**-1
  29:      1311.74 cm**-1
  30:      1345.49 cm**-1
  31:      1379.92 cm**-1
  32:      1408.52 cm**-1
  33:      1432.89 cm**-1
  34:      1462.86 cm**-1
  35:      1477.25 cm**-1
  36:      1491.57 cm**-1
  37:      1497.67 cm**-1
  38:      1626.65 cm**-1
  39:      1660.91 cm**-1
  40:      1859.24 cm**-1
  41:      3024.96 cm**-1
  42:      3049.97 cm**-1
  43:      3063.60 cm**-1
  44:      3095.29 cm**-1
  45:      3102.53 cm**-1
  46:      3123.66 cm**-1
  47:      3154.82 cm**-1
  48:      3476.53 cm**-1
  49:      3542.51 cm**-1
  50:      3810.83 cm**-1

IR SPECTRUM
-----------

 Mode    freq (cm**-1)   T**2         TX         TY         TZ
-------------------------------------------------------------------
   6:        55.59   15.644872  (  0.443873  -3.637805   1.488027)
   7:        94.83    5.143034  ( -0.612342   2.183384   0.030059)
   8:       185.18    1.306146  (  0.547898  -0.452621  -0.895035)
   9:       228.16    1.990729  (  1.236858  -0.678385  -0.026537)
  10:       251.87    4.056355  ( -0.259143   1.994638  -0.103053)
  11:       303.27   31.067688  ( -0.445975   2.779303   4.810849)
  12:       367.51   61.061020  ( -2.282877  -0.482130  -7.457684)
  13:       450.73   40.088967  (  0.653386  -6.266127   0.630643)
  14:       512.03   32.836418  (  0.595992  -3.058697   4.808907)
  15:       522.75   55.338604  ( -1.972385   7.102385  -1.002211)
  16:       636.49    4.912740  (  1.503537  -0.879731   1.370471)
  17:       746.42    7.609318  (  2.001964  -1.210819  -1.461293)
  18:       782.58    7.662171  ( -2.062087  -1.249333  -1.359829)
  19:       833.22    5.532792  (  0.925699   2.082463  -0.582426)
  20:       890.82    8.370304  (  2.402660   0.597987   1.496643)
  21:       973.55    6.117785  (  2.195041  -0.927475  -0.662851)
  22:      1038.02    5.722004  (  1.125374  -1.915657   0.886452)
  23:      1045.17   35.819300  ( -2.443456  -0.909025  -5.387253)
  24:      1114.05   37.263030  (  1.827995   2.612153   5.205586)
  25:      1129.71    5.871900  (  1.702861  -1.114266  -1.315513)
  26:      1172.96   27.087908  (  2.629451  -0.936305   4.392861)
  27:      1200.73   74.998267  ( -3.524368   0.275490   7.905770)
  28:      1272.87    9.574613  (  1.594948  -0.929877  -2.483160)
  29:      1311.74   43.269410  (  0.603053  -0.690384  -6.513763)
  30:      1345.49  119.923020  ( -1.352734   2.614769  10.547801)
  31:      1379.92    8.071133  (  1.375654   0.487643  -2.437399)
  32:      1408.52  347.293004  (  7.889795  -2.244892 -16.733338)
  33:      1432.89   10.415361  ( -0.651587  -2.979025   1.056506)
  34:      1462.86   73.649425  (  7.010106  -2.148451  -4.460044)
  35:      1477.25    4.992178  (  0.043093   1.993353   1.008398)
  36:      1491.57   18.140534  (  3.740103   0.625372   1.939348)
  37:      1497.67   12.291223  ( -1.966387   0.567040   2.846579)
  38:      1626.65   43.683048  ( -1.306009  -2.228745  -6.083591)
  39:      1660.91   30.718445  (  1.187104  -5.211025   1.467802)
  40:      1859.24  190.262792  (-13.350526  -1.236266   3.240043)
  41:      3024.96  273.074344  ( 10.993627   4.803918  11.363841)
  42:      3049.97    8.435429  (  1.723291  -0.594406  -2.261057)
  43:      3063.60   10.009486  (  2.232504   2.232920  -0.198700)
  44:      3095.29    0.980894  (  0.364700  -0.191216   0.900735)
  45:      3102.53    4.056620  (  1.131682   0.273362   1.643529)
  46:      3123.66   14.742595  ( -0.538688   0.874821   3.699608)
  47:      3154.82    1.099667  ( -0.862724  -0.076010  -0.591267)
  48:      3476.53   75.938277  (  1.406696   1.450974   8.476683)
  49:      3542.51  121.922449  ( -2.417417  10.773962  -0.016820)
  50:      3810.83  101.543811  ( -9.043725  -1.121515   4.300821)

--------------------------
THERMOCHEMISTRY AT 298.15K
--------------------------

Temperature         ... 298.15 K
Pressure            ... 1.00 atm
Total Mass          ... 104.13 AMU

Throughout the following assumptions are being made:
  (1) The electronic state is orbitally nondegenerate
  (2) There are no thermally accessible electronically excited states
  (3) Hindered rotations indicated by low frequency modes) are not
      treated as such but are treated as vibrations and this may
      case some error
  (4) All equations used are the standard statistical mechanics
      equations for an ideal gas
  (5) All vibrations are strinctly harmonic

------------
INNER ENERGY
------------

The inner energy is: U= E(el) + E(ZPE) + E(vib) + E(rot) + E(trans)
    E(el)   - is the total energy from the electronic structure calculation
              = E(kin-el) + E(nuc-el) + E(el-el) + E(nuc-nuc)
    E(ZPE)  - the the zero temperature vibrational energy from the frequency calculation
    E(vib)  - the the finite temperature correction to E(ZPE) due to population
              of excietd vibrational states
    E(rot)  - is the rotational thermal energy
    E(trans)- is the translational thermal energy

Summary of contributions to the inner energy U:
Electronic energy                ...   -363.14790561 Eh
Zero point energy                ...      0.15083278 Eh      94.65 kcal/mol
Thermal vibrational correction   ...      0.00531056 Eh       3.33 kcal/mol
Thermal rotational correction    ...      0.00141627 Eh       0.89 kcal/mol
Thermal translational correction ...      0.00141627 Eh       0.89 kcal/mol
-----------------------------------------------------------------------
Total thermal energy                   -362.98892973 Eh

Summary of corrections to the electronic energy:
(perhaps to be used in another calculation)
Total thermal correction                  0.00814310 Eh       5.11 kcal/mol
Non-thermal (ZPE) correction              0.15083278 Eh      94.65 kcal/mol
-----------------------------------------------------------------------
Total correction                          0.15897588 Eh      99.76 kcal/mol

--------
ENTHALPY
--------

The enthalpy is H = U + kB*T
                kB is Boltzmann's constant
Total free energy                 ...   -362.98892973 Eh
Thermal Enthalpy correction       ...      0.00094421 Eh       0.59 kcal/mol
-----------------------------------------------------------------------
Total Enthalpy                    ...   -362.98798552 Eh

-------
ENTROPY
-------

The entropy contributions are T*S = T*(S(el)+S(vib)+S(rot)+S(trans)
     S(el)   - electronic entropy
     S(vib)  - vibrational entropy
     S(rot)  - rotational entropy
     S(trans)- translational entropy
The entropies will be listed as mutliplied by the temperature to get
units of energy

Electronic entropy                ...      0.00000000 Eh      0.00 kcal/mol
Vibrational entropy               ...      0.00970422 Eh      6.09 kcal/mol
Rotational entropy                ...      0.01208245 Eh      7.58 kcal/mol
Translational entropy             ...      0.01892854 Eh     11.88 kcal/mol
-----------------------------------------------------------------------
Final entropy term                ...      0.04071522 Eh     25.55 kcal/mol

CAUTION: The rotational entropy is not quite correctly treated here
         because it includes a symmetry number that is not yet correctly
         implemented in ORCA!
For a nonlinear molecule the correct rotational entropy is:
    S(rot) = R*(ln(qrot/sn)+1.5)
    R    = 8.31441 J/mol/K = 1.987191683e-3 kcal/mol/K
    qrot = 241678.5329991
    sn is the rotational symmetry number. We have assumed 3 here
       if it is different for your molecule then you should correct
       the printed rotational entropy by manually evaluating the equation
       as given above

For convenience we print out the resulting values for sn=1 - 12:
 sn= 1  qrot/sn=  241678.5330 T*S(rot)=     8.23 kcal/mol T*S(tot)=    26.20 kcal/mol
 sn= 2  qrot/sn=  120839.2665 T*S(rot)=     7.82 kcal/mol T*S(tot)=    25.79 kcal/mol
 sn= 3  qrot/sn=   80559.5110 T*S(rot)=     7.58 kcal/mol T*S(tot)=    25.55 kcal/mol
 sn= 4  qrot/sn=   60419.6332 T*S(rot)=     7.41 kcal/mol T*S(tot)=    25.38 kcal/mol
 sn= 5  qrot/sn=   48335.7066 T*S(rot)=     7.28 kcal/mol T*S(tot)=    25.25 kcal/mol
 sn= 6  qrot/sn=   40279.7555 T*S(rot)=     7.17 kcal/mol T*S(tot)=    25.14 kcal/mol
 sn= 7  qrot/sn=   34525.5047 T*S(rot)=     7.08 kcal/mol T*S(tot)=    25.05 kcal/mol
 sn= 8  qrot/sn=   30209.8166 T*S(rot)=     7.00 kcal/mol T*S(tot)=    24.97 kcal/mol
 sn= 9  qrot/sn=   26853.1703 T*S(rot)=     6.93 kcal/mol T*S(tot)=    24.90 kcal/mol
 sn=10  qrot/sn=   24167.8533 T*S(rot)=     6.87 kcal/mol T*S(tot)=    24.84 kcal/mol
 sn=11  qrot/sn=   21970.7757 T*S(rot)=     6.81 kcal/mol T*S(tot)=    24.78 kcal/mol
 sn=12  qrot/sn=   20139.8777 T*S(rot)=     6.76 kcal/mol T*S(tot)=    24.73 kcal/mol

-------------------
GIBBS FREE ENTHALPY
-------------------

The Gibbs free enthalpy is G = H - T*S

Total enthalpy                    ...   -362.98798552 Eh
Total entropy correction          ...     -0.04071522 Eh    -25.55 kcal/mol
-----------------------------------------------------------------------
Final Gibbs free enthalpy         ...   -363.02870073 Eh

For completeness - the Gibbs free enthalpy minus the electronic energy
G-E(el)                           ...      0.11920488 Eh     74.80 kcal/mol

                             ****ORCA TERMINATED NORMALLY****
TOTAL RUN TIME: 0 days 0 hours 46 minutes 52 seconds 547 msec
