                         Program Version 3.0.3 - RELEASE   -
|  1> ! NORI PBE0 def2-TZVP UseSym TightOPT Freq TightSCF Grid3 FinalGrid5 XYZFile
|  2> % pal
|  3>     nprocs 8
|  4> end
|  5> %method
|  6>     SymThresh 5.0e-2
|  7> end
|  8> % geom
|  9>     MaxIter 10
| 10> end
| 11> % maxcore 2000
| 12> % output
| 13>     printlevel mini
| 14>     print[ P_Basis ] 0
| 15>     print[ P_SCFInfo ] 1
| 16>     print[ P_SCFIterInfo ] 1
| 17>     print[ P_OrbEn ] 0
| 18>     print[ P_Cartesian ] 0
| 19> end
| 20> % elprop
| 21>     Dipole false
| 22> end
| 23> *xyz 1 1
| 24>  C        0.9980765044     0.0805979556     0.5764971284
| 25>  C        2.3489358966     0.0655645485    -0.1176401413
| 26>  C        2.6069648985    -1.3090674198    -0.7322226486
| 27>  N        4.0523089076    -1.5094233116    -1.0368675338
| 28>  N        2.3781264654     1.1492052737    -1.1011275618
| 29>  C        3.4125340754     1.4747343290    -1.8758722140
| 30>  O        4.4401598931     0.8074686856    -1.9975001966
| 31>  H        0.8028333902     1.0616392549     1.0130394106
| 32>  H        0.9738424183    -0.6479314742     1.3870648815
| 33>  H        0.1926672865    -0.1557676263    -0.1232625724
| 34>  H        3.1316729958     0.2655331642     0.6265110762
| 35>  H        2.2848982824    -2.0889265551    -0.0423101869
| 36>  H        2.0522699221    -1.4205842646    -1.6646319737
| 37>  H        4.5935473363    -1.6951063094    -0.1942264126
| 38>  H        4.3924653020    -0.5603923402    -1.4799834600
| 39>  H        4.2044626355    -2.2843000693    -1.6802949795
| 40>  H        1.6036612338     1.7963417074    -1.0829498409
| 41>  H        3.2876725560     2.4104644516    -2.4333227745
| 42> *
| 43>
| 44>                          ****END OF INPUT****
 Total Charge           Charge          ....    1
 Multiplicity           Mult            ....    1
 Number of Electrons    NEL             ....   56
FINAL SINGLE POINT ENERGY      -343.303282503212
FINAL SINGLE POINT ENERGY      -343.303269857010
FINAL SINGLE POINT ENERGY      -343.303282999847
FINAL SINGLE POINT ENERGY      -343.303274319753
FINAL SINGLE POINT ENERGY      -343.303284057748

CARTESIAN COORDINATES (ANGSTROEM)
---------------------------------
  C     -0.819288   -0.330140   -2.262141
  C     -0.220175   -0.384855   -0.867679
  C      1.103945    0.376775   -0.836160
  N      1.922846   -0.000703    0.350577
  N     -1.205018    0.134250    0.082745
  C     -1.053390    0.207723    1.404906
  O      0.001663    0.005531    2.006309
  H     -1.768841   -0.867125   -2.292533
  H     -0.153467   -0.802149   -2.984483
  H     -0.992334    0.701919   -2.577272
  H     -0.022781   -1.434104   -0.607847
  H      1.676088    0.159985   -1.737891
  H      0.926112    1.451835   -0.789019
  H      2.355788   -0.915254    0.234274
  H      1.213928   -0.043294    1.193295
  H      2.664366    0.672555    0.534817
  H     -2.131607    0.307148   -0.277727
  H     -1.962667    0.480623    1.953147

FINAL SINGLE POINT ENERGY      -343.303284111844
                    ***********************HURRAY********************
 Multiplicity           Mult            ....    1
 Number of Electrons    NEL             ....   56
 Basis Dimension        Dim             ....  283
FINAL SINGLE POINT ENERGY      -343.303284139101

VIBRATIONAL FREQUENCIES
-----------------------

   0:         0.00 cm**-1
   1:         0.00 cm**-1
   2:         0.00 cm**-1
   3:         0.00 cm**-1
   4:         0.00 cm**-1
   5:         0.00 cm**-1
   6:        84.56 cm**-1
   7:       158.88 cm**-1
   8:       237.49 cm**-1
   9:       287.50 cm**-1
  10:       305.10 cm**-1
  11:       345.68 cm**-1
  12:       381.40 cm**-1
  13:       439.74 cm**-1
  14:       485.33 cm**-1
  15:       499.23 cm**-1
  16:       602.46 cm**-1
  17:       764.67 cm**-1
  18:       860.06 cm**-1
  19:       901.36 cm**-1
  20:       938.51 cm**-1
  21:      1012.51 cm**-1
  22:      1034.31 cm**-1
  23:      1054.62 cm**-1
  24:      1090.63 cm**-1
  25:      1160.73 cm**-1
  26:      1171.07 cm**-1
  27:      1208.29 cm**-1
  28:      1272.86 cm**-1
  29:      1323.19 cm**-1
  30:      1348.67 cm**-1
  31:      1362.04 cm**-1
  32:      1414.10 cm**-1
  33:      1415.66 cm**-1
  34:      1426.47 cm**-1
  35:      1476.48 cm**-1
  36:      1491.45 cm**-1
  37:      1495.85 cm**-1
  38:      1522.96 cm**-1
  39:      1560.45 cm**-1
  40:      1632.33 cm**-1
  41:      1674.21 cm**-1
  42:      1734.57 cm**-1
  43:      2255.50 cm**-1
  44:      3022.48 cm**-1
  45:      3063.66 cm**-1
  46:      3095.27 cm**-1
  47:      3103.70 cm**-1
  48:      3142.85 cm**-1
  49:      3157.34 cm**-1
  50:      3164.00 cm**-1
  51:      3486.22 cm**-1
  52:      3551.28 cm**-1
  53:      3622.05 cm**-1

IR SPECTRUM
-----------

 Mode    freq (cm**-1)   T**2         TX         TY         TZ
-------------------------------------------------------------------
   6:        84.56   14.959841  (  0.775601   3.787420   0.117195)
   7:       158.88    1.556863  ( -0.995380   0.633216   0.406348)
   8:       237.49    0.090150  ( -0.110777   0.118416  -0.252698)
   9:       287.50   12.895137  ( -1.208801  -3.236995  -0.977652)
  10:       305.10   22.659478  (  1.884073  -4.297565   0.800427)
  11:       345.68    4.424947  ( -1.951283  -0.777483  -0.113858)
  12:       381.40  142.900426  (-10.005585  -1.947046   6.244815)
  13:       439.74   10.402065  (  2.772316  -1.423422  -0.830782)
  14:       485.33   26.099464  ( -3.888318   2.907291   1.590002)
  15:       499.23   33.167788  ( -4.599777  -2.630173   2.256553)
  16:       602.46   37.768780  ( -0.218610   6.046150  -1.079379)
  17:       764.67   24.924627  ( -3.290682  -0.183688   3.749973)
  18:       860.06    0.974699  ( -0.455180   0.142873   0.864348)
  19:       901.36    6.070554  ( -1.417658   1.279333   1.556954)
  20:       938.51    3.699610  ( -1.703059  -0.276618   0.850108)
  21:      1012.51    8.591696  (  0.363831   2.800014   0.786921)
  22:      1034.31    5.011637  ( -1.773944   1.365541   0.007757)
  23:      1054.62    1.013814  ( -0.131267  -0.847242  -0.527981)
  24:      1090.63   43.371255  ( -5.751489  -0.791789   3.108811)
  25:      1160.73   18.077865  (  1.559895   1.029983  -3.818865)
  26:      1171.07   10.100567  (  1.214446   0.739967  -2.842206)
  27:      1208.29   12.138715  (  2.595683   1.096179  -2.049277)
  28:      1272.86   26.495490  ( -0.566364  -0.447312  -5.096532)
  29:      1323.19   36.386733  (  5.060240   0.613534   3.225566)
  30:      1348.67   16.921047  ( -4.067730  -0.608356   0.067240)
  31:      1362.04   51.790518  (  6.506169  -0.643279   3.007737)
  32:      1414.10   12.636747  ( -3.275238  -0.028699   1.381571)
  33:      1415.66   41.872541  ( -1.958153   0.040744  -6.167375)
  34:      1426.47   22.380739  ( -3.675897   0.088928   2.976678)
  35:      1476.48   71.215328  ( -7.728556   2.087581  -2.669598)
  36:      1491.45   23.595291  ( -2.501212   4.101775   0.717405)
  37:      1495.85    5.847815  ( -0.073126  -1.183992  -2.107281)
  38:      1522.96  392.727049  (-19.135242  -0.107576  -5.153443)
  39:      1560.45  167.919402  ( -8.867762   2.514233   9.108283)
  40:      1632.33    9.019875  ( -0.774659  -2.514837   1.447540)
  41:      1674.21   27.368011  ( -1.637485  -4.961855   0.258169)
  42:      1734.57  204.785035  ( 11.375880  -0.844465   8.640675)
  43:      2255.50  1276.762867  (-26.364494   0.063079  24.117884)
  44:      3022.48    9.143749  ( -1.812872   2.419508   0.056791)
  45:      3063.66    2.225001  (  0.813336  -0.896879   0.871259)
  46:      3095.27    9.214700  ( -2.914733   0.759078   0.377928)
  47:      3103.70    1.236636  ( -0.423742   0.574508  -0.852654)
  48:      3142.85    3.822209  ( -0.550678  -1.859117   0.250289)
  49:      3157.34    2.237410  ( -1.356978   0.337723   0.531004)
  50:      3164.00    1.427417  ( -0.769984   0.556068   0.724797)
  51:      3486.22   71.763061  (  8.361310  -1.139057   0.744382)
  52:      3551.28   75.734909  (  1.978386   8.317815   1.623221)
  53:      3622.05   71.163399  (  7.050097  -1.147377   4.488101)

--------------------------
THERMOCHEMISTRY AT 298.15K
--------------------------

Temperature         ... 298.15 K
Pressure            ... 1.00 atm
Total Mass          ... 103.14 AMU

Throughout the following assumptions are being made:
  (1) The electronic state is orbitally nondegenerate
  (2) There are no thermally accessible electronically excited states
  (3) Hindered rotations indicated by low frequency modes) are not
      treated as such but are treated as vibrations and this may
      case some error
  (4) All equations used are the standard statistical mechanics
      equations for an ideal gas
  (5) All vibrations are strinctly harmonic

------------
INNER ENERGY
------------

The inner energy is: U= E(el) + E(ZPE) + E(vib) + E(rot) + E(trans)
    E(el)   - is the total energy from the electronic structure calculation
              = E(kin-el) + E(nuc-el) + E(el-el) + E(nuc-nuc)
    E(ZPE)  - the the zero temperature vibrational energy from the frequency calculation
    E(vib)  - the the finite temperature correction to E(ZPE) due to population
              of excietd vibrational states
    E(rot)  - is the rotational thermal energy
    E(trans)- is the translational thermal energy

Summary of contributions to the inner energy U:
Electronic energy                ...   -343.30328414 Eh
Zero point energy                ...      0.16366303 Eh     102.70 kcal/mol
Thermal vibrational correction   ...      0.00485438 Eh       3.05 kcal/mol
Thermal rotational correction    ...      0.00141627 Eh       0.89 kcal/mol
Thermal translational correction ...      0.00141627 Eh       0.89 kcal/mol
-----------------------------------------------------------------------
Total thermal energy                   -343.13193419 Eh

Summary of corrections to the electronic energy:
(perhaps to be used in another calculation)
Total thermal correction                  0.00768692 Eh       4.82 kcal/mol
Non-thermal (ZPE) correction              0.16366303 Eh     102.70 kcal/mol
-----------------------------------------------------------------------
Total correction                          0.17134995 Eh     107.52 kcal/mol

--------
ENTHALPY
--------

The enthalpy is H = U + kB*T
                kB is Boltzmann's constant
Total free energy                 ...   -343.13193419 Eh
Thermal Enthalpy correction       ...      0.00094421 Eh       0.59 kcal/mol
-----------------------------------------------------------------------
Total Enthalpy                    ...   -343.13098998 Eh

-------
ENTROPY
-------

The entropy contributions are T*S = T*(S(el)+S(vib)+S(rot)+S(trans)
     S(el)   - electronic entropy
     S(vib)  - vibrational entropy
     S(rot)  - rotational entropy
     S(trans)- translational entropy
The entropies will be listed as mutliplied by the temperature to get
units of energy

Electronic entropy                ...      0.00000000 Eh      0.00 kcal/mol
Vibrational entropy               ...      0.00818232 Eh      5.13 kcal/mol
Rotational entropy                ...      0.01212401 Eh      7.61 kcal/mol
Translational entropy             ...      0.01891510 Eh     11.87 kcal/mol
-----------------------------------------------------------------------
Final entropy term                ...      0.03922143 Eh     24.61 kcal/mol

CAUTION: The rotational entropy is not quite correctly treated here
         because it includes a symmetry number that is not yet correctly
         implemented in ORCA!
For a nonlinear molecule the correct rotational entropy is:
    S(rot) = R*(ln(qrot/sn)+1.5)
    R    = 8.31441 J/mol/K = 1.987191683e-3 kcal/mol/K
    qrot = 252555.2995385
    sn is the rotational symmetry number. We have assumed 3 here
       if it is different for your molecule then you should correct
       the printed rotational entropy by manually evaluating the equation
       as given above

For convenience we print out the resulting values for sn=1 - 12:
 sn= 1  qrot/sn=  252555.2995 T*S(rot)=     8.26 kcal/mol T*S(tot)=    25.26 kcal/mol
 sn= 2  qrot/sn=  126277.6498 T*S(rot)=     7.85 kcal/mol T*S(tot)=    24.85 kcal/mol
 sn= 3  qrot/sn=   84185.0998 T*S(rot)=     7.61 kcal/mol T*S(tot)=    24.61 kcal/mol
 sn= 4  qrot/sn=   63138.8249 T*S(rot)=     7.44 kcal/mol T*S(tot)=    24.44 kcal/mol
 sn= 5  qrot/sn=   50511.0599 T*S(rot)=     7.31 kcal/mol T*S(tot)=    24.31 kcal/mol
 sn= 6  qrot/sn=   42092.5499 T*S(rot)=     7.20 kcal/mol T*S(tot)=    24.20 kcal/mol
 sn= 7  qrot/sn=   36079.3285 T*S(rot)=     7.11 kcal/mol T*S(tot)=    24.11 kcal/mol
 sn= 8  qrot/sn=   31569.4124 T*S(rot)=     7.03 kcal/mol T*S(tot)=    24.03 kcal/mol
 sn= 9  qrot/sn=   28061.6999 T*S(rot)=     6.96 kcal/mol T*S(tot)=    23.96 kcal/mol
 sn=10  qrot/sn=   25255.5300 T*S(rot)=     6.89 kcal/mol T*S(tot)=    23.90 kcal/mol
 sn=11  qrot/sn=   22959.5727 T*S(rot)=     6.84 kcal/mol T*S(tot)=    23.84 kcal/mol
 sn=12  qrot/sn=   21046.2750 T*S(rot)=     6.79 kcal/mol T*S(tot)=    23.79 kcal/mol

-------------------
GIBBS FREE ENTHALPY
-------------------

The Gibbs free enthalpy is G = H - T*S

Total enthalpy                    ...   -343.13098998 Eh
Total entropy correction          ...     -0.03922143 Eh    -24.61 kcal/mol
-----------------------------------------------------------------------
Final Gibbs free enthalpy         ...   -343.17021141 Eh

For completeness - the Gibbs free enthalpy minus the electronic energy
G-E(el)                           ...      0.13307273 Eh     83.50 kcal/mol

                             ****ORCA TERMINATED NORMALLY****
TOTAL RUN TIME: 0 days 0 hours 56 minutes 42 seconds 371 msec
