                         Program Version 3.0.3 - RELEASE   -
|  1> ! NORI PBE0 def2-TZVP UseSym TightOPT Freq TightSCF Grid3 FinalGrid5 XYZFile
|  2> % pal
|  3>     nprocs 8
|  4> end
|  5> %method
|  6>     SymThresh 5.0e-2
|  7> end
|  8> % geom
|  9>     MaxIter 10
| 10> end
| 11> % maxcore 2000
| 12> % output
| 13>     printlevel mini
| 14>     print[ P_Basis ] 0
| 15>     print[ P_SCFInfo ] 1
| 16>     print[ P_SCFIterInfo ] 1
| 17>     print[ P_OrbEn ] 0
| 18>     print[ P_Cartesian ] 0
| 19> end
| 20> % elprop
| 21>     Dipole false
| 22> end
| 23> *xyz 1 1
| 24>  C        1.0287651627     0.4083745654    -0.1021325892
| 25>  C        2.5020959315     0.2221176903     0.1763979537
| 26>  C        2.7668484307     0.0631738694     1.6639135657
| 27>  N        4.1832512582    -0.3959018025     1.8332227266
| 28>  O        3.0315208548    -0.9685877597    -0.3878482433
| 29>  C        3.1848574768    -0.9731298350    -1.7591512242
| 30>  C        3.1970157579    -2.0956624048    -2.4492054422
| 31>  H        0.8585015577     0.5109708673    -1.1742624359
| 32>  H        0.6540093730     1.3118828783     0.3841962695
| 33>  H        0.4574704294    -0.4508595983     0.2551511562
| 34>  H        3.0694733619     1.0834819699    -0.2098284393
| 35>  H        2.1329996344    -0.7203830915     2.0805322401
| 36>  H        2.6198505848     0.9878838190     2.2192553085
| 37>  H        4.3333620599    -1.0916055010     1.0841015070
| 38>  H        4.3587368170    -0.8172939627     2.7453439083
| 39>  H        4.8525399154     0.3629773942     1.6963636951
| 40>  H        3.3314797396     0.0097359030    -2.1998453864
| 41>  H        3.0347666345    -3.0583578742    -1.9810689475
| 42>  H        3.3798250198    -2.0625771271    -3.5141556228
| 43> *
| 44>
| 45>                          ****END OF INPUT****
 Total Charge           Charge          ....    1
 Multiplicity           Mult            ....    1
 Number of Electrons    NEL             ....   56
FINAL SINGLE POINT ENERGY      -327.200827229318
FINAL SINGLE POINT ENERGY      -327.200828411976

CARTESIAN COORDINATES (ANGSTROEM)
---------------------------------
  C     -1.481317    0.657324   -1.269697
  C     -0.226251   -0.064651   -0.838758
  C      1.014168    0.581312   -1.432615
  N      2.211260    0.001128   -0.741937
  O      0.001152   -0.003339    0.561306
  C     -0.838410   -0.767186    1.345833
  C     -1.068954   -0.465321    2.607868
  H     -2.357732    0.185868   -0.824096
  H     -1.596487    0.619286   -2.355202
  H     -1.454444    1.700982   -0.950666
  H     -0.276283   -1.120899   -1.146325
  H      1.021520    1.651394   -1.223077
  H      1.102634    0.417083   -2.505125
  H      1.944243   -0.063602    0.253925
  H      3.047509    0.575596   -0.845291
  H      2.426852   -0.940794   -1.071822
  H     -1.250028   -1.641978    0.848229
  H     -0.653592    0.421071    3.070675
  H     -1.685918   -1.120598    3.206558

FINAL SINGLE POINT ENERGY      -327.200828850498
                    ***********************HURRAY********************
 Multiplicity           Mult            ....    1
 Number of Electrons    NEL             ....   56
 Basis Dimension        Dim             ....  289
FINAL SINGLE POINT ENERGY      -327.200828986648

VIBRATIONAL FREQUENCIES
-----------------------

   0:         0.00 cm**-1
   1:         0.00 cm**-1
   2:         0.00 cm**-1
   3:         0.00 cm**-1
   4:         0.00 cm**-1
   5:         0.00 cm**-1
   6:        58.93 cm**-1
   7:       108.88 cm**-1
   8:       142.09 cm**-1
   9:       187.89 cm**-1
  10:       220.71 cm**-1
  11:       252.56 cm**-1
  12:       257.71 cm**-1
  13:       387.55 cm**-1
  14:       472.91 cm**-1
  15:       495.14 cm**-1
  16:       506.36 cm**-1
  17:       720.55 cm**-1
  18:       809.84 cm**-1
  19:       872.02 cm**-1
  20:       900.80 cm**-1
  21:       930.11 cm**-1
  22:       973.81 cm**-1
  23:       977.14 cm**-1
  24:       984.19 cm**-1
  25:      1012.38 cm**-1
  26:      1068.94 cm**-1
  27:      1141.26 cm**-1
  28:      1172.80 cm**-1
  29:      1177.55 cm**-1
  30:      1226.43 cm**-1
  31:      1339.19 cm**-1
  32:      1339.81 cm**-1
  33:      1352.54 cm**-1
  34:      1374.72 cm**-1
  35:      1413.09 cm**-1
  36:      1417.31 cm**-1
  37:      1425.27 cm**-1
  38:      1470.81 cm**-1
  39:      1476.12 cm**-1
  40:      1487.73 cm**-1
  41:      1491.50 cm**-1
  42:      1638.91 cm**-1
  43:      1669.87 cm**-1
  44:      1732.70 cm**-1
  45:      2996.75 cm**-1
  46:      3064.47 cm**-1
  47:      3111.47 cm**-1
  48:      3145.63 cm**-1
  49:      3155.92 cm**-1
  50:      3168.37 cm**-1
  51:      3180.22 cm**-1
  52:      3189.20 cm**-1
  53:      3285.48 cm**-1
  54:      3305.30 cm**-1
  55:      3476.46 cm**-1
  56:      3531.03 cm**-1

IR SPECTRUM
-----------

 Mode    freq (cm**-1)   T**2         TX         TY         TZ
-------------------------------------------------------------------
   6:        58.93    0.960432  ( -0.043182   0.640441  -0.740542)
   7:       108.88    5.170442  ( -0.187582   2.205432  -0.520888)
   8:       142.09   13.493191  (  1.908593  -1.564877  -2.720592)
   9:       187.89   11.585151  ( -2.369477  -0.694923   2.342608)
  10:       220.71    3.392918  (  1.389701  -0.063351  -1.207326)
  11:       252.56    0.977657  ( -0.869798  -0.341586  -0.323151)
  12:       257.71   13.194092  ( -2.785484  -1.148936   2.028575)
  13:       387.55   45.391263  (  6.634783  -0.530413  -1.043828)
  14:       472.91    0.333697  ( -0.202892  -0.489579   0.229878)
  15:       495.14    0.211711  ( -0.074676   0.238261   0.386479)
  16:       506.36    2.679890  ( -0.909675  -1.280560   0.461029)
  17:       720.55    8.773920  ( -2.758336   0.604771  -0.894290)
  18:       809.84   18.663482  ( -3.590517  -0.609376   2.323861)
  19:       872.02    4.526795  ( -0.231650   1.098787   1.807153)
  20:       900.80    7.358284  (  1.158906  -0.773246  -2.327512)
  21:       930.11   45.637766  ( -5.612162   3.445502  -1.506625)
  22:       973.81   19.646221  ( -2.478658   2.583209  -2.613332)
  23:       977.14   23.280180  ( -4.633114   0.567958   1.221417)
  24:       984.19    9.565547  ( -0.738828   2.742492  -1.224100)
  25:      1012.38   13.198871  ( -2.789418  -2.029692  -1.139460)
  26:      1068.94  107.687057  (  4.265066   1.805103  -9.286435)
  27:      1141.26    5.504359  ( -1.123687   1.289622  -1.605790)
  28:      1172.80  197.355618  ( -6.931961  -4.466557  11.373363)
  29:      1177.55   54.890006  ( -2.268136  -1.081421  -6.969655)
  30:      1226.43   93.140504  (  3.996331   2.246592  -8.492507)
  31:      1339.19    0.871482  (  0.664325  -0.096360   0.648744)
  32:      1339.81   14.112452  (  0.390773  -1.860981  -3.239830)
  33:      1352.54    9.468579  ( -2.003744  -1.889478   1.372393)
  34:      1374.72   30.542441  ( -0.790700  -2.833667   4.678415)
  35:      1413.09   17.899948  (  4.047529  -0.461707   1.142051)
  36:      1417.31    8.747187  (  0.037280  -2.218590   1.955417)
  37:      1425.27    5.410504  (  1.946551  -0.586971   1.130004)
  38:      1470.81  150.328094  (-11.466149   2.866940  -3.261314)
  39:      1476.12   11.914297  ( -2.885976   1.869042   0.303518)
  40:      1487.73   22.856023  (  3.872109   2.727899   0.649127)
  41:      1491.50    5.529943  (  1.185815   1.318292  -1.544633)
  42:      1638.91   29.931121  ( -1.217915   4.842127   2.236427)
  43:      1669.87   37.560943  ( -4.252006  -3.417975   2.792639)
  44:      1732.70  111.115569  (  3.024824   0.873168 -10.059999)
  45:      2996.75   24.425406  ( -1.176888   3.933557   2.750903)
  46:      3064.47    1.152225  ( -0.092455   0.838447  -0.663840)
  47:      3111.47    0.499600  (  0.133959   0.619171  -0.313500)
  48:      3145.63    4.309881  ( -0.106094   1.097086   1.759269)
  49:      3155.92    1.915463  (  0.407686   1.203118  -0.549330)
  50:      3168.37    6.737117  (  1.412855   1.886353  -1.087488)
  51:      3180.22    0.352636  (  0.172385  -0.106393  -0.558212)
  52:      3189.20    3.961747  ( -0.574252   0.149300   1.899919)
  53:      3285.48    0.284163  (  0.262499   0.298233  -0.355407)
  54:      3305.30  155.806880  (  5.696349   1.468022 -11.009241)
  55:      3476.46  124.958681  ( -9.198657   2.843495   5.679606)
  56:      3531.03  104.235802  (  5.425823   8.636228   0.460241)

--------------------------
THERMOCHEMISTRY AT 298.15K
--------------------------

Temperature         ... 298.15 K
Pressure            ... 1.00 atm
Total Mass          ... 102.16 AMU

Throughout the following assumptions are being made:
  (1) The electronic state is orbitally nondegenerate
  (2) There are no thermally accessible electronically excited states
  (3) Hindered rotations indicated by low frequency modes) are not
      treated as such but are treated as vibrations and this may
      case some error
  (4) All equations used are the standard statistical mechanics
      equations for an ideal gas
  (5) All vibrations are strinctly harmonic

------------
INNER ENERGY
------------

The inner energy is: U= E(el) + E(ZPE) + E(vib) + E(rot) + E(trans)
    E(el)   - is the total energy from the electronic structure calculation
              = E(kin-el) + E(nuc-el) + E(el-el) + E(nuc-nuc)
    E(ZPE)  - the the zero temperature vibrational energy from the frequency calculation
    E(vib)  - the the finite temperature correction to E(ZPE) due to population
              of excietd vibrational states
    E(rot)  - is the rotational thermal energy
    E(trans)- is the translational thermal energy

Summary of contributions to the inner energy U:
Electronic energy                ...   -327.20082899 Eh
Zero point energy                ...      0.17382057 Eh     109.07 kcal/mol
Thermal vibrational correction   ...      0.00595713 Eh       3.74 kcal/mol
Thermal rotational correction    ...      0.00141627 Eh       0.89 kcal/mol
Thermal translational correction ...      0.00141627 Eh       0.89 kcal/mol
-----------------------------------------------------------------------
Total thermal energy                   -327.01821875 Eh

Summary of corrections to the electronic energy:
(perhaps to be used in another calculation)
Total thermal correction                  0.00878967 Eh       5.52 kcal/mol
Non-thermal (ZPE) correction              0.17382057 Eh     109.07 kcal/mol
-----------------------------------------------------------------------
Total correction                          0.18261024 Eh     114.59 kcal/mol

--------
ENTHALPY
--------

The enthalpy is H = U + kB*T
                kB is Boltzmann's constant
Total free energy                 ...   -327.01821875 Eh
Thermal Enthalpy correction       ...      0.00094421 Eh       0.59 kcal/mol
-----------------------------------------------------------------------
Total Enthalpy                    ...   -327.01727454 Eh

-------
ENTROPY
-------

The entropy contributions are T*S = T*(S(el)+S(vib)+S(rot)+S(trans)
     S(el)   - electronic entropy
     S(vib)  - vibrational entropy
     S(rot)  - rotational entropy
     S(trans)- translational entropy
The entropies will be listed as mutliplied by the temperature to get
units of energy

Electronic entropy                ...      0.00000000 Eh      0.00 kcal/mol
Vibrational entropy               ...      0.01090677 Eh      6.84 kcal/mol
Rotational entropy                ...      0.01227329 Eh      7.70 kcal/mol
Translational entropy             ...      0.01890147 Eh     11.86 kcal/mol
-----------------------------------------------------------------------
Final entropy term                ...      0.04208153 Eh     26.41 kcal/mol

CAUTION: The rotational entropy is not quite correctly treated here
         because it includes a symmetry number that is not yet correctly
         implemented in ORCA!
For a nonlinear molecule the correct rotational entropy is:
    S(rot) = R*(ln(qrot/sn)+1.5)
    R    = 8.31441 J/mol/K = 1.987191683e-3 kcal/mol/K
    qrot = 295813.2953241
    sn is the rotational symmetry number. We have assumed 3 here
       if it is different for your molecule then you should correct
       the printed rotational entropy by manually evaluating the equation
       as given above

For convenience we print out the resulting values for sn=1 - 12:
 sn= 1  qrot/sn=  295813.2953 T*S(rot)=     8.35 kcal/mol T*S(tot)=    27.06 kcal/mol
 sn= 2  qrot/sn=  147906.6477 T*S(rot)=     7.94 kcal/mol T*S(tot)=    26.65 kcal/mol
 sn= 3  qrot/sn=   98604.4318 T*S(rot)=     7.70 kcal/mol T*S(tot)=    26.41 kcal/mol
 sn= 4  qrot/sn=   73953.3238 T*S(rot)=     7.53 kcal/mol T*S(tot)=    26.24 kcal/mol
 sn= 5  qrot/sn=   59162.6591 T*S(rot)=     7.40 kcal/mol T*S(tot)=    26.10 kcal/mol
 sn= 6  qrot/sn=   49302.2159 T*S(rot)=     7.29 kcal/mol T*S(tot)=    26.00 kcal/mol
 sn= 7  qrot/sn=   42259.0422 T*S(rot)=     7.20 kcal/mol T*S(tot)=    25.90 kcal/mol
 sn= 8  qrot/sn=   36976.6619 T*S(rot)=     7.12 kcal/mol T*S(tot)=    25.83 kcal/mol
 sn= 9  qrot/sn=   32868.1439 T*S(rot)=     7.05 kcal/mol T*S(tot)=    25.76 kcal/mol
 sn=10  qrot/sn=   29581.3295 T*S(rot)=     6.99 kcal/mol T*S(tot)=    25.69 kcal/mol
 sn=11  qrot/sn=   26892.1178 T*S(rot)=     6.93 kcal/mol T*S(tot)=    25.64 kcal/mol
 sn=12  qrot/sn=   24651.1079 T*S(rot)=     6.88 kcal/mol T*S(tot)=    25.59 kcal/mol

-------------------
GIBBS FREE ENTHALPY
-------------------

The Gibbs free enthalpy is G = H - T*S

Total enthalpy                    ...   -327.01727454 Eh
Total entropy correction          ...     -0.04208153 Eh    -26.41 kcal/mol
-----------------------------------------------------------------------
Final Gibbs free enthalpy         ...   -327.05935607 Eh

For completeness - the Gibbs free enthalpy minus the electronic energy
G-E(el)                           ...      0.14147292 Eh     88.78 kcal/mol

                             ****ORCA TERMINATED NORMALLY****
TOTAL RUN TIME: 0 days 0 hours 50 minutes 6 seconds 540 msec
