                         Program Version 3.0.3 - RELEASE   -
|  1> ! NORI PBE0 def2-TZVP UseSym TightOPT Freq TightSCF Grid3 FinalGrid5 XYZFile
|  2> % pal
|  3>     nprocs 8
|  4> end
|  5> %method
|  6>     SymThresh 5.0e-2
|  7> end
|  8> % geom
|  9>     MaxIter 10
| 10> end
| 11> % maxcore 2000
| 12> % output
| 13>     printlevel mini
| 14>     print[ P_Basis ] 0
| 15>     print[ P_SCFInfo ] 1
| 16>     print[ P_SCFIterInfo ] 1
| 17>     print[ P_OrbEn ] 0
| 18>     print[ P_Cartesian ] 0
| 19> end
| 20> % elprop
| 21>     Dipole false
| 22> end
| 23> *xyz 1 1
| 24>  C        0.6998877796     0.2933128690    -0.1800823860
| 25>  C        2.2055045782     0.3087917799    -0.0602362836
| 26>  C        2.7194594950     1.7080916197     0.2053355072
| 27>  N        4.1922530293     1.6527924948     0.4863012133
| 28>  O        2.6684959139    -0.4577201142     1.0649395803
| 29>  C        2.7265245891    -1.8071609844     0.8822827780
| 30>  O        2.4798811734    -2.3535974335    -0.1409921283
| 31>  H        0.3774152456     0.9401193606    -0.9990754286
| 32>  H        0.2325089476     0.6370310959     0.7449604694
| 33>  H        0.3554118863    -0.7162728811    -0.3981599803
| 34>  H        2.6578766867    -0.1058486809    -0.9683946738
| 35>  H        2.2494127950     2.1354648114     1.0921360579
| 36>  H        2.5564282854     2.3676372919    -0.6461880747
| 37>  H        4.3463086358     0.9331705649     1.2020996071
| 38>  H        4.5576801544     2.5441214438     0.8248772285
| 39>  H        4.7257025053     1.3855887876    -0.3438857507
| 40>  H        3.0374882996    -2.2834920254     1.8205922641
| 41> *
| 42>
| 43>                          ****END OF INPUT****
 Total Charge           Charge          ....    1
 Multiplicity           Mult            ....    1
 Number of Electrons    NEL             ....   56
FINAL SINGLE POINT ENERGY      -363.136471357450
FINAL SINGLE POINT ENERGY      -363.136467184972
FINAL SINGLE POINT ENERGY      -363.136472391056

CARTESIAN COORDINATES (ANGSTROEM)
---------------------------------
  C      0.033372   -1.769077   -0.853960
  C     -0.141970   -0.297210   -0.562815
  C     -1.543663    0.165267   -0.901881
  N     -1.725727    1.580928   -0.438991
  O     -0.000676    0.000573    0.837008
  C      1.278227    0.091277    1.298987
  O      2.242919   -0.001756    0.615491
  H     -0.147208   -1.970841   -1.912085
  H     -0.657701   -2.368403   -0.258006
  H      1.054099   -2.072746   -0.626657
  H      0.604104    0.285302   -1.115230
  H     -2.289894   -0.432274   -0.376702
  H     -1.735008    0.126694   -1.973492
  H     -1.416371    1.631334    0.538505
  H     -2.697765    1.887872   -0.498167
  H     -1.153512    2.232293   -0.980553
  H      1.257316    0.267375    2.381951

FINAL SINGLE POINT ENERGY      -363.136472577634
                    ***********************HURRAY********************
 Multiplicity           Mult            ....    1
 Number of Electrons    NEL             ....   56
 Basis Dimension        Dim             ....  277
FINAL SINGLE POINT ENERGY      -363.136472786691

VIBRATIONAL FREQUENCIES
-----------------------

   0:         0.00 cm**-1
   1:         0.00 cm**-1
   2:         0.00 cm**-1
   3:         0.00 cm**-1
   4:         0.00 cm**-1
   5:         0.00 cm**-1
   6:        68.19 cm**-1
   7:       133.46 cm**-1
   8:       199.41 cm**-1
   9:       218.73 cm**-1
  10:       222.94 cm**-1
  11:       241.80 cm**-1
  12:       284.28 cm**-1
  13:       388.75 cm**-1
  14:       445.65 cm**-1
  15:       510.42 cm**-1
  16:       767.52 cm**-1
  17:       810.44 cm**-1
  18:       881.29 cm**-1
  19:       903.04 cm**-1
  20:       981.41 cm**-1
  21:       998.95 cm**-1
  22:      1034.06 cm**-1
  23:      1043.87 cm**-1
  24:      1134.45 cm**-1
  25:      1148.67 cm**-1
  26:      1156.21 cm**-1
  27:      1217.57 cm**-1
  28:      1342.55 cm**-1
  29:      1344.57 cm**-1
  30:      1374.97 cm**-1
  31:      1387.18 cm**-1
  32:      1411.76 cm**-1
  33:      1422.39 cm**-1
  34:      1474.95 cm**-1
  35:      1489.70 cm**-1
  36:      1492.09 cm**-1
  37:      1494.77 cm**-1
  38:      1646.53 cm**-1
  39:      1668.36 cm**-1
  40:      1862.02 cm**-1
  41:      3061.76 cm**-1
  42:      3068.31 cm**-1
  43:      3089.89 cm**-1
  44:      3108.69 cm**-1
  45:      3145.08 cm**-1
  46:      3171.44 cm**-1
  47:      3175.53 cm**-1
  48:      3393.22 cm**-1
  49:      3477.98 cm**-1
  50:      3516.74 cm**-1

IR SPECTRUM
-----------

 Mode    freq (cm**-1)   T**2         TX         TY         TZ
-------------------------------------------------------------------
   6:        68.19    4.550320  ( -1.954705   0.814892  -0.255732)
   7:       133.46    6.544657  (  0.572793  -1.024037   2.273305)
   8:       199.41    1.280563  ( -0.572726   0.917324   0.333265)
   9:       218.73   12.886423  (  3.291695   0.292010   1.402104)
  10:       222.94   11.068289  ( -3.061181  -0.042090  -1.302185)
  11:       241.80    5.378993  (  0.873254  -1.967378   0.863623)
  12:       284.28   10.465078  ( -0.302183  -3.136339   0.732900)
  13:       388.75   34.819949  ( -3.448442   4.645032  -1.162702)
  14:       445.65    6.999579  (  1.790905  -1.550447  -1.178284)
  15:       510.42    2.961870  (  0.466167   1.642311  -0.217649)
  16:       767.52    7.951322  ( -2.073962   0.554627  -1.828221)
  17:       810.44   13.706782  ( -3.050294   2.082628   0.255251)
  18:       881.29   10.047858  ( -1.135652   0.280239   2.946119)
  19:       903.04   11.630425  ( -0.875755   0.974027  -3.148769)
  20:       981.41   13.452649  ( -1.982381   3.013855  -0.662941)
  21:       998.95   17.845425  ( -3.582242   0.225038   2.227628)
  22:      1034.06   30.021883  (  3.893540  -0.372133   3.837153)
  23:      1043.87    0.399406  ( -0.285210   0.481358  -0.293864)
  24:      1134.45  349.981641  ( 15.996122   0.607423   9.681774)
  25:      1148.67  113.924627  (  6.819395   3.034288   7.629782)
  26:      1156.21   20.244024  ( -1.859920  -0.077922  -4.096175)
  27:      1217.57   10.953334  ( -1.836541  -0.002467  -2.753261)
  28:      1342.55    7.545436  ( -1.389058  -0.853417   2.210799)
  29:      1344.57    4.785235  ( -1.365902   0.729587  -1.545072)
  30:      1374.97    4.329238  ( -1.647748  -0.865054  -0.930509)
  31:      1387.18    0.839192  (  0.568388   0.696593   0.175740)
  32:      1411.76   10.851592  (  0.566030  -2.979244  -1.286586)
  33:      1422.39    6.135709  ( -0.350267  -2.312918  -0.814513)
  34:      1474.95    8.622544  ( -1.544904   2.146073   1.276787)
  35:      1489.70   18.383250  ( -4.254153  -0.439087  -0.304357)
  36:      1492.09  122.688102  ( -2.913558  10.419795   2.372160)
  37:      1494.77   51.558508  ( -2.652742   4.958979   4.464303)
  38:      1646.53   50.420404  ( -2.839702  -2.988101   5.781673)
  39:      1668.36   41.208134  (  6.110135  -0.718674   1.832456)
  40:      1862.02  246.983564  ( 15.568226   0.077789  -2.146594)
  41:      3061.76    7.403771  (  1.252014  -1.544603   1.857535)
  42:      3068.31    2.613489  (  0.981425   1.266957  -0.212398)
  43:      3089.89   15.570487  (  0.401741  -0.827633  -3.837201)
  44:      3108.69    0.305763  (  0.375001   0.405250  -0.030162)
  45:      3145.08    3.804674  (  0.391506   0.755150  -1.755319)
  46:      3171.44    0.221766  ( -0.253829  -0.396654   0.001572)
  47:      3175.53    0.015792  ( -0.099338   0.073306  -0.023467)
  48:      3393.22   47.340910  ( -2.027825  -3.035897  -5.831995)
  49:      3477.98  129.047921  ( -3.837223   6.764164  -8.280684)
  50:      3516.74  112.786623  ( 10.524576   0.388037  -1.367241)

--------------------------
THERMOCHEMISTRY AT 298.15K
--------------------------

Temperature         ... 298.15 K
Pressure            ... 1.00 atm
Total Mass          ... 104.13 AMU

Throughout the following assumptions are being made:
  (1) The electronic state is orbitally nondegenerate
  (2) There are no thermally accessible electronically excited states
  (3) Hindered rotations indicated by low frequency modes) are not
      treated as such but are treated as vibrations and this may
      case some error
  (4) All equations used are the standard statistical mechanics
      equations for an ideal gas
  (5) All vibrations are strinctly harmonic

------------
INNER ENERGY
------------

The inner energy is: U= E(el) + E(ZPE) + E(vib) + E(rot) + E(trans)
    E(el)   - is the total energy from the electronic structure calculation
              = E(kin-el) + E(nuc-el) + E(el-el) + E(nuc-nuc)
    E(ZPE)  - the the zero temperature vibrational energy from the frequency calculation
    E(vib)  - the the finite temperature correction to E(ZPE) due to population
              of excietd vibrational states
    E(rot)  - is the rotational thermal energy
    E(trans)- is the translational thermal energy

Summary of contributions to the inner energy U:
Electronic energy                ...   -363.13647279 Eh
Zero point energy                ...      0.15129677 Eh      94.94 kcal/mol
Thermal vibrational correction   ...      0.00540064 Eh       3.39 kcal/mol
Thermal rotational correction    ...      0.00141627 Eh       0.89 kcal/mol
Thermal translational correction ...      0.00141627 Eh       0.89 kcal/mol
-----------------------------------------------------------------------
Total thermal energy                   -362.97694284 Eh

Summary of corrections to the electronic energy:
(perhaps to be used in another calculation)
Total thermal correction                  0.00823318 Eh       5.17 kcal/mol
Non-thermal (ZPE) correction              0.15129677 Eh      94.94 kcal/mol
-----------------------------------------------------------------------
Total correction                          0.15952995 Eh     100.11 kcal/mol

--------
ENTHALPY
--------

The enthalpy is H = U + kB*T
                kB is Boltzmann's constant
Total free energy                 ...   -362.97694284 Eh
Thermal Enthalpy correction       ...      0.00094421 Eh       0.59 kcal/mol
-----------------------------------------------------------------------
Total Enthalpy                    ...   -362.97599863 Eh

-------
ENTROPY
-------

The entropy contributions are T*S = T*(S(el)+S(vib)+S(rot)+S(trans)
     S(el)   - electronic entropy
     S(vib)  - vibrational entropy
     S(rot)  - rotational entropy
     S(trans)- translational entropy
The entropies will be listed as mutliplied by the temperature to get
units of energy

Electronic entropy                ...      0.00000000 Eh      0.00 kcal/mol
Vibrational entropy               ...      0.00966450 Eh      6.06 kcal/mol
Rotational entropy                ...      0.01216735 Eh      7.64 kcal/mol
Translational entropy             ...      0.01892854 Eh     11.88 kcal/mol
-----------------------------------------------------------------------
Final entropy term                ...      0.04076040 Eh     25.58 kcal/mol

CAUTION: The rotational entropy is not quite correctly treated here
         because it includes a symmetry number that is not yet correctly
         implemented in ORCA!
For a nonlinear molecule the correct rotational entropy is:
    S(rot) = R*(ln(qrot/sn)+1.5)
    R    = 8.31441 J/mol/K = 1.987191683e-3 kcal/mol/K
    qrot = 264417.0960946
    sn is the rotational symmetry number. We have assumed 3 here
       if it is different for your molecule then you should correct
       the printed rotational entropy by manually evaluating the equation
       as given above

For convenience we print out the resulting values for sn=1 - 12:
 sn= 1  qrot/sn=  264417.0961 T*S(rot)=     8.29 kcal/mol T*S(tot)=    26.23 kcal/mol
 sn= 2  qrot/sn=  132208.5480 T*S(rot)=     7.88 kcal/mol T*S(tot)=    25.82 kcal/mol
 sn= 3  qrot/sn=   88139.0320 T*S(rot)=     7.64 kcal/mol T*S(tot)=    25.58 kcal/mol
 sn= 4  qrot/sn=   66104.2740 T*S(rot)=     7.46 kcal/mol T*S(tot)=    25.41 kcal/mol
 sn= 5  qrot/sn=   52883.4192 T*S(rot)=     7.33 kcal/mol T*S(tot)=    25.27 kcal/mol
 sn= 6  qrot/sn=   44069.5160 T*S(rot)=     7.22 kcal/mol T*S(tot)=    25.17 kcal/mol
 sn= 7  qrot/sn=   37773.8709 T*S(rot)=     7.13 kcal/mol T*S(tot)=    25.08 kcal/mol
 sn= 8  qrot/sn=   33052.1370 T*S(rot)=     7.05 kcal/mol T*S(tot)=    25.00 kcal/mol
 sn= 9  qrot/sn=   29379.6773 T*S(rot)=     6.98 kcal/mol T*S(tot)=    24.93 kcal/mol
 sn=10  qrot/sn=   26441.7096 T*S(rot)=     6.92 kcal/mol T*S(tot)=    24.86 kcal/mol
 sn=11  qrot/sn=   24037.9178 T*S(rot)=     6.87 kcal/mol T*S(tot)=    24.81 kcal/mol
 sn=12  qrot/sn=   22034.7580 T*S(rot)=     6.81 kcal/mol T*S(tot)=    24.76 kcal/mol

-------------------
GIBBS FREE ENTHALPY
-------------------

The Gibbs free enthalpy is G = H - T*S

Total enthalpy                    ...   -362.97599863 Eh
Total entropy correction          ...     -0.04076040 Eh    -25.58 kcal/mol
-----------------------------------------------------------------------
Final Gibbs free enthalpy         ...   -363.01675902 Eh

For completeness - the Gibbs free enthalpy minus the electronic energy
G-E(el)                           ...      0.11971376 Eh     75.12 kcal/mol

                             ****ORCA TERMINATED NORMALLY****
TOTAL RUN TIME: 0 days 0 hours 45 minutes 51 seconds 0 msec
