                         Program Version 3.0.3 - RELEASE   -
|  1> ! NORI PBE0 def2-TZVP UseSym TightOPT Freq TightSCF Grid3 FinalGrid5 XYZFile
|  2> % pal
|  3>     nprocs 8
|  4> end
|  5> %method
|  6>     SymThresh 5.0e-2
|  7> end
|  8> % geom
|  9>     MaxIter 10
| 10> end
| 11> % maxcore 2000
| 12> % output
| 13>     printlevel mini
| 14>     print[ P_Basis ] 0
| 15>     print[ P_SCFInfo ] 1
| 16>     print[ P_SCFIterInfo ] 1
| 17>     print[ P_OrbEn ] 0
| 18>     print[ P_Cartesian ] 0
| 19> end
| 20> % elprop
| 21>     Dipole false
| 22> end
| 23> *xyz 1 1
| 24>  C        0.8448795648    -0.0078911239     0.2238176483
| 25>  C        2.3539553156     0.0232796995     0.2780063892
| 26>  C        2.9277593181    -0.3390903787     1.6458659379
| 27>  N        2.6618049703     0.7497330033     2.6463555596
| 28>  O        2.8244822456    -0.9302509640    -0.6412769853
| 29>  N        4.1967009570    -0.7515819764    -0.8284077587
| 30>  C        4.6425622468    -1.5129633650    -1.7306986449
| 31>  H        0.5083607304     0.2261720988    -0.7860803011
| 32>  H        0.3925927041     0.7361182827     0.8869092559
| 33>  H        0.4651705343    -0.9966745521     0.4903014897
| 34>  H        2.7316935248     1.0150594062    -0.0129162531
| 35>  H        4.0091852083    -0.4521411774     1.5740165952
| 36>  H        2.4828184483    -1.2550629963     2.0361524508
| 37>  H        3.0697011995     1.6348711395     2.3357534590
| 38>  H        3.0628851441     0.5263223961     3.5592084944
| 39>  H        1.6586604274     0.8993415893     2.7736649617
| 40>  H        5.7027954674    -1.4377598433    -1.9415293683
| 41>  H        4.0144319932    -2.2093412381    -2.2826429302
| 42> *
| 43>
| 44>                          ****END OF INPUT****
 Total Charge           Charge          ....    1
 Multiplicity           Mult            ....    1
 Number of Electrons    NEL             ....   56
FINAL SINGLE POINT ENERGY      -343.193976257142

CARTESIAN COORDINATES (ANGSTROEM)
---------------------------------
  C      1.540825    1.406551   -0.000422
  C      0.282426    0.587457   -0.164881
  C      0.413660   -0.543060   -1.182864
  N      0.492668    0.000123   -2.581375
  O      0.000083    0.000821    1.080934
  N     -1.287739   -0.538483    1.053842
  C     -1.627994   -0.978394    2.186681
  H      1.385582    2.169581    0.762256
  H      1.814213    1.931736   -0.920927
  H      2.377867    0.777794    0.309946
  H     -0.562300    1.229494   -0.455922
  H     -0.465755   -1.185000   -1.136713
  H      1.314755   -1.133015   -1.011428
  H     -0.337739    0.555168   -2.802041
  H      0.557329   -0.750135   -3.272062
  H      1.308697    0.604532   -2.698643
  H     -2.617094   -1.415562    2.254462
  H     -0.982043   -0.927577    3.060893

FINAL SINGLE POINT ENERGY      -343.193976782259
                    ***********************HURRAY********************
 Multiplicity           Mult            ....    1
 Number of Electrons    NEL             ....   56
 Basis Dimension        Dim             ....  283
FINAL SINGLE POINT ENERGY      -343.193976932916

VIBRATIONAL FREQUENCIES
-----------------------

   0:         0.00 cm**-1
   1:         0.00 cm**-1
   2:         0.00 cm**-1
   3:         0.00 cm**-1
   4:         0.00 cm**-1
   5:         0.00 cm**-1
   6:        64.05 cm**-1
   7:       108.78 cm**-1
   8:       134.77 cm**-1
   9:       189.25 cm**-1
  10:       200.58 cm**-1
  11:       237.99 cm**-1
  12:       255.57 cm**-1
  13:       375.32 cm**-1
  14:       412.64 cm**-1
  15:       484.22 cm**-1
  16:       600.57 cm**-1
  17:       807.32 cm**-1
  18:       812.71 cm**-1
  19:       857.40 cm**-1
  20:       886.87 cm**-1
  21:       960.59 cm**-1
  22:       983.98 cm**-1
  23:       986.67 cm**-1
  24:      1030.43 cm**-1
  25:      1053.31 cm**-1
  26:      1151.26 cm**-1
  27:      1175.04 cm**-1
  28:      1196.83 cm**-1
  29:      1236.15 cm**-1
  30:      1329.02 cm**-1
  31:      1355.81 cm**-1
  32:      1369.60 cm**-1
  33:      1410.08 cm**-1
  34:      1420.40 cm**-1
  35:      1432.09 cm**-1
  36:      1469.66 cm**-1
  37:      1489.02 cm**-1
  38:      1497.47 cm**-1
  39:      1506.81 cm**-1
  40:      1657.69 cm**-1
  41:      1663.33 cm**-1
  42:      1733.89 cm**-1
  43:      3005.85 cm**-1
  44:      3053.01 cm**-1
  45:      3104.53 cm**-1
  46:      3127.32 cm**-1
  47:      3129.74 cm**-1
  48:      3159.63 cm**-1
  49:      3173.03 cm**-1
  50:      3256.08 cm**-1
  51:      3421.14 cm**-1
  52:      3498.90 cm**-1
  53:      3507.54 cm**-1

IR SPECTRUM
-----------

 Mode    freq (cm**-1)   T**2         TX         TY         TZ
-------------------------------------------------------------------
   6:        64.05   10.928726  (  3.290451   0.292228  -0.127516)
   7:       108.78   16.863718  (  0.558961  -4.054817  -0.331273)
   8:       134.77    5.688386  (  1.301111  -1.644172  -1.136748)
   9:       189.25    3.180276  (  1.751226   0.326336  -0.083590)
  10:       200.58    0.868633  ( -0.771852   0.075190   0.516938)
  11:       237.99    6.176491  ( -0.303336   1.053717   2.230282)
  12:       255.57    3.819028  ( -1.922329   0.276988   0.216693)
  13:       375.32    5.421976  ( -0.417824  -0.000833   2.290720)
  14:       412.64   24.270614  ( -0.624042  -1.611414  -4.613516)
  15:       484.22    0.856720  ( -0.842551  -0.331627  -0.191966)
  16:       600.57    3.124816  (  0.444043   1.586131   0.641740)
  17:       807.32    0.634695  ( -0.735153   0.297125   0.077215)
  18:       812.71    9.318444  (  0.401218   1.196195   2.779674)
  19:       857.40   19.223972  ( -3.792873  -0.209609   2.189555)
  20:       886.87   43.973648  (  5.032315   3.991368  -1.648770)
  21:       960.59   34.614340  (  2.870692  -0.688407  -5.089161)
  22:       983.98   21.762915  (  4.282271   0.162914  -1.843510)
  23:       986.67   33.883508  ( -2.551175  -2.024334   4.824633)
  24:      1030.43   32.683138  ( -2.183927   5.122795   1.292508)
  25:      1053.31   79.659435  ( -4.411296  -6.805679   3.725941)
  26:      1151.26   79.907569  (  3.072233   2.344184  -8.060630)
  27:      1175.04   17.942989  ( -2.438822  -1.309444   3.206321)
  28:      1196.83   14.120472  (  1.762960   0.569833  -3.269210)
  29:      1236.15   11.604836  (  0.955164   0.602334  -3.213984)
  30:      1329.02    5.071214  (  1.928770  -0.614509  -0.986630)
  31:      1355.81   16.696903  ( -3.031810  -0.543211   2.685135)
  32:      1369.60    7.638795  (  2.382228   1.195036  -0.731897)
  33:      1410.08    9.528400  ( -0.651469   1.610948   2.551241)
  34:      1420.40   21.289198  (  3.870501   2.297793   1.014185)
  35:      1432.09   10.947026  (  1.015352   1.433843  -2.803601)
  36:      1469.66    7.900503  (  0.872322  -1.124215  -2.423984)
  37:      1489.02    2.705227  (  1.103880   1.207671   0.167948)
  38:      1497.47   20.564535  ( -1.126123   3.042024   3.168986)
  39:      1506.81  161.743915  (  0.034934  -4.632682  11.844026)
  40:      1657.69   47.501960  (  6.852731   0.509426   0.531529)
  41:      1663.33   38.969994  ( -0.798803   5.308517   3.186150)
  42:      1733.89    4.484332  (  1.962419   0.762997  -0.226006)
  43:      3005.85   25.663407  ( -1.578730   3.152967  -3.637282)
  44:      3053.01   15.558745  (  1.680188   0.801208  -3.477611)
  45:      3104.53    1.588835  ( -0.951829   0.405711   0.719900)
  46:      3127.32   12.858323  (  0.340160  -1.730127   3.122383)
  47:      3129.74    0.574066  (  0.655575   0.119221   0.360656)
  48:      3159.63    1.071803  ( -0.836465   0.609875  -0.013506)
  49:      3173.03    1.263474  (  0.483860   0.499456  -0.883118)
  50:      3256.08    1.148345  ( -0.764219  -0.481680   0.576453)
  51:      3421.14   40.347635  (  0.183245   1.956197  -6.040476)
  52:      3498.90   89.577419  ( -9.395176   1.134999  -0.140939)
  53:      3507.54  111.842152  (  1.012663   9.190951   5.132552)

--------------------------
THERMOCHEMISTRY AT 298.15K
--------------------------

Temperature         ... 298.15 K
Pressure            ... 1.00 atm
Total Mass          ... 103.14 AMU

Throughout the following assumptions are being made:
  (1) The electronic state is orbitally nondegenerate
  (2) There are no thermally accessible electronically excited states
  (3) Hindered rotations indicated by low frequency modes) are not
      treated as such but are treated as vibrations and this may
      case some error
  (4) All equations used are the standard statistical mechanics
      equations for an ideal gas
  (5) All vibrations are strinctly harmonic

------------
INNER ENERGY
------------

The inner energy is: U= E(el) + E(ZPE) + E(vib) + E(rot) + E(trans)
    E(el)   - is the total energy from the electronic structure calculation
              = E(kin-el) + E(nuc-el) + E(el-el) + E(nuc-nuc)
    E(ZPE)  - the the zero temperature vibrational energy from the frequency calculation
    E(vib)  - the the finite temperature correction to E(ZPE) due to population
              of excietd vibrational states
    E(rot)  - is the rotational thermal energy
    E(trans)- is the translational thermal energy

Summary of contributions to the inner energy U:
Electronic energy                ...   -343.19397693 Eh
Zero point energy                ...      0.16169056 Eh     101.46 kcal/mol
Thermal vibrational correction   ...      0.00594139 Eh       3.73 kcal/mol
Thermal rotational correction    ...      0.00141627 Eh       0.89 kcal/mol
Thermal translational correction ...      0.00141627 Eh       0.89 kcal/mol
-----------------------------------------------------------------------
Total thermal energy                   -343.02351245 Eh

Summary of corrections to the electronic energy:
(perhaps to be used in another calculation)
Total thermal correction                  0.00877393 Eh       5.51 kcal/mol
Non-thermal (ZPE) correction              0.16169056 Eh     101.46 kcal/mol
-----------------------------------------------------------------------
Total correction                          0.17046449 Eh     106.97 kcal/mol

--------
ENTHALPY
--------

The enthalpy is H = U + kB*T
                kB is Boltzmann's constant
Total free energy                 ...   -343.02351245 Eh
Thermal Enthalpy correction       ...      0.00094421 Eh       0.59 kcal/mol
-----------------------------------------------------------------------
Total Enthalpy                    ...   -343.02256824 Eh

-------
ENTROPY
-------

The entropy contributions are T*S = T*(S(el)+S(vib)+S(rot)+S(trans)
     S(el)   - electronic entropy
     S(vib)  - vibrational entropy
     S(rot)  - rotational entropy
     S(trans)- translational entropy
The entropies will be listed as mutliplied by the temperature to get
units of energy

Electronic entropy                ...      0.00000000 Eh      0.00 kcal/mol
Vibrational entropy               ...      0.01093927 Eh      6.86 kcal/mol
Rotational entropy                ...      0.01226805 Eh      7.70 kcal/mol
Translational entropy             ...      0.01891510 Eh     11.87 kcal/mol
-----------------------------------------------------------------------
Final entropy term                ...      0.04212241 Eh     26.43 kcal/mol

CAUTION: The rotational entropy is not quite correctly treated here
         because it includes a symmetry number that is not yet correctly
         implemented in ORCA!
For a nonlinear molecule the correct rotational entropy is:
    S(rot) = R*(ln(qrot/sn)+1.5)
    R    = 8.31441 J/mol/K = 1.987191683e-3 kcal/mol/K
    qrot = 294176.1864179
    sn is the rotational symmetry number. We have assumed 3 here
       if it is different for your molecule then you should correct
       the printed rotational entropy by manually evaluating the equation
       as given above

For convenience we print out the resulting values for sn=1 - 12:
 sn= 1  qrot/sn=  294176.1864 T*S(rot)=     8.35 kcal/mol T*S(tot)=    27.08 kcal/mol
 sn= 2  qrot/sn=  147088.0932 T*S(rot)=     7.94 kcal/mol T*S(tot)=    26.67 kcal/mol
 sn= 3  qrot/sn=   98058.7288 T*S(rot)=     7.70 kcal/mol T*S(tot)=    26.43 kcal/mol
 sn= 4  qrot/sn=   73544.0466 T*S(rot)=     7.53 kcal/mol T*S(tot)=    26.26 kcal/mol
 sn= 5  qrot/sn=   58835.2373 T*S(rot)=     7.40 kcal/mol T*S(tot)=    26.13 kcal/mol
 sn= 6  qrot/sn=   49029.3644 T*S(rot)=     7.29 kcal/mol T*S(tot)=    26.02 kcal/mol
 sn= 7  qrot/sn=   42025.1695 T*S(rot)=     7.20 kcal/mol T*S(tot)=    25.93 kcal/mol
 sn= 8  qrot/sn=   36772.0233 T*S(rot)=     7.12 kcal/mol T*S(tot)=    25.85 kcal/mol
 sn= 9  qrot/sn=   32686.2429 T*S(rot)=     7.05 kcal/mol T*S(tot)=    25.78 kcal/mol
 sn=10  qrot/sn=   29417.6186 T*S(rot)=     6.98 kcal/mol T*S(tot)=    25.72 kcal/mol
 sn=11  qrot/sn=   26743.2897 T*S(rot)=     6.93 kcal/mol T*S(tot)=    25.66 kcal/mol
 sn=12  qrot/sn=   24514.6822 T*S(rot)=     6.88 kcal/mol T*S(tot)=    25.61 kcal/mol

-------------------
GIBBS FREE ENTHALPY
-------------------

The Gibbs free enthalpy is G = H - T*S

Total enthalpy                    ...   -343.02256824 Eh
Total entropy correction          ...     -0.04212241 Eh    -26.43 kcal/mol
-----------------------------------------------------------------------
Final Gibbs free enthalpy         ...   -343.06469065 Eh

For completeness - the Gibbs free enthalpy minus the electronic energy
G-E(el)                           ...      0.12928628 Eh     81.13 kcal/mol

                             ****ORCA TERMINATED NORMALLY****
TOTAL RUN TIME: 0 days 0 hours 42 minutes 22 seconds 451 msec
