                         Program Version 3.0.3 - RELEASE   -
|  1> ! NORI PBE0 def2-TZVP UseSym TightOPT Freq TightSCF Grid3 FinalGrid5 XYZFile
|  2> % pal
|  3>     nprocs 8
|  4> end
|  5> %method
|  6>     SymThresh 5.0e-2
|  7> end
|  8> % geom
|  9>     MaxIter 10
| 10> end
| 11> % maxcore 2000
| 12> % output
| 13>     printlevel mini
| 14>     print[ P_Basis ] 0
| 15>     print[ P_SCFInfo ] 1
| 16>     print[ P_SCFIterInfo ] 1
| 17>     print[ P_OrbEn ] 0
| 18>     print[ P_Cartesian ] 0
| 19> end
| 20> % elprop
| 21>     Dipole false
| 22> end
| 23> *xyz 1 1
| 24>  C        0.8922253588    -0.0299176152    -0.0450860207
| 25>  C        2.1976922910    -0.0524437509    -0.3038652253
| 26>  C        2.6881970811    -0.0963874465    -1.7078075590
| 27>  O        3.8558122446    -0.0817064839    -1.9863538039
| 28>  C        3.2523455722    -0.0900311944     0.7422887085
| 29>  C        4.3728697552     0.8572722822     0.7246321321
| 30>  N        3.2939684723     1.0288414122     1.7354599817
| 31>  H        0.1752638105    -0.0222934564    -0.8600492681
| 32>  H        0.4841012475    -0.0215929293     0.9603929100
| 33>  H        1.8949182186    -0.1414601826    -2.4768570698
| 34>  H        3.4377883767    -1.0478911640     1.2192647199
| 35>  H        4.3897020878     1.6345611715    -0.0274987162
| 36>  H        5.3287728831     0.5679824230     1.1399813101
| 37>  H        3.4952095322     0.8133195145     2.7059108712
| 38>  H        2.6440330684     1.7970474198     1.6027370294
| 39> *
| 40>
| 41>                          ****END OF INPUT****
 Total Charge           Charge          ....    1
 Multiplicity           Mult            ....    1
 Number of Electrons    NEL             ....   52
FINAL SINGLE POINT ENERGY      -324.747871461066
FINAL SINGLE POINT ENERGY      -324.747870478172
FINAL SINGLE POINT ENERGY      -324.747872188090

CARTESIAN COORDINATES (ANGSTROEM)
---------------------------------
  C     -1.836610   -0.455394   -0.888008
  C     -0.836071   -0.066574   -0.100803
  C     -0.895598   -0.303227    1.367011
  O     -0.001036   -0.001253    2.108265
  C      0.366954    0.661107   -0.582845
  C      1.718780    0.205495   -0.238827
  N      1.214252   -0.000722   -1.623838
  H     -2.694843   -0.967165   -0.464464
  H     -1.852449   -0.286120   -1.959737
  H     -1.827245   -0.780250    1.723765
  H      0.251769    1.722208   -0.783575
  H      1.835693   -0.712187    0.321183
  H      2.525035    0.922730   -0.162143
  H      1.598732    0.565185   -2.372579
  H      0.965562   -0.945649   -1.897986

FINAL SINGLE POINT ENERGY      -324.747872388906
                    ***********************HURRAY********************
 Multiplicity           Mult            ....    1
 Number of Electrons    NEL             ....   52
 Basis Dimension        Dim             ....  265
FINAL SINGLE POINT ENERGY      -324.747872450496

VIBRATIONAL FREQUENCIES
-----------------------

   0:         0.00 cm**-1
   1:         0.00 cm**-1
   2:         0.00 cm**-1
   3:         0.00 cm**-1
   4:         0.00 cm**-1
   5:         0.00 cm**-1
   6:        27.49 cm**-1
   7:       161.40 cm**-1
   8:       178.86 cm**-1
   9:       242.17 cm**-1
  10:       311.39 cm**-1
  11:       419.43 cm**-1
  12:       532.06 cm**-1
  13:       660.23 cm**-1
  14:       691.50 cm**-1
  15:       760.10 cm**-1
  16:       846.31 cm**-1
  17:       879.21 cm**-1
  18:       885.53 cm**-1
  19:       934.61 cm**-1
  20:       961.43 cm**-1
  21:      1024.37 cm**-1
  22:      1029.07 cm**-1
  23:      1042.30 cm**-1
  24:      1115.96 cm**-1
  25:      1149.78 cm**-1
  26:      1177.94 cm**-1
  27:      1243.99 cm**-1
  28:      1276.51 cm**-1
  29:      1302.99 cm**-1
  30:      1382.86 cm**-1
  31:      1406.90 cm**-1
  32:      1464.14 cm**-1
  33:      1496.27 cm**-1
  34:      1628.00 cm**-1
  35:      1711.50 cm**-1
  36:      1813.90 cm**-1
  37:      2980.59 cm**-1
  38:      3158.01 cm**-1
  39:      3179.38 cm**-1
  40:      3184.55 cm**-1
  41:      3248.05 cm**-1
  42:      3289.13 cm**-1
  43:      3509.37 cm**-1
  44:      3615.44 cm**-1

IR SPECTRUM
-----------

 Mode    freq (cm**-1)   T**2         TX         TY         TZ
-------------------------------------------------------------------
   7:       161.40    4.866891  (  0.609969  -2.111161  -0.194491)
   8:       178.86   10.594241  (  1.348699  -0.304529  -2.946611)
   9:       242.17    9.657422  (  1.653265   2.248323  -1.367181)
  10:       311.39   10.491004  (  2.039260  -0.608538  -2.441742)
  11:       419.43    1.115427  ( -0.840460   0.618163  -0.164096)
  12:       532.06   15.218629  (  2.131233  -3.257046   0.261007)
  13:       660.23    6.127183  (  0.515608   0.232974  -2.409783)
  14:       691.50    2.876257  ( -0.892506  -0.553705   1.331578)
  15:       760.10    3.157504  (  1.273333  -0.249625  -1.214008)
  16:       846.31    4.355805  (  0.424255  -0.761444  -1.896316)
  17:       879.21    4.065625  ( -1.470093  -1.013867   0.936230)
  18:       885.53   44.901398  ( -0.871770   0.194063   6.641066)
  19:       934.61   17.822548  ( -1.930598   0.758902   3.676875)
  20:       961.43    5.961290  ( -1.621084   1.408786  -1.161335)
  21:      1024.37   85.369651  ( -7.783064   4.970165  -0.301717)
  22:      1029.07   27.170338  (  5.053649   0.007198   1.277073)
  23:      1042.30   14.409498  ( -0.746827   3.669886   0.619425)
  24:      1115.96    1.439408  (  0.538681   0.875623   0.618477)
  25:      1149.78    1.102717  ( -0.838493   0.500174   0.386617)
  26:      1177.94    3.135410  (  1.575762  -0.795327   0.140848)
  27:      1243.99    3.726178  (  1.440880   1.268666   0.201318)
  28:      1276.51    4.857676  ( -1.181033  -1.809863  -0.432704)
  29:      1302.99   33.897526  (  2.002712   0.193414   5.463448)
  30:      1382.86    9.682858  (  2.681037   0.691924   1.419909)
  31:      1406.90   27.708811  ( -0.328533  -0.856652   5.183341)
  32:      1464.14   10.909782  (  2.380016   1.967567   1.172171)
  33:      1496.27   16.640233  ( -3.789120   0.288643  -1.483068)
  34:      1628.00   67.676559  (  2.253611  -3.161993  -7.252558)
  35:      1711.50    3.287532  (  0.922722   0.082904   1.558603)
  36:      1813.90  164.629077  ( -7.361169  -2.508762 -10.205312)
  37:      2980.59   32.112275  ( -4.592090  -2.227159   2.462670)
  38:      3158.01    2.075613  ( -1.214888  -0.731135   0.255152)
  39:      3179.38    4.421407  ( -1.096991   1.793778  -0.019465)
  40:      3184.55    5.825782  (  1.909365   0.070401   1.474840)
  41:      3248.05    0.571402  (  0.490948   0.394938  -0.417608)
  42:      3289.13    8.984732  ( -0.628983  -2.743322   1.031163)
  43:      3509.37  102.130433  (  2.633418  -2.853703  -9.330162)
  44:      3615.44  129.585288  (  4.485977   9.660507  -4.016951)

--------------------------
THERMOCHEMISTRY AT 298.15K
--------------------------

Temperature         ... 298.15 K
Pressure            ... 1.00 atm
Total Mass          ... 98.12 AMU

Throughout the following assumptions are being made:
  (1) The electronic state is orbitally nondegenerate
  (2) There are no thermally accessible electronically excited states
  (3) Hindered rotations indicated by low frequency modes) are not
      treated as such but are treated as vibrations and this may
      case some error
  (4) All equations used are the standard statistical mechanics
      equations for an ideal gas
  (5) All vibrations are strinctly harmonic

------------
INNER ENERGY
------------

The inner energy is: U= E(el) + E(ZPE) + E(vib) + E(rot) + E(trans)
    E(el)   - is the total energy from the electronic structure calculation
              = E(kin-el) + E(nuc-el) + E(el-el) + E(nuc-nuc)
    E(ZPE)  - the the zero temperature vibrational energy from the frequency calculation
    E(vib)  - the the finite temperature correction to E(ZPE) due to population
              of excietd vibrational states
    E(rot)  - is the rotational thermal energy
    E(trans)- is the translational thermal energy

Summary of contributions to the inner energy U:
Electronic energy                ...   -324.74787245 Eh
Zero point energy                ...      0.12733869 Eh      79.91 kcal/mol
Thermal vibrational correction   ...      0.00345214 Eh       2.17 kcal/mol
Thermal rotational correction    ...      0.00141627 Eh       0.89 kcal/mol
Thermal translational correction ...      0.00141627 Eh       0.89 kcal/mol
-----------------------------------------------------------------------
Total thermal energy                   -324.61424907 Eh

Summary of corrections to the electronic energy:
(perhaps to be used in another calculation)
Total thermal correction                  0.00628469 Eh       3.94 kcal/mol
Non-thermal (ZPE) correction              0.12733869 Eh      79.91 kcal/mol
-----------------------------------------------------------------------
Total correction                          0.13362338 Eh      83.85 kcal/mol

--------
ENTHALPY
--------

The enthalpy is H = U + kB*T
                kB is Boltzmann's constant
Total free energy                 ...   -324.61424907 Eh
Thermal Enthalpy correction       ...      0.00094421 Eh       0.59 kcal/mol
-----------------------------------------------------------------------
Total Enthalpy                    ...   -324.61330486 Eh

-------
ENTROPY
-------

The entropy contributions are T*S = T*(S(el)+S(vib)+S(rot)+S(trans)
     S(el)   - electronic entropy
     S(vib)  - vibrational entropy
     S(rot)  - rotational entropy
     S(trans)- translational entropy
The entropies will be listed as mutliplied by the temperature to get
units of energy

Electronic entropy                ...      0.00000000 Eh      0.00 kcal/mol
Vibrational entropy               ...      0.00555002 Eh      3.48 kcal/mol
Rotational entropy                ...      0.01199348 Eh      7.53 kcal/mol
Translational entropy             ...      0.01884443 Eh     11.83 kcal/mol
-----------------------------------------------------------------------
Final entropy term                ...      0.03638794 Eh     22.83 kcal/mol

CAUTION: The rotational entropy is not quite correctly treated here
         because it includes a symmetry number that is not yet correctly
         implemented in ORCA!
For a nonlinear molecule the correct rotational entropy is:
    S(rot) = R*(ln(qrot/sn)+1.5)
    R    = 8.31441 J/mol/K = 1.987191683e-3 kcal/mol/K
    qrot = 219945.8063702
    sn is the rotational symmetry number. We have assumed 3 here
       if it is different for your molecule then you should correct
       the printed rotational entropy by manually evaluating the equation
       as given above

For convenience we print out the resulting values for sn=1 - 12:
 sn= 1  qrot/sn=  219945.8064 T*S(rot)=     8.18 kcal/mol T*S(tot)=    23.48 kcal/mol
 sn= 2  qrot/sn=  109972.9032 T*S(rot)=     7.77 kcal/mol T*S(tot)=    23.07 kcal/mol
 sn= 3  qrot/sn=   73315.2688 T*S(rot)=     7.53 kcal/mol T*S(tot)=    22.83 kcal/mol
 sn= 4  qrot/sn=   54986.4516 T*S(rot)=     7.36 kcal/mol T*S(tot)=    22.66 kcal/mol
 sn= 5  qrot/sn=   43989.1613 T*S(rot)=     7.22 kcal/mol T*S(tot)=    22.53 kcal/mol
 sn= 6  qrot/sn=   36657.6344 T*S(rot)=     7.12 kcal/mol T*S(tot)=    22.42 kcal/mol
 sn= 7  qrot/sn=   31420.8295 T*S(rot)=     7.02 kcal/mol T*S(tot)=    22.33 kcal/mol
 sn= 8  qrot/sn=   27493.2258 T*S(rot)=     6.94 kcal/mol T*S(tot)=    22.25 kcal/mol
 sn= 9  qrot/sn=   24438.4229 T*S(rot)=     6.88 kcal/mol T*S(tot)=    22.18 kcal/mol
 sn=10  qrot/sn=   21994.5806 T*S(rot)=     6.81 kcal/mol T*S(tot)=    22.12 kcal/mol
 sn=11  qrot/sn=   19995.0733 T*S(rot)=     6.76 kcal/mol T*S(tot)=    22.06 kcal/mol
 sn=12  qrot/sn=   18328.8172 T*S(rot)=     6.70 kcal/mol T*S(tot)=    22.01 kcal/mol

-------------------
GIBBS FREE ENTHALPY
-------------------

The Gibbs free enthalpy is G = H - T*S

Total enthalpy                    ...   -324.61330486 Eh
Total entropy correction          ...     -0.03638794 Eh    -22.83 kcal/mol
-----------------------------------------------------------------------
Final Gibbs free enthalpy         ...   -324.64969280 Eh

For completeness - the Gibbs free enthalpy minus the electronic energy
G-E(el)                           ...      0.09817965 Eh     61.61 kcal/mol

                             ****ORCA TERMINATED NORMALLY****
TOTAL RUN TIME: 0 days 0 hours 39 minutes 15 seconds 212 msec
