                         Program Version 3.0.3 - RELEASE   -
|  1> ! NORI PBE0 def2-TZVP UseSym TightOPT Freq TightSCF Grid3 FinalGrid5 XYZFile
|  2> % pal
|  3>     nprocs 8
|  4> end
|  5> %method
|  6>     SymThresh 5.0e-2
|  7> end
|  8> % geom
|  9>     MaxIter 10
| 10> end
| 11> % maxcore 2000
| 12> % output
| 13>     printlevel mini
| 14>     print[ P_Basis ] 0
| 15>     print[ P_SCFInfo ] 1
| 16>     print[ P_SCFIterInfo ] 1
| 17>     print[ P_OrbEn ] 0
| 18>     print[ P_Cartesian ] 0
| 19> end
| 20> % elprop
| 21>     Dipole false
| 22> end
| 23> *xyz 1 1
| 24>  C        1.2134939355    -0.6901029419     0.8659402367
| 25>  C        1.3168026235    -0.7060125769    -0.4625438346
| 26>  C        2.5711154512    -0.5534678697    -1.1788382384
| 27>  O        2.6758749505    -0.6143518056    -2.3846445351
| 28>  C        3.8737148093    -0.3346383771    -0.4119201717
| 29>  C        4.9473397219    -1.3262548568    -0.6449177692
| 30>  N        4.9449249084    -0.0530012615    -1.3805440519
| 31>  H        0.2539512462    -0.8237851527     1.3511212884
| 32>  H        2.0642084285    -0.5518615239     1.5247934368
| 33>  H        0.4520947928    -0.8525739405    -1.1005812223
| 34>  H        3.8977428805     0.2647428478     0.4886026132
| 35>  H        5.7429647675    -1.4297554284     0.0816378647
| 36>  H        4.7337223465    -2.1869844642    -1.2668908262
| 37>  H        4.5615546734    -0.0946006625    -2.3375116639
| 38>  H        5.6439444641     0.6532680139    -1.1785731264
| 39> *
| 40>
| 41>                          ****END OF INPUT****
 Total Charge           Charge          ....    1
 Multiplicity           Mult            ....    1
 Number of Electrons    NEL             ....   52
FINAL SINGLE POINT ENERGY      -324.759263246076
FINAL SINGLE POINT ENERGY      -324.759264606024
FINAL SINGLE POINT ENERGY      -324.759265416138

CARTESIAN COORDINATES (ANGSTROEM)
---------------------------------
  C     -2.250277   -0.548765   -1.097565
  C     -1.798594   -0.410785    0.148689
  C     -0.405359   -0.173718    0.484537
  O      0.000266   -0.002603    1.613595
  C      0.648729   -0.087156   -0.617205
  C      1.423491    1.172041   -0.684567
  N      1.976544    0.000536    0.010409
  H     -3.304165   -0.707096   -1.292944
  H     -1.607192   -0.506240   -1.970159
  H     -2.463861   -0.451417    1.004443
  H      0.595267   -0.719379   -1.493525
  H      1.930086    1.436703   -1.603615
  H      1.153526    1.983222   -0.019493
  H      1.872224    0.004113    1.036656
  H      2.762933   -0.502182   -0.385472

FINAL SINGLE POINT ENERGY      -324.759265728728
                    ***********************HURRAY********************
 Multiplicity           Mult            ....    1
 Number of Electrons    NEL             ....   52
 Basis Dimension        Dim             ....  265
FINAL SINGLE POINT ENERGY      -324.759265895205

VIBRATIONAL FREQUENCIES
-----------------------

   0:         0.00 cm**-1
   1:         0.00 cm**-1
   2:         0.00 cm**-1
   3:         0.00 cm**-1
   4:         0.00 cm**-1
   5:         0.00 cm**-1
   6:        81.15 cm**-1
   7:       138.74 cm**-1
   8:       214.72 cm**-1
   9:       253.86 cm**-1
  10:       331.15 cm**-1
  11:       490.14 cm**-1
  12:       532.73 cm**-1
  13:       585.05 cm**-1
  14:       750.49 cm**-1
  15:       802.08 cm**-1
  16:       873.95 cm**-1
  17:       897.57 cm**-1
  18:       919.03 cm**-1
  19:       954.42 cm**-1
  20:      1001.68 cm**-1
  21:      1025.17 cm**-1
  22:      1043.62 cm**-1
  23:      1071.30 cm**-1
  24:      1100.59 cm**-1
  25:      1160.15 cm**-1
  26:      1178.89 cm**-1
  27:      1248.53 cm**-1
  28:      1260.23 cm**-1
  29:      1283.06 cm**-1
  30:      1308.42 cm**-1
  31:      1407.83 cm**-1
  32:      1456.73 cm**-1
  33:      1483.30 cm**-1
  34:      1561.69 cm**-1
  35:      1689.80 cm**-1
  36:      1777.22 cm**-1
  37:      3169.22 cm**-1
  38:      3169.62 cm**-1
  39:      3208.46 cm**-1
  40:      3229.93 cm**-1
  41:      3260.00 cm**-1
  42:      3276.42 cm**-1
  43:      3303.19 cm**-1
  44:      3584.74 cm**-1

IR SPECTRUM
-----------

 Mode    freq (cm**-1)   T**2         TX         TY         TZ
-------------------------------------------------------------------
   6:        81.15    1.990979  (  0.015386  -1.405623  -0.122335)
   7:       138.74    3.060223  ( -0.441562   1.671096  -0.269599)
   8:       214.72    4.180586  (  0.041207  -0.719733  -1.913341)
   9:       253.86    0.938716  (  0.490740   0.676596  -0.490009)
  10:       331.15   55.582491  ( -7.125790  -1.267324   1.788712)
  11:       490.14    2.556912  (  0.040049   1.500806   0.550353)
  12:       532.73   11.613718  (  2.972624  -0.095357   1.663770)
  13:       585.05   10.196126  ( -2.880792  -0.260104   1.352594)
  14:       750.49    4.801417  ( -1.674721  -1.107377   0.877749)
  15:       802.08    4.551045  (  0.256066  -2.116913   0.064453)
  16:       873.95    7.936593  (  1.455776  -1.980392   1.376720)
  17:       897.57   23.940551  ( -4.751927   1.025468  -0.555119)
  18:       919.03   13.565712  ( -3.266900  -1.292878   1.105233)
  19:       954.42   18.949717  (  3.832072   1.973608   0.608120)
  20:      1001.68    9.634846  (  2.873476  -0.625039  -0.993635)
  21:      1025.17   49.206370  (  1.425107  -6.842481   0.596564)
  22:      1043.62    2.485886  ( -0.150657   1.566264   0.100028)
  23:      1071.30   74.253884  ( -5.481783  -6.176894  -2.459657)
  24:      1100.59   51.700296  ( -6.173888  -3.671047   0.326825)
  25:      1160.15    1.518758  ( -0.391983  -1.025441   0.559980)
  26:      1178.89    1.702204  ( -0.497100  -0.072405  -1.204098)
  27:      1248.53   84.364316  ( -8.860798  -2.176771  -1.054628)
  28:      1260.23   14.734941  (  3.727546   0.222547  -0.889276)
  29:      1283.06    9.634283  (  0.304457  -1.257539   2.821380)
  30:      1308.42    1.861696  ( -0.082787   0.150066   1.353633)
  31:      1407.83   47.908027  (  5.995447   2.489240  -2.401319)
  32:      1456.73   50.454083  (  5.444226   1.648530   4.254038)
  33:      1483.30   12.402296  (  1.707338  -3.060394   0.348257)
  34:      1561.69  132.977142  ( -9.238840   2.496060  -6.433558)
  35:      1689.80   15.646818  (  3.894663   0.689167  -0.058902)
  36:      1777.22  196.071217  (  6.606729   1.867969  12.203813)
  37:      3169.22    3.608301  ( -1.817791   0.226601   0.502581)
  38:      3169.62    3.752603  (  0.459718   1.880400  -0.073197)
  39:      3208.46    3.708547  ( -1.132488   0.003430   1.557564)
  40:      3229.93    3.330576  ( -0.131852  -1.139776  -1.419190)
  41:      3260.00    0.991482  ( -0.904098  -0.121795  -0.399067)
  42:      3276.42    8.974894  ( -1.337297   1.051730   2.465846)
  43:      3303.19  137.640777  (  2.941344   2.925982 -10.973965)
  44:      3584.74  185.338091  ( 11.603102  -4.958328  -5.110881)

--------------------------
THERMOCHEMISTRY AT 298.15K
--------------------------

Temperature         ... 298.15 K
Pressure            ... 1.00 atm
Total Mass          ... 98.12 AMU

Throughout the following assumptions are being made:
  (1) The electronic state is orbitally nondegenerate
  (2) There are no thermally accessible electronically excited states
  (3) Hindered rotations indicated by low frequency modes) are not
      treated as such but are treated as vibrations and this may
      case some error
  (4) All equations used are the standard statistical mechanics
      equations for an ideal gas
  (5) All vibrations are strinctly harmonic

------------
INNER ENERGY
------------

The inner energy is: U= E(el) + E(ZPE) + E(vib) + E(rot) + E(trans)
    E(el)   - is the total energy from the electronic structure calculation
              = E(kin-el) + E(nuc-el) + E(el-el) + E(nuc-nuc)
    E(ZPE)  - the the zero temperature vibrational energy from the frequency calculation
    E(vib)  - the the finite temperature correction to E(ZPE) due to population
              of excietd vibrational states
    E(rot)  - is the rotational thermal energy
    E(trans)- is the translational thermal energy

Summary of contributions to the inner energy U:
Electronic energy                ...   -324.75926590 Eh
Zero point energy                ...      0.12777073 Eh      80.18 kcal/mol
Thermal vibrational correction   ...      0.00408470 Eh       2.56 kcal/mol
Thermal rotational correction    ...      0.00141627 Eh       0.89 kcal/mol
Thermal translational correction ...      0.00141627 Eh       0.89 kcal/mol
-----------------------------------------------------------------------
Total thermal energy                   -324.62457792 Eh

Summary of corrections to the electronic energy:
(perhaps to be used in another calculation)
Total thermal correction                  0.00691724 Eh       4.34 kcal/mol
Non-thermal (ZPE) correction              0.12777073 Eh      80.18 kcal/mol
-----------------------------------------------------------------------
Total correction                          0.13468797 Eh      84.52 kcal/mol

--------
ENTHALPY
--------

The enthalpy is H = U + kB*T
                kB is Boltzmann's constant
Total free energy                 ...   -324.62457792 Eh
Thermal Enthalpy correction       ...      0.00094421 Eh       0.59 kcal/mol
-----------------------------------------------------------------------
Total Enthalpy                    ...   -324.62363372 Eh

-------
ENTROPY
-------

The entropy contributions are T*S = T*(S(el)+S(vib)+S(rot)+S(trans)
     S(el)   - electronic entropy
     S(vib)  - vibrational entropy
     S(rot)  - rotational entropy
     S(trans)- translational entropy
The entropies will be listed as mutliplied by the temperature to get
units of energy

Electronic entropy                ...      0.00000000 Eh      0.00 kcal/mol
Vibrational entropy               ...      0.00714925 Eh      4.49 kcal/mol
Rotational entropy                ...      0.01197357 Eh      7.51 kcal/mol
Translational entropy             ...      0.01884443 Eh     11.83 kcal/mol
-----------------------------------------------------------------------
Final entropy term                ...      0.03796725 Eh     23.82 kcal/mol

CAUTION: The rotational entropy is not quite correctly treated here
         because it includes a symmetry number that is not yet correctly
         implemented in ORCA!
For a nonlinear molecule the correct rotational entropy is:
    S(rot) = R*(ln(qrot/sn)+1.5)
    R    = 8.31441 J/mol/K = 1.987191683e-3 kcal/mol/K
    qrot = 215355.7100180
    sn is the rotational symmetry number. We have assumed 3 here
       if it is different for your molecule then you should correct
       the printed rotational entropy by manually evaluating the equation
       as given above

For convenience we print out the resulting values for sn=1 - 12:
 sn= 1  qrot/sn=  215355.7100 T*S(rot)=     8.16 kcal/mol T*S(tot)=    24.48 kcal/mol
 sn= 2  qrot/sn=  107677.8550 T*S(rot)=     7.75 kcal/mol T*S(tot)=    24.06 kcal/mol
 sn= 3  qrot/sn=   71785.2367 T*S(rot)=     7.51 kcal/mol T*S(tot)=    23.82 kcal/mol
 sn= 4  qrot/sn=   53838.9275 T*S(rot)=     7.34 kcal/mol T*S(tot)=    23.65 kcal/mol
 sn= 5  qrot/sn=   43071.1420 T*S(rot)=     7.21 kcal/mol T*S(tot)=    23.52 kcal/mol
 sn= 6  qrot/sn=   35892.6183 T*S(rot)=     7.10 kcal/mol T*S(tot)=    23.41 kcal/mol
 sn= 7  qrot/sn=   30765.1014 T*S(rot)=     7.01 kcal/mol T*S(tot)=    23.32 kcal/mol
 sn= 8  qrot/sn=   26919.4638 T*S(rot)=     6.93 kcal/mol T*S(tot)=    23.24 kcal/mol
 sn= 9  qrot/sn=   23928.4122 T*S(rot)=     6.86 kcal/mol T*S(tot)=    23.17 kcal/mol
 sn=10  qrot/sn=   21535.5710 T*S(rot)=     6.80 kcal/mol T*S(tot)=    23.11 kcal/mol
 sn=11  qrot/sn=   19577.7918 T*S(rot)=     6.74 kcal/mol T*S(tot)=    23.05 kcal/mol
 sn=12  qrot/sn=   17946.3092 T*S(rot)=     6.69 kcal/mol T*S(tot)=    23.00 kcal/mol

-------------------
GIBBS FREE ENTHALPY
-------------------

The Gibbs free enthalpy is G = H - T*S

Total enthalpy                    ...   -324.62363372 Eh
Total entropy correction          ...     -0.03796725 Eh    -23.82 kcal/mol
-----------------------------------------------------------------------
Final Gibbs free enthalpy         ...   -324.66160097 Eh

For completeness - the Gibbs free enthalpy minus the electronic energy
G-E(el)                           ...      0.09766493 Eh     61.29 kcal/mol

                             ****ORCA TERMINATED NORMALLY****
TOTAL RUN TIME: 0 days 0 hours 37 minutes 52 seconds 843 msec
