                         Program Version 3.0.3 - RELEASE   -
|  1> ! NORI PBE0 def2-TZVP UseSym TightOPT Freq TightSCF Grid3 FinalGrid5 XYZFile
|  2> % pal
|  3>     nprocs 8
|  4> end
|  5> %method
|  6>     SymThresh 5.0e-2
|  7> end
|  8> % geom
|  9>     MaxIter 10
| 10> end
| 11> % maxcore 2000
| 12> % output
| 13>     printlevel mini
| 14>     print[ P_Basis ] 0
| 15>     print[ P_SCFInfo ] 1
| 16>     print[ P_SCFIterInfo ] 1
| 17>     print[ P_OrbEn ] 0
| 18>     print[ P_Cartesian ] 0
| 19> end
| 20> % elprop
| 21>     Dipole false
| 22> end
| 23> *xyz 1 1
| 24>  C        0.7007495154     0.1668443983    -0.3202559858
| 25>  C        2.1924487901     0.0090937381    -0.0729412355
| 26>  C        2.9867147547     1.2359336497    -0.5191326041
| 27>  O        2.4819100756     2.2054403545    -0.9916426485
| 28>  C        2.4411191966    -0.2567482974     1.3871896415
| 29>  C        2.4177135092    -1.6115689046     1.9586342357
| 30>  N        3.7235503803    -0.9314343560     1.7792724049
| 31>  H        0.5255975071     0.3798262277    -1.3741127827
| 32>  H        0.2950061559     1.0045892219     0.2492781514
| 33>  H        0.1564748679    -0.7408914083    -0.0539527735
| 34>  H        2.5834125613    -0.8422581635    -0.6517175197
| 35>  H        4.0903185338     1.1708957494    -0.3844996619
| 36>  H        2.2063964881     0.5561991237     2.0684161275
| 37>  H        2.2738860340    -2.4588769043     1.2993003425
| 38>  H        2.1371211289    -1.7594594362     2.9935450976
| 39>  H        4.2174074215    -0.6082446311     2.6046854738
| 40>  H        4.3336030799    -1.2682303617     1.0414037368
| 41> *
| 42>
| 43>                          ****END OF INPUT****
 Total Charge           Charge          ....    1
 Multiplicity           Mult            ....    1
 Number of Electrons    NEL             ....   54
FINAL SINGLE POINT ENERGY      -325.970413421495
FINAL SINGLE POINT ENERGY      -325.970407900456
FINAL SINGLE POINT ENERGY      -325.970415510267

CARTESIAN COORDINATES (ANGSTROEM)
---------------------------------
  C     -1.848699   -0.019505    0.453319
  C     -0.404592    0.387082    0.207606
  C      0.435981    0.338001    1.483081
  O      0.002611   -0.000185    2.539307
  C      0.204800   -0.503901   -0.840850
  C      0.105856   -0.213366   -2.278786
  N      1.403671   -0.001277   -1.592019
  H     -2.280889    0.615666    1.225632
  H     -1.910931   -1.048518    0.810865
  H     -2.447709    0.078545   -0.453351
  H     -0.361282    1.426235   -0.153643
  H      1.499254    0.647970    1.371279
  H      0.326997   -1.548437   -0.568815
  H     -0.371641    0.704648   -2.599231
  H      0.115581   -1.022386   -2.997797
  H      2.165038   -0.642103   -1.789434
  H      1.702288    0.955272   -1.432989

FINAL SINGLE POINT ENERGY      -325.970415932092
                    ***********************HURRAY********************
 Multiplicity           Mult            ....    1
 Number of Electrons    NEL             ....   54
 Basis Dimension        Dim             ....  277
FINAL SINGLE POINT ENERGY      -325.970416478890

VIBRATIONAL FREQUENCIES
-----------------------

   0:         0.00 cm**-1
   1:         0.00 cm**-1
   2:         0.00 cm**-1
   3:         0.00 cm**-1
   4:         0.00 cm**-1
   5:         0.00 cm**-1
   6:        49.85 cm**-1
   7:        80.57 cm**-1
   8:       180.85 cm**-1
   9:       197.52 cm**-1
  10:       254.93 cm**-1
  11:       305.62 cm**-1
  12:       364.41 cm**-1
  13:       444.39 cm**-1
  14:       662.01 cm**-1
  15:       758.52 cm**-1
  16:       818.84 cm**-1
  17:       869.87 cm**-1
  18:       877.86 cm**-1
  19:       898.54 cm**-1
  20:       930.61 cm**-1
  21:       964.63 cm**-1
  22:      1007.84 cm**-1
  23:      1028.19 cm**-1
  24:      1096.98 cm**-1
  25:      1140.29 cm**-1
  26:      1160.65 cm**-1
  27:      1185.35 cm**-1
  28:      1219.91 cm**-1
  29:      1251.99 cm**-1
  30:      1269.80 cm**-1
  31:      1302.77 cm**-1
  32:      1315.10 cm**-1
  33:      1404.58 cm**-1
  34:      1422.37 cm**-1
  35:      1432.50 cm**-1
  36:      1479.94 cm**-1
  37:      1486.07 cm**-1
  38:      1495.27 cm**-1
  39:      1631.51 cm**-1
  40:      1871.00 cm**-1
  41:      2885.99 cm**-1
  42:      3009.47 cm**-1
  43:      3072.56 cm**-1
  44:      3151.25 cm**-1
  45:      3166.14 cm**-1
  46:      3169.78 cm**-1
  47:      3182.09 cm**-1
  48:      3272.30 cm**-1
  49:      3510.64 cm**-1
  50:      3613.38 cm**-1

IR SPECTRUM
-----------

 Mode    freq (cm**-1)   T**2         TX         TY         TZ
-------------------------------------------------------------------
   6:        49.85    6.991967  (  0.708094  -2.160410  -1.350259)
   7:        80.57    2.969519  (  0.633311   1.145445  -1.120889)
   8:       180.85    1.259102  (  0.795855  -0.274498  -0.741868)
   9:       197.52    0.090934  (  0.032955  -0.215295  -0.208558)
  10:       254.93    5.977414  (  2.377964   0.204498   0.529985)
  11:       305.62    1.748490  (  0.658152   0.622622   0.963155)
  12:       364.41    5.621381  ( -0.025157   0.578863  -2.299057)
  13:       444.39    4.027582  ( -0.702792  -0.410649  -1.834403)
  14:       662.01    3.781500  (  1.335483   0.942509   1.053405)
  15:       758.52    6.309925  (  0.610050   0.100008   2.434700)
  16:       818.84   23.955443  ( -4.828074  -0.237836  -0.767188)
  17:       869.87    5.241696  ( -1.333721  -0.696120   1.725775)
  18:       877.86   10.374458  ( -1.027924   0.554620   3.001704)
  19:       898.54    8.681579  (  0.392521  -0.799461   2.808624)
  20:       930.61    3.096003  (  1.473298   0.925599  -0.262034)
  21:       964.63   15.354009  (  3.762672   0.964496   0.515804)
  22:      1007.84   11.163243  ( -0.686681   3.087990   1.075188)
  23:      1028.19  107.702612  (  0.480014   1.896104 -10.192006)
  24:      1096.98    2.290011  ( -0.734466   0.021332   1.322919)
  25:      1140.29   12.954284  (  2.610167   0.844006   2.330014)
  26:      1160.65    1.135462  (  0.077700  -0.908083   0.552096)
  27:      1185.35    2.048342  ( -0.543339  -0.673206   1.140140)
  28:      1219.91    1.172388  ( -1.080944   0.054723  -0.030865)
  29:      1251.99    3.483532  (  0.391579  -1.400631  -1.169799)
  30:      1269.80    3.276266  (  1.405229   1.140866  -0.004631)
  31:      1302.77    1.851747  ( -1.344122   0.031574   0.209968)
  32:      1315.10   11.704395  ( -1.843304   0.061987  -2.881455)
  33:      1404.58    0.993323  ( -0.075667  -0.688751   0.716394)
  34:      1422.37    3.729324  ( -1.600183  -0.828462  -0.694543)
  35:      1432.50    7.565285  ( -2.640614   0.169703   0.750762)
  36:      1479.94   14.311684  (  1.418694  -3.475079   0.472038)
  37:      1486.07    6.399202  (  0.661758  -0.236313   2.430110)
  38:      1495.27   19.312869  ( -0.952658  -0.028068  -4.290049)
  39:      1631.51   66.867860  (  7.531099   2.746696  -1.614330)
  40:      1871.00  145.165720  ( -2.019986  -2.393975  11.634185)
  41:      2885.99   84.544800  ( -8.812535  -2.566151   0.546720)
  42:      3009.47   10.114953  ( -2.354564  -1.937143   0.904686)
  43:      3072.56    4.336244  (  1.189059   0.807322   1.506856)
  44:      3151.25    4.434235  ( -0.866140   1.139036  -1.544873)
  45:      3166.14    0.857595  (  0.666201   0.449505   0.460127)
  46:      3169.78    4.191376  ( -0.770675  -0.076076  -1.895164)
  47:      3182.09    1.919999  ( -0.123202  -1.039765   0.907585)
  48:      3272.30    6.988644  (  0.569318  -2.525272  -0.536209)
  49:      3510.64  117.408035  ( 10.506580   2.025595  -1.707859)
  50:      3613.38  125.876672  (  3.597342 -10.300557  -2.614256)

--------------------------
THERMOCHEMISTRY AT 298.15K
--------------------------

Temperature         ... 298.15 K
Pressure            ... 1.00 atm
Total Mass          ... 100.14 AMU

Throughout the following assumptions are being made:
  (1) The electronic state is orbitally nondegenerate
  (2) There are no thermally accessible electronically excited states
  (3) Hindered rotations indicated by low frequency modes) are not
      treated as such but are treated as vibrations and this may
      case some error
  (4) All equations used are the standard statistical mechanics
      equations for an ideal gas
  (5) All vibrations are strinctly harmonic

------------
INNER ENERGY
------------

The inner energy is: U= E(el) + E(ZPE) + E(vib) + E(rot) + E(trans)
    E(el)   - is the total energy from the electronic structure calculation
              = E(kin-el) + E(nuc-el) + E(el-el) + E(nuc-nuc)
    E(ZPE)  - the the zero temperature vibrational energy from the frequency calculation
    E(vib)  - the the finite temperature correction to E(ZPE) due to population
              of excietd vibrational states
    E(rot)  - is the rotational thermal energy
    E(trans)- is the translational thermal energy

Summary of contributions to the inner energy U:
Electronic energy                ...   -325.97041648 Eh
Zero point energy                ...      0.15011920 Eh      94.20 kcal/mol
Thermal vibrational correction   ...      0.00508395 Eh       3.19 kcal/mol
Thermal rotational correction    ...      0.00141627 Eh       0.89 kcal/mol
Thermal translational correction ...      0.00141627 Eh       0.89 kcal/mol
-----------------------------------------------------------------------
Total thermal energy                   -325.81238079 Eh

Summary of corrections to the electronic energy:
(perhaps to be used in another calculation)
Total thermal correction                  0.00791649 Eh       4.97 kcal/mol
Non-thermal (ZPE) correction              0.15011920 Eh      94.20 kcal/mol
-----------------------------------------------------------------------
Total correction                          0.15803569 Eh      99.17 kcal/mol

--------
ENTHALPY
--------

The enthalpy is H = U + kB*T
                kB is Boltzmann's constant
Total free energy                 ...   -325.81238079 Eh
Thermal Enthalpy correction       ...      0.00094421 Eh       0.59 kcal/mol
-----------------------------------------------------------------------
Total Enthalpy                    ...   -325.81143658 Eh

-------
ENTROPY
-------

The entropy contributions are T*S = T*(S(el)+S(vib)+S(rot)+S(trans)
     S(el)   - electronic entropy
     S(vib)  - vibrational entropy
     S(rot)  - rotational entropy
     S(trans)- translational entropy
The entropies will be listed as mutliplied by the temperature to get
units of energy

Electronic entropy                ...      0.00000000 Eh      0.00 kcal/mol
Vibrational entropy               ...      0.00963615 Eh      6.05 kcal/mol
Rotational entropy                ...      0.01211916 Eh      7.60 kcal/mol
Translational entropy             ...      0.01887324 Eh     11.84 kcal/mol
-----------------------------------------------------------------------
Final entropy term                ...      0.04062855 Eh     25.49 kcal/mol

CAUTION: The rotational entropy is not quite correctly treated here
         because it includes a symmetry number that is not yet correctly
         implemented in ORCA!
For a nonlinear molecule the correct rotational entropy is:
    S(rot) = R*(ln(qrot/sn)+1.5)
    R    = 8.31441 J/mol/K = 1.987191683e-3 kcal/mol/K
    qrot = 251260.4969167
    sn is the rotational symmetry number. We have assumed 3 here
       if it is different for your molecule then you should correct
       the printed rotational entropy by manually evaluating the equation
       as given above

For convenience we print out the resulting values for sn=1 - 12:
 sn= 1  qrot/sn=  251260.4969 T*S(rot)=     8.26 kcal/mol T*S(tot)=    26.15 kcal/mol
 sn= 2  qrot/sn=  125630.2485 T*S(rot)=     7.85 kcal/mol T*S(tot)=    25.73 kcal/mol
 sn= 3  qrot/sn=   83753.4990 T*S(rot)=     7.60 kcal/mol T*S(tot)=    25.49 kcal/mol
 sn= 4  qrot/sn=   62815.1242 T*S(rot)=     7.43 kcal/mol T*S(tot)=    25.32 kcal/mol
 sn= 5  qrot/sn=   50252.0994 T*S(rot)=     7.30 kcal/mol T*S(tot)=    25.19 kcal/mol
 sn= 6  qrot/sn=   41876.7495 T*S(rot)=     7.19 kcal/mol T*S(tot)=    25.08 kcal/mol
 sn= 7  qrot/sn=   35894.3567 T*S(rot)=     7.10 kcal/mol T*S(tot)=    24.99 kcal/mol
 sn= 8  qrot/sn=   31407.5621 T*S(rot)=     7.02 kcal/mol T*S(tot)=    24.91 kcal/mol
 sn= 9  qrot/sn=   27917.8330 T*S(rot)=     6.95 kcal/mol T*S(tot)=    24.84 kcal/mol
 sn=10  qrot/sn=   25126.0497 T*S(rot)=     6.89 kcal/mol T*S(tot)=    24.78 kcal/mol
 sn=11  qrot/sn=   22841.8634 T*S(rot)=     6.84 kcal/mol T*S(tot)=    24.72 kcal/mol
 sn=12  qrot/sn=   20938.3747 T*S(rot)=     6.78 kcal/mol T*S(tot)=    24.67 kcal/mol

-------------------
GIBBS FREE ENTHALPY
-------------------

The Gibbs free enthalpy is G = H - T*S

Total enthalpy                    ...   -325.81143658 Eh
Total entropy correction          ...     -0.04062855 Eh    -25.49 kcal/mol
-----------------------------------------------------------------------
Final Gibbs free enthalpy         ...   -325.85206513 Eh

For completeness - the Gibbs free enthalpy minus the electronic energy
G-E(el)                           ...      0.11835135 Eh     74.27 kcal/mol

                             ****ORCA TERMINATED NORMALLY****
TOTAL RUN TIME: 0 days 0 hours 48 minutes 20 seconds 256 msec
