                         Program Version 3.0.3 - RELEASE   -
|  1> ! NORI PBE0 def2-TZVP UseSym TightOPT Freq TightSCF Grid3 FinalGrid5 XYZFile
|  2> % pal
|  3>     nprocs 8
|  4> end
|  5> %method
|  6>     SymThresh 5.0e-2
|  7> end
|  8> % geom
|  9>     MaxIter 10
| 10> end
| 11> % maxcore 2000
| 12> % output
| 13>     printlevel mini
| 14>     print[ P_Basis ] 0
| 15>     print[ P_SCFInfo ] 1
| 16>     print[ P_SCFIterInfo ] 1
| 17>     print[ P_OrbEn ] 0
| 18>     print[ P_Cartesian ] 0
| 19> end
| 20> % elprop
| 21>     Dipole false
| 22> end
| 23> *xyz 1 1
| 24>  C        1.2636050272    -0.2962554583     0.1462049609
| 25>  C        2.7563084502    -0.1027407551    -0.0695379000
| 26>  C        3.0491376105     0.7405525724    -1.2998274370
| 27>  O        3.3700645692     0.4407193964     1.0934787103
| 28>  C        3.4415371138    -1.4498600848    -0.2241084211
| 29>  C        4.8687867698    -1.6209663516     0.0787830044
| 30>  N        3.8540819700    -2.0695900990     1.0611858071
| 31>  H        0.7951486711    -0.7614176523    -0.7233379982
| 32>  H        0.7829255320     0.6723625302     0.2982430145
| 33>  H        1.0635105088    -0.9134313763     1.0251174435
| 34>  H        2.6624571522     0.2674405601    -2.2050549432
| 35>  H        4.1212788524     0.9044618941    -1.4174545814
| 36>  H        2.5605591087     1.7121549660    -1.2051728691
| 37>  H        2.9894939678     1.3001017555     1.2980052333
| 38>  H        2.9829011024    -2.1496012945    -0.9130276227
| 39>  H        5.4349496549    -0.7645191492     0.4208382152
| 40>  H        5.4215710676    -2.4254054029    -0.3879909699
| 41>  H        3.7158921135    -3.0597562465     1.2238332923
| 42>  H        3.7224507578    -1.4473398042     1.8590630613
| 43> *
| 44>
| 45>                          ****END OF INPUT****
 Total Charge           Charge          ....    1
 Multiplicity           Mult            ....    1
 Number of Electrons    NEL             ....   56
FINAL SINGLE POINT ENERGY      -327.211293703977

CARTESIAN COORDINATES (ANGSTROEM)
---------------------------------
  C     -0.936150   -1.747178    0.017640
  C     -0.643977   -0.263037    0.172882
  C     -1.894363    0.584516    0.003719
  O     -0.000270   -0.000348    1.414436
  C      0.389128    0.175898   -0.851267
  C      1.236645    1.354769   -0.626470
  N      1.795379    0.000281   -0.405601
  H     -1.382264   -1.963174   -0.955212
  H     -1.647438   -2.066395    0.782273
  H     -0.029806   -2.346867    0.129498
  H     -2.328631    0.455404   -0.989940
  H     -1.675777    1.642172    0.158904
  H     -2.648203    0.278258    0.732062
  H     -0.568038   -0.264403    2.144569
  H      0.218623   -0.136816   -1.874758
  H      1.117185    1.914969    0.291424
  H      1.660664    1.877486   -1.473594
  H      2.495470   -0.363811   -1.040553
  H      1.867001   -0.281726    0.572582

FINAL SINGLE POINT ENERGY      -327.211294650507
                    ***********************HURRAY********************
 Multiplicity           Mult            ....    1
 Number of Electrons    NEL             ....   56
 Basis Dimension        Dim             ....  289
FINAL SINGLE POINT ENERGY      -327.211294966827

VIBRATIONAL FREQUENCIES
-----------------------

   0:         0.00 cm**-1
   1:         0.00 cm**-1
   2:         0.00 cm**-1
   3:         0.00 cm**-1
   4:         0.00 cm**-1
   5:         0.00 cm**-1
   6:       108.73 cm**-1
   7:       208.61 cm**-1
   8:       223.92 cm**-1
   9:       243.86 cm**-1
  10:       254.60 cm**-1
  11:       301.11 cm**-1
  12:       325.21 cm**-1
  13:       388.25 cm**-1
  14:       400.31 cm**-1
  15:       514.22 cm**-1
  16:       553.91 cm**-1
  17:       728.17 cm**-1
  18:       830.89 cm**-1
  19:       861.64 cm**-1
  20:       897.75 cm**-1
  21:       919.90 cm**-1
  22:       939.28 cm**-1
  23:       953.66 cm**-1
  24:       986.60 cm**-1
  25:      1018.99 cm**-1
  26:      1042.98 cm**-1
  27:      1073.15 cm**-1
  28:      1158.32 cm**-1
  29:      1169.79 cm**-1
  30:      1179.61 cm**-1
  31:      1235.35 cm**-1
  32:      1240.18 cm**-1
  33:      1260.74 cm**-1
  34:      1282.06 cm**-1
  35:      1322.79 cm**-1
  36:      1404.87 cm**-1
  37:      1418.27 cm**-1
  38:      1433.40 cm**-1
  39:      1465.72 cm**-1
  40:      1475.32 cm**-1
  41:      1479.36 cm**-1
  42:      1496.00 cm**-1
  43:      1508.07 cm**-1
  44:      1586.61 cm**-1
  45:      3056.03 cm**-1
  46:      3061.23 cm**-1
  47:      3136.56 cm**-1
  48:      3138.75 cm**-1
  49:      3144.00 cm**-1
  50:      3149.36 cm**-1
  51:      3177.98 cm**-1
  52:      3211.62 cm**-1
  53:      3283.30 cm**-1
  54:      3451.18 cm**-1
  55:      3606.72 cm**-1
  56:      3859.82 cm**-1

IR SPECTRUM
-----------

 Mode    freq (cm**-1)   T**2         TX         TY         TZ
-------------------------------------------------------------------
   6:       108.73    7.284594  ( -0.443197   2.466204   1.003000)
   7:       208.61    6.782178  ( -1.596287   1.733866   1.108041)
   8:       223.92    8.921608  ( -1.160417   2.692212   0.571870)
   9:       243.86   92.759155  ( -3.098564   9.116665   0.210902)
  10:       254.60    6.046365  ( -0.214910  -1.963198   1.464935)
  11:       301.11   11.409382  (  1.890771   0.708243  -2.707907)
  12:       325.21    3.207148  ( -1.769766  -0.184100   0.202941)
  13:       388.25   12.924915  ( -2.397016   2.609476   0.608166)
  14:       400.31    7.248779  (  2.170152   0.709998  -1.426577)
  15:       514.22    3.465241  ( -0.080117   1.773761  -0.559100)
  16:       553.91    9.393061  (  0.733792  -0.082759   2.974519)
  17:       728.17    0.796851  ( -0.641899  -0.503769  -0.361986)
  18:       830.89    6.065102  ( -1.406220   1.856331   0.801052)
  19:       861.64   26.809710  ( -3.607351   1.572052  -3.365320)
  20:       897.75   11.525744  ( -2.269338   0.154498   2.520314)
  21:       919.90   15.227932  ( -3.422154  -1.141698  -1.487723)
  22:       939.28    0.103475  ( -0.288694  -0.138156   0.032305)
  23:       953.66    9.549368  ( -1.907702   2.370616   0.538725)
  24:       986.60   10.231808  ( -1.672488  -0.313733  -2.708535)
  25:      1018.99    7.952130  (  2.574294   0.623218   0.967855)
  26:      1042.98   86.126793  ( -5.302322  -5.870162  -4.853182)
  27:      1073.15   61.444342  (  3.877311   3.215086  -6.006165)
  28:      1158.32   20.413589  (  2.171907   0.962929   3.843069)
  29:      1169.79    7.897411  (  1.494839   0.112976   2.376995)
  30:      1179.61    2.284331  (  1.428633   0.126164  -0.476887)
  31:      1235.35   11.495753  (  1.867952  -2.123435   1.870170)
  32:      1240.18   67.029091  ( -5.167908  -2.761750  -5.717916)
  33:      1260.74    2.093274  ( -1.097772   0.887513   0.317005)
  34:      1282.06    4.275588  (  0.408994  -0.935462   1.798117)
  35:      1322.79   23.852090  (  4.422353   1.786201   1.050891)
  36:      1404.87   18.833511  ( -2.489239   3.542228  -0.299709)
  37:      1418.27   27.688795  ( -3.988745  -3.190899  -1.263674)
  38:      1433.40    4.669161  (  1.072006   1.875446  -0.051651)
  39:      1465.72    0.041315  (  0.199614  -0.022851  -0.030774)
  40:      1475.32    0.518521  ( -0.421384   0.536345  -0.230850)
  41:      1479.36   13.898002  ( -0.934648   3.566895   0.549271)
  42:      1496.00    8.895684  ( -1.594948  -0.791262  -2.392850)
  43:      1508.07   14.156780  ( -0.492226  -0.491040   3.697752)
  44:      1586.61   77.451879  ( -7.990222   3.388043  -1.459246)
  45:      3056.03    3.998966  (  0.935612  -1.767009  -0.035745)
  46:      3061.23    0.298581  ( -0.418245   0.308194  -0.169316)
  47:      3136.56    7.023472  (  2.383204  -1.155990  -0.086578)
  48:      3138.75    2.970355  (  1.593068  -0.321179  -0.573877)
  49:      3144.00    7.830455  ( -0.011184  -0.838255   2.669767)
  50:      3149.36    6.763470  (  1.052894   2.231892   0.820696)
  51:      3177.98    2.875778  (  0.202944   1.556971   0.640650)
  52:      3211.62    1.071721  (  0.129316   0.124108   1.019606)
  53:      3283.30    7.986435  ( -0.691447   0.330907   2.720080)
  54:      3451.18  100.865367  (  3.724626  -5.267054   7.697446)
  55:      3606.72  164.127162  (  8.229652  -2.202912  -9.568028)
  56:      3859.82   94.209479  ( -3.283935  -1.497760   9.010103)

--------------------------
THERMOCHEMISTRY AT 298.15K
--------------------------

Temperature         ... 298.15 K
Pressure            ... 1.00 atm
Total Mass          ... 102.16 AMU

Throughout the following assumptions are being made:
  (1) The electronic state is orbitally nondegenerate
  (2) There are no thermally accessible electronically excited states
  (3) Hindered rotations indicated by low frequency modes) are not
      treated as such but are treated as vibrations and this may
      case some error
  (4) All equations used are the standard statistical mechanics
      equations for an ideal gas
  (5) All vibrations are strinctly harmonic

------------
INNER ENERGY
------------

The inner energy is: U= E(el) + E(ZPE) + E(vib) + E(rot) + E(trans)
    E(el)   - is the total energy from the electronic structure calculation
              = E(kin-el) + E(nuc-el) + E(el-el) + E(nuc-nuc)
    E(ZPE)  - the the zero temperature vibrational energy from the frequency calculation
    E(vib)  - the the finite temperature correction to E(ZPE) due to population
              of excietd vibrational states
    E(rot)  - is the rotational thermal energy
    E(trans)- is the translational thermal energy

Summary of contributions to the inner energy U:
Electronic energy                ...   -327.21129497 Eh
Zero point energy                ...      0.17352516 Eh     108.89 kcal/mol
Thermal vibrational correction   ...      0.00533695 Eh       3.35 kcal/mol
Thermal rotational correction    ...      0.00141627 Eh       0.89 kcal/mol
Thermal translational correction ...      0.00141627 Eh       0.89 kcal/mol
-----------------------------------------------------------------------
Total thermal energy                   -327.02960032 Eh

Summary of corrections to the electronic energy:
(perhaps to be used in another calculation)
Total thermal correction                  0.00816949 Eh       5.13 kcal/mol
Non-thermal (ZPE) correction              0.17352516 Eh     108.89 kcal/mol
-----------------------------------------------------------------------
Total correction                          0.18169465 Eh     114.01 kcal/mol

--------
ENTHALPY
--------

The enthalpy is H = U + kB*T
                kB is Boltzmann's constant
Total free energy                 ...   -327.02960032 Eh
Thermal Enthalpy correction       ...      0.00094421 Eh       0.59 kcal/mol
-----------------------------------------------------------------------
Total Enthalpy                    ...   -327.02865611 Eh

-------
ENTROPY
-------

The entropy contributions are T*S = T*(S(el)+S(vib)+S(rot)+S(trans)
     S(el)   - electronic entropy
     S(vib)  - vibrational entropy
     S(rot)  - rotational entropy
     S(trans)- translational entropy
The entropies will be listed as mutliplied by the temperature to get
units of energy

Electronic entropy                ...      0.00000000 Eh      0.00 kcal/mol
Vibrational entropy               ...      0.00876411 Eh      5.50 kcal/mol
Rotational entropy                ...      0.01195780 Eh      7.50 kcal/mol
Translational entropy             ...      0.01890147 Eh     11.86 kcal/mol
-----------------------------------------------------------------------
Final entropy term                ...      0.03962338 Eh     24.86 kcal/mol

CAUTION: The rotational entropy is not quite correctly treated here
         because it includes a symmetry number that is not yet correctly
         implemented in ORCA!
For a nonlinear molecule the correct rotational entropy is:
    S(rot) = R*(ln(qrot/sn)+1.5)
    R    = 8.31441 J/mol/K = 1.987191683e-3 kcal/mol/K
    qrot = 211789.5004873
    sn is the rotational symmetry number. We have assumed 3 here
       if it is different for your molecule then you should correct
       the printed rotational entropy by manually evaluating the equation
       as given above

For convenience we print out the resulting values for sn=1 - 12:
 sn= 1  qrot/sn=  211789.5005 T*S(rot)=     8.15 kcal/mol T*S(tot)=    25.51 kcal/mol
 sn= 2  qrot/sn=  105894.7502 T*S(rot)=     7.74 kcal/mol T*S(tot)=    25.10 kcal/mol
 sn= 3  qrot/sn=   70596.5002 T*S(rot)=     7.50 kcal/mol T*S(tot)=    24.86 kcal/mol
 sn= 4  qrot/sn=   52947.3751 T*S(rot)=     7.33 kcal/mol T*S(tot)=    24.69 kcal/mol
 sn= 5  qrot/sn=   42357.9001 T*S(rot)=     7.20 kcal/mol T*S(tot)=    24.56 kcal/mol
 sn= 6  qrot/sn=   35298.2501 T*S(rot)=     7.09 kcal/mol T*S(tot)=    24.45 kcal/mol
 sn= 7  qrot/sn=   30255.6429 T*S(rot)=     7.00 kcal/mol T*S(tot)=    24.36 kcal/mol
 sn= 8  qrot/sn=   26473.6876 T*S(rot)=     6.92 kcal/mol T*S(tot)=    24.28 kcal/mol
 sn= 9  qrot/sn=   23532.1667 T*S(rot)=     6.85 kcal/mol T*S(tot)=    24.21 kcal/mol
 sn=10  qrot/sn=   21178.9500 T*S(rot)=     6.79 kcal/mol T*S(tot)=    24.15 kcal/mol
 sn=11  qrot/sn=   19253.5910 T*S(rot)=     6.73 kcal/mol T*S(tot)=    24.09 kcal/mol
 sn=12  qrot/sn=   17649.1250 T*S(rot)=     6.68 kcal/mol T*S(tot)=    24.04 kcal/mol

-------------------
GIBBS FREE ENTHALPY
-------------------

The Gibbs free enthalpy is G = H - T*S

Total enthalpy                    ...   -327.02865611 Eh
Total entropy correction          ...     -0.03962338 Eh    -24.86 kcal/mol
-----------------------------------------------------------------------
Final Gibbs free enthalpy         ...   -327.06827948 Eh

For completeness - the Gibbs free enthalpy minus the electronic energy
G-E(el)                           ...      0.14301548 Eh     89.74 kcal/mol

                             ****ORCA TERMINATED NORMALLY****
TOTAL RUN TIME: 0 days 0 hours 54 minutes 21 seconds 361 msec
