                         Program Version 3.0.3 - RELEASE   -
|  1> ! NORI PBE0 def2-TZVP UseSym TightOPT Freq TightSCF Grid3 FinalGrid5 XYZFile
|  2> % pal
|  3>     nprocs 8
|  4> end
|  5> %method
|  6>     SymThresh 5.0e-2
|  7> end
|  8> % geom
|  9>     MaxIter 10
| 10> end
| 11> % maxcore 2000
| 12> % output
| 13>     printlevel mini
| 14>     print[ P_Basis ] 0
| 15>     print[ P_SCFInfo ] 1
| 16>     print[ P_SCFIterInfo ] 1
| 17>     print[ P_OrbEn ] 0
| 18>     print[ P_Cartesian ] 0
| 19> end
| 20> % elprop
| 21>     Dipole false
| 22> end
| 23> *xyz 1 1
| 24>  C        1.2856552121    -0.4304306207    -0.6991152522
| 25>  C        2.7029107972    -0.2048206834    -0.1816627086
| 26>  C        3.1907387730     1.2149491457    -0.4327857796
| 27>  O        2.4451588013     2.1041362030     0.3963427845
| 28>  C        2.8057474980    -0.6401211949     1.2609428060
| 29>  C        3.7085022618    -0.0582971478     2.2683228607
| 30>  N        2.2760450998     0.2983468525     2.2947458139
| 31>  H        1.2421023915    -0.2478603921    -1.7737707234
| 32>  H        0.5730172361     0.2428994315    -0.2191302213
| 33>  H        0.9585921716    -1.4579145764    -0.5270126390
| 34>  H        3.3865940287    -0.8662714231    -0.7271149783
| 35>  H        3.0381308067     1.4546401458    -1.4886347266
| 36>  H        4.2625977850     1.3074791483    -0.2205992356
| 37>  H        2.5676990248     3.0147884464     0.1148493824
| 38>  H        2.4882429411    -1.6600990840     1.4510118789
| 39>  H        4.3511987374     0.7719941475     2.0079109823
| 40>  H        4.0366631350    -0.6687769073     3.0994571066
| 41>  H        1.6905284836    -0.0542322421     3.0419980315
| 42>  H        2.0591048153     1.2293707511     1.9107446178
| 43> *
| 44>
| 45>                          ****END OF INPUT****
 Total Charge           Charge          ....    1
 Multiplicity           Mult            ....    1
 Number of Electrons    NEL             ....   56
FINAL SINGLE POINT ENERGY      -327.208050287134
FINAL SINGLE POINT ENERGY      -327.208051704390
FINAL SINGLE POINT ENERGY      -327.208051945462

CARTESIAN COORDINATES (ANGSTROEM)
---------------------------------
  C     -1.171574   -1.679455   -0.434572
  C     -0.961492   -0.168325   -0.433426
  C     -1.101666    0.433644    0.957612
  O      0.000725    0.000478    1.752051
  C      0.337830    0.176512   -1.122351
  C      1.189648    1.337127   -0.813840
  N      1.593522    0.000507   -0.333035
  H     -2.167014   -1.921280   -0.060398
  H     -0.445530   -2.184630    0.205638
  H     -1.088879   -2.091791   -1.442065
  H     -1.740960    0.295788   -1.049684
  H     -2.045751    0.092882    1.390883
  H     -1.130785    1.528413    0.912557
  H     -0.159019    0.178645    2.682773
  H      0.439513   -0.224970   -2.125285
  H      0.917809    2.014417   -0.015200
  H      1.823593    1.748117   -1.588495
  H      2.392935   -0.457198   -0.753490
  H      1.410751   -0.167470    0.667330

FINAL SINGLE POINT ENERGY      -327.208052301129
                    ***********************HURRAY********************
 Multiplicity           Mult            ....    1
 Number of Electrons    NEL             ....   56
 Basis Dimension        Dim             ....  289
FINAL SINGLE POINT ENERGY      -327.208052375356

VIBRATIONAL FREQUENCIES
-----------------------

   0:         0.00 cm**-1
   1:         0.00 cm**-1
   2:         0.00 cm**-1
   3:         0.00 cm**-1
   4:         0.00 cm**-1
   5:         0.00 cm**-1
   6:        92.93 cm**-1
   7:       169.20 cm**-1
   8:       208.96 cm**-1
   9:       242.58 cm**-1
  10:       289.68 cm**-1
  11:       296.33 cm**-1
  12:       331.15 cm**-1
  13:       418.30 cm**-1
  14:       459.88 cm**-1
  15:       681.81 cm**-1
  16:       726.73 cm**-1
  17:       826.15 cm**-1
  18:       878.23 cm**-1
  19:       911.88 cm**-1
  20:       927.04 cm**-1
  21:       956.84 cm**-1
  22:       973.81 cm**-1
  23:      1000.76 cm**-1
  24:      1062.50 cm**-1
  25:      1076.26 cm**-1
  26:      1142.45 cm**-1
  27:      1149.58 cm**-1
  28:      1165.41 cm**-1
  29:      1175.71 cm**-1
  30:      1195.11 cm**-1
  31:      1227.55 cm**-1
  32:      1264.59 cm**-1
  33:      1277.54 cm**-1
  34:      1301.34 cm**-1
  35:      1334.26 cm**-1
  36:      1380.21 cm**-1
  37:      1413.44 cm**-1
  38:      1421.10 cm**-1
  39:      1451.19 cm**-1
  40:      1486.27 cm**-1
  41:      1492.96 cm**-1
  42:      1498.27 cm**-1
  43:      1524.04 cm**-1
  44:      1592.08 cm**-1
  45:      3039.01 cm**-1
  46:      3060.78 cm**-1
  47:      3064.44 cm**-1
  48:      3099.07 cm**-1
  49:      3140.62 cm**-1
  50:      3149.22 cm**-1
  51:      3178.22 cm**-1
  52:      3189.33 cm**-1
  53:      3268.61 cm**-1
  54:      3277.67 cm**-1
  55:      3593.28 cm**-1
  56:      3869.35 cm**-1

IR SPECTRUM
-----------

 Mode    freq (cm**-1)   T**2         TX         TY         TZ
-------------------------------------------------------------------
   6:        92.93    5.097213  ( -0.222002  -2.104030  -0.788027)
   7:       169.20    3.300951  ( -0.689676  -1.195647   1.181409)
   8:       208.96    0.377222  ( -0.595889   0.000580   0.148789)
   9:       242.58    1.087296  (  0.629636   0.783496   0.277467)
  10:       289.68   84.767864  ( -2.152717  -8.951377  -0.080740)
  11:       296.33   66.072402  ( -4.730698  -4.077280   5.202757)
  12:       331.15    9.728376  ( -1.956121  -1.952999  -1.444910)
  13:       418.30    1.822351  ( -1.016203   0.256779  -0.850733)
  14:       459.88    1.741859  (  0.975680   0.887180   0.053103)
  15:       681.81   10.506499  ( -0.475335   0.793629  -3.106559)
  16:       726.73    2.600645  (  0.621413  -0.050307   1.487266)
  17:       826.15    7.351278  ( -1.972051   1.486818  -1.118778)
  18:       878.23    6.405616  (  0.789809  -2.385430  -0.302561)
  19:       911.88   24.867106  (  4.884168   0.681757   0.739740)
  20:       927.04   13.441011  (  0.280393   0.390429  -3.634550)
  21:       956.84    1.696466  ( -0.952565   0.156238   0.874457)
  22:       973.81    1.824528  ( -0.335235  -1.289732   0.220766)
  23:      1000.76   36.301250  (  3.487038  -1.820726   4.563636)
  24:      1062.50   32.986357  ( -1.942140  -5.296800  -1.076273)
  25:      1076.26   39.017649  (  5.349907   0.098104   3.222813)
  26:      1142.45   43.365586  (  5.651991   3.378486   0.080132)
  27:      1149.58    8.158944  (  2.665589   0.600797  -0.832240)
  28:      1165.41    0.577281  (  0.708320  -0.052566   0.269816)
  29:      1175.71    3.094972  (  1.236832  -0.849559   0.918406)
  30:      1195.11    7.394722  ( -1.699532  -1.972905   0.783555)
  31:      1227.55   57.235951  (  5.838337  -2.837332   3.885784)
  32:      1264.59    0.736492  (  0.074630  -0.158272   0.840162)
  33:      1277.54   10.769707  ( -2.611058  -0.080453  -1.986356)
  34:      1301.34   10.382642  (  1.338469   1.442443  -2.551569)
  35:      1334.26   10.085649  ( -2.916783   0.941210  -0.831954)
  36:      1380.21    3.257490  ( -1.432417   1.092101  -0.113966)
  37:      1413.44    5.660453  (  0.446503   2.335460   0.081938)
  38:      1421.10    1.885359  ( -0.862986   0.926557   0.531137)
  39:      1451.19    0.363433  (  0.513027   0.053800   0.311996)
  40:      1486.27   10.293282  (  2.588171  -1.514774   1.140225)
  41:      1492.96    8.840889  (  1.471050   2.538506  -0.482585)
  42:      1498.27   13.426540  (  0.562971   1.172416   3.425645)
  43:      1524.04    9.918019  ( -1.000822   2.289747   1.916619)
  44:      1592.08   93.792080  ( -9.198105   2.931117   0.771682)
  45:      3039.01   24.709126  ( -2.506328   4.291966   0.080467)
  46:      3060.78    1.366141  (  0.277196  -1.052132   0.426990)
  47:      3064.44    7.448189  (  0.451164  -2.661844  -0.399029)
  48:      3099.07   11.255044  (  2.482016   2.178296  -0.591325)
  49:      3140.62    7.026902  (  0.875608  -0.203372   2.493763)
  50:      3149.22    5.308742  (  2.150876  -0.438841  -0.699924)
  51:      3178.22    1.018004  (  0.502811   0.864853  -0.131203)
  52:      3189.33    0.279836  (  0.413443   0.202880  -0.260270)
  53:      3268.61  321.971963  ( -4.792858  -3.658852  16.900097)
  54:      3277.67    5.092661  ( -1.019392   0.034613   2.013033)
  55:      3593.28  157.078360  ( 10.065344  -4.137794  -6.216581)
  56:      3869.35  122.010412  ( -0.035402   1.035460  10.997135)

--------------------------
THERMOCHEMISTRY AT 298.15K
--------------------------

Temperature         ... 298.15 K
Pressure            ... 1.00 atm
Total Mass          ... 102.16 AMU

Throughout the following assumptions are being made:
  (1) The electronic state is orbitally nondegenerate
  (2) There are no thermally accessible electronically excited states
  (3) Hindered rotations indicated by low frequency modes) are not
      treated as such but are treated as vibrations and this may
      case some error
  (4) All equations used are the standard statistical mechanics
      equations for an ideal gas
  (5) All vibrations are strinctly harmonic

------------
INNER ENERGY
------------

The inner energy is: U= E(el) + E(ZPE) + E(vib) + E(rot) + E(trans)
    E(el)   - is the total energy from the electronic structure calculation
              = E(kin-el) + E(nuc-el) + E(el-el) + E(nuc-nuc)
    E(ZPE)  - the the zero temperature vibrational energy from the frequency calculation
    E(vib)  - the the finite temperature correction to E(ZPE) due to population
              of excietd vibrational states
    E(rot)  - is the rotational thermal energy
    E(trans)- is the translational thermal energy

Summary of contributions to the inner energy U:
Electronic energy                ...   -327.20805238 Eh
Zero point energy                ...      0.17531343 Eh     110.01 kcal/mol
Thermal vibrational correction   ...      0.00502939 Eh       3.16 kcal/mol
Thermal rotational correction    ...      0.00141627 Eh       0.89 kcal/mol
Thermal translational correction ...      0.00141627 Eh       0.89 kcal/mol
-----------------------------------------------------------------------
Total thermal energy                   -327.02487701 Eh

Summary of corrections to the electronic energy:
(perhaps to be used in another calculation)
Total thermal correction                  0.00786193 Eh       4.93 kcal/mol
Non-thermal (ZPE) correction              0.17531343 Eh     110.01 kcal/mol
-----------------------------------------------------------------------
Total correction                          0.18317536 Eh     114.94 kcal/mol

--------
ENTHALPY
--------

The enthalpy is H = U + kB*T
                kB is Boltzmann's constant
Total free energy                 ...   -327.02487701 Eh
Thermal Enthalpy correction       ...      0.00094421 Eh       0.59 kcal/mol
-----------------------------------------------------------------------
Total Enthalpy                    ...   -327.02393280 Eh

-------
ENTROPY
-------

The entropy contributions are T*S = T*(S(el)+S(vib)+S(rot)+S(trans)
     S(el)   - electronic entropy
     S(vib)  - vibrational entropy
     S(rot)  - rotational entropy
     S(trans)- translational entropy
The entropies will be listed as mutliplied by the temperature to get
units of energy

Electronic entropy                ...      0.00000000 Eh      0.00 kcal/mol
Vibrational entropy               ...      0.00849236 Eh      5.33 kcal/mol
Rotational entropy                ...      0.01200341 Eh      7.53 kcal/mol
Translational entropy             ...      0.01890147 Eh     11.86 kcal/mol
-----------------------------------------------------------------------
Final entropy term                ...      0.03939724 Eh     24.72 kcal/mol

CAUTION: The rotational entropy is not quite correctly treated here
         because it includes a symmetry number that is not yet correctly
         implemented in ORCA!
For a nonlinear molecule the correct rotational entropy is:
    S(rot) = R*(ln(qrot/sn)+1.5)
    R    = 8.31441 J/mol/K = 1.987191683e-3 kcal/mol/K
    qrot = 222271.8978230
    sn is the rotational symmetry number. We have assumed 3 here
       if it is different for your molecule then you should correct
       the printed rotational entropy by manually evaluating the equation
       as given above

For convenience we print out the resulting values for sn=1 - 12:
 sn= 1  qrot/sn=  222271.8978 T*S(rot)=     8.18 kcal/mol T*S(tot)=    25.37 kcal/mol
 sn= 2  qrot/sn=  111135.9489 T*S(rot)=     7.77 kcal/mol T*S(tot)=    24.96 kcal/mol
 sn= 3  qrot/sn=   74090.6326 T*S(rot)=     7.53 kcal/mol T*S(tot)=    24.72 kcal/mol
 sn= 4  qrot/sn=   55567.9745 T*S(rot)=     7.36 kcal/mol T*S(tot)=    24.55 kcal/mol
 sn= 5  qrot/sn=   44454.3796 T*S(rot)=     7.23 kcal/mol T*S(tot)=    24.42 kcal/mol
 sn= 6  qrot/sn=   37045.3163 T*S(rot)=     7.12 kcal/mol T*S(tot)=    24.31 kcal/mol
 sn= 7  qrot/sn=   31753.1283 T*S(rot)=     7.03 kcal/mol T*S(tot)=    24.22 kcal/mol
 sn= 8  qrot/sn=   27783.9872 T*S(rot)=     6.95 kcal/mol T*S(tot)=    24.14 kcal/mol
 sn= 9  qrot/sn=   24696.8775 T*S(rot)=     6.88 kcal/mol T*S(tot)=    24.07 kcal/mol
 sn=10  qrot/sn=   22227.1898 T*S(rot)=     6.82 kcal/mol T*S(tot)=    24.01 kcal/mol
 sn=11  qrot/sn=   20206.5362 T*S(rot)=     6.76 kcal/mol T*S(tot)=    23.95 kcal/mol
 sn=12  qrot/sn=   18522.6582 T*S(rot)=     6.71 kcal/mol T*S(tot)=    23.90 kcal/mol

-------------------
GIBBS FREE ENTHALPY
-------------------

The Gibbs free enthalpy is G = H - T*S

Total enthalpy                    ...   -327.02393280 Eh
Total entropy correction          ...     -0.03939724 Eh    -24.72 kcal/mol
-----------------------------------------------------------------------
Final Gibbs free enthalpy         ...   -327.06333004 Eh

For completeness - the Gibbs free enthalpy minus the electronic energy
G-E(el)                           ...      0.14472234 Eh     90.81 kcal/mol

                             ****ORCA TERMINATED NORMALLY****
TOTAL RUN TIME: 0 days 0 hours 58 minutes 29 seconds 378 msec
