                         Program Version 3.0.3 - RELEASE   -
|  1> ! NORI PBE0 def2-TZVP UseSym TightOPT Freq TightSCF Grid3 FinalGrid5 XYZFile
|  2> % pal
|  3>     nprocs 8
|  4> end
|  5> %method
|  6>     SymThresh 5.0e-2
|  7> end
|  8> % geom
|  9>     MaxIter 10
| 10> end
| 11> % maxcore 2000
| 12> % output
| 13>     printlevel mini
| 14>     print[ P_Basis ] 0
| 15>     print[ P_SCFInfo ] 1
| 16>     print[ P_SCFIterInfo ] 1
| 17>     print[ P_OrbEn ] 0
| 18>     print[ P_Cartesian ] 0
| 19> end
| 20> % elprop
| 21>     Dipole false
| 22> end
| 23> *xyz 1 1
| 24>  C        0.9686169227     0.1488099968    -0.0599869922
| 25>  C        2.4811598461     0.1377816411     0.0094657793
| 26>  C        3.0819343108    -1.2200546307    -0.0323104334
| 27>  O        2.4928630755    -2.2603625574    -0.1830270056
| 28>  C        4.5934631769    -1.3254339067     0.1587485782
| 29>  C        5.0549149953    -2.1854206697     1.2711796019
| 30>  N        5.0245187108    -2.7086446850    -0.1025823106
| 31>  H        0.6029106275     1.1746665186    -0.0357930119
| 32>  H        0.5312582169    -0.3908457334     0.7807159419
| 33>  H        0.6145932626    -0.3203792566    -0.9782337539
| 34>  H        2.8598491650     0.6359923297     0.9135416663
| 35>  H        2.9317035569     0.7035667303    -0.8195366508
| 36>  H        5.2503665761    -0.5489785706    -0.2135371860
| 37>  H        6.0463935329    -2.0402843793     1.6800149966
| 38>  H        4.3142018834    -2.6349661419     1.9213548386
| 39>  H        5.8912086968    -2.8901659549    -0.5963880023
| 40>  H        4.2090534437    -3.2922807304    -0.3368460563
| 41> *
| 42>
| 43>                          ****END OF INPUT****
 Total Charge           Charge          ....    1
 Multiplicity           Mult            ....    1
 Number of Electrons    NEL             ....   54
FINAL SINGLE POINT ENERGY      -325.992412897275

CARTESIAN COORDINATES (ANGSTROEM)
---------------------------------
  C     -2.748090   -0.416271    0.648604
  C     -1.649662   -0.465090   -0.392776
  C     -0.292232   -0.184272    0.141437
  O     -0.000149    0.000434    1.295751
  C      0.853219   -0.091062   -0.864564
  C      1.622408    1.173415   -0.866674
  N      2.132869    0.000010   -0.142407
  H     -3.708545   -0.642899    0.186578
  H     -2.812882    0.570876    1.107303
  H     -2.568844   -1.142058    1.442122
  H     -1.828505    0.237632   -1.219130
  H     -1.594746   -1.449001   -0.881752
  H      0.856580   -0.710720   -1.753064
  H      2.191980    1.448182   -1.745005
  H      1.301423    1.977399   -0.215558
  H      2.950355   -0.492388   -0.484961
  H      1.964014   -0.001989    0.873411

FINAL SINGLE POINT ENERGY      -325.992413295514
                    ***********************HURRAY********************
 Multiplicity           Mult            ....    1
 Number of Electrons    NEL             ....   54
 Basis Dimension        Dim             ....  277
FINAL SINGLE POINT ENERGY      -325.992413436693

VIBRATIONAL FREQUENCIES
-----------------------

   0:         0.00 cm**-1
   1:         0.00 cm**-1
   2:         0.00 cm**-1
   3:         0.00 cm**-1
   4:         0.00 cm**-1
   5:         0.00 cm**-1
   6:        69.80 cm**-1
   7:       103.21 cm**-1
   8:       185.78 cm**-1
   9:       200.68 cm**-1
  10:       261.95 cm**-1
  11:       324.58 cm**-1
  12:       387.50 cm**-1
  13:       553.07 cm**-1
  14:       644.80 cm**-1
  15:       785.66 cm**-1
  16:       793.17 cm**-1
  17:       867.01 cm**-1
  18:       890.33 cm**-1
  19:       913.59 cm**-1
  20:       936.58 cm**-1
  21:      1005.30 cm**-1
  22:      1041.64 cm**-1
  23:      1065.68 cm**-1
  24:      1098.59 cm**-1
  25:      1114.71 cm**-1
  26:      1140.81 cm**-1
  27:      1159.82 cm**-1
  28:      1184.17 cm**-1
  29:      1255.01 cm**-1
  30:      1271.40 cm**-1
  31:      1278.43 cm**-1
  32:      1362.72 cm**-1
  33:      1406.86 cm**-1
  34:      1418.12 cm**-1
  35:      1423.45 cm**-1
  36:      1483.17 cm**-1
  37:      1487.68 cm**-1
  38:      1490.84 cm**-1
  39:      1567.12 cm**-1
  40:      1821.80 cm**-1
  41:      3020.27 cm**-1
  42:      3047.00 cm**-1
  43:      3078.10 cm**-1
  44:      3157.31 cm**-1
  45:      3162.91 cm**-1
  46:      3169.08 cm**-1
  47:      3217.30 cm**-1
  48:      3276.01 cm**-1
  49:      3329.93 cm**-1
  50:      3584.94 cm**-1

IR SPECTRUM
-----------

 Mode    freq (cm**-1)   T**2         TX         TY         TZ
-------------------------------------------------------------------
   6:        69.80    1.775962  ( -0.295109   1.285549  -0.190361)
   7:       103.21    4.217695  (  0.253337  -2.032283  -0.152777)
   8:       185.78    4.211370  ( -0.312441   0.123022   2.024504)
   9:       200.68    1.098781  ( -0.321167   0.984369   0.163251)
  10:       261.95    0.407245  (  0.006481  -0.568043  -0.290741)
  11:       324.58   45.774726  ( -6.470008  -0.967221   1.725747)
  12:       387.50    7.975101  ( -2.617502  -0.747242  -0.751939)
  13:       553.07    0.416852  ( -0.552857   0.309801   0.123387)
  14:       644.80    3.343494  (  1.698086  -0.055140  -0.675988)
  15:       785.66    7.063376  ( -1.324069  -1.189947   1.973384)
  16:       793.17    4.886441  (  0.350757  -2.175307  -0.177341)
  17:       867.01    7.233111  (  1.347283  -1.950119   1.270817)
  18:       890.33   12.245938  ( -3.169787   1.293357  -0.724995)
  19:       913.59   10.918099  ( -2.645482  -1.284250   1.506726)
  20:       936.58   22.194044  (  4.549173   1.111692   0.513042)
  21:      1005.30    9.961188  ( -3.146948   0.240234  -0.013928)
  22:      1041.64   11.264252  (  3.099254   0.943528  -0.876717)
  23:      1065.68   59.415856  ( -3.801785  -5.798680  -3.367135)
  24:      1098.59   27.709820  (  3.896562   3.525930  -0.307322)
  25:      1114.71   23.852290  ( -4.538305  -1.435500   1.093351)
  26:      1140.81   74.070409  (  8.138065   2.327341  -1.557494)
  27:      1159.82    1.349048  (  0.129740   1.017724  -0.544476)
  28:      1184.17   19.806224  (  4.239255   0.974270   0.941138)
  29:      1255.01    5.671310  ( -1.875224  -1.376525  -0.509923)
  30:      1271.40    1.456076  ( -0.094286   0.910433  -0.786319)
  31:      1278.43   12.911985  ( -1.370014  -1.298905   3.057432)
  32:      1362.72    1.909786  ( -0.401652   0.657234  -1.147390)
  33:      1406.86   40.179182  ( -4.434355  -1.538645   4.260076)
  34:      1418.12   42.209823  ( -4.897825  -2.210985  -3.651395)
  35:      1423.45    6.493718  ( -2.364185  -0.512624  -0.800977)
  36:      1483.17   10.223661  (  1.524089  -2.800590   0.239809)
  37:      1487.68   15.051552  ( -0.572420   3.782106  -0.647736)
  38:      1490.84   14.419042  (  3.303065   0.889141   1.648705)
  39:      1567.12  101.049619  ( -7.793699   2.669247  -5.760468)
  40:      1821.80   94.304846  (  2.542880   1.155287   9.300748)
  41:      3020.27   21.996748  ( -4.473038  -0.704047   1.221884)
  42:      3047.00    0.451194  ( -0.428050  -0.338077   0.392009)
  43:      3078.10    4.072315  ( -1.651521   0.126104   1.152776)
  44:      3157.31    4.810325  ( -0.077989   2.189118  -0.109563)
  45:      3162.91    2.603875  ( -1.114190  -0.112150  -1.161842)
  46:      3169.08    3.360755  (  0.033829   1.832648  -0.031791)
  47:      3217.30    4.509404  ( -0.117906   1.119047   1.800899)
  48:      3276.01    9.941481  ( -1.581892   0.872928   2.584008)
  49:      3329.93  133.338109  ( -2.570442  -2.910514  10.874734)
  50:      3584.94  190.807577  ( 11.880207  -4.886054  -5.078851)

--------------------------
THERMOCHEMISTRY AT 298.15K
--------------------------

Temperature         ... 298.15 K
Pressure            ... 1.00 atm
Total Mass          ... 100.14 AMU

Throughout the following assumptions are being made:
  (1) The electronic state is orbitally nondegenerate
  (2) There are no thermally accessible electronically excited states
  (3) Hindered rotations indicated by low frequency modes) are not
      treated as such but are treated as vibrations and this may
      case some error
  (4) All equations used are the standard statistical mechanics
      equations for an ideal gas
  (5) All vibrations are strinctly harmonic

------------
INNER ENERGY
------------

The inner energy is: U= E(el) + E(ZPE) + E(vib) + E(rot) + E(trans)
    E(el)   - is the total energy from the electronic structure calculation
              = E(kin-el) + E(nuc-el) + E(el-el) + E(nuc-nuc)
    E(ZPE)  - the the zero temperature vibrational energy from the frequency calculation
    E(vib)  - the the finite temperature correction to E(ZPE) due to population
              of excietd vibrational states
    E(rot)  - is the rotational thermal energy
    E(trans)- is the translational thermal energy

Summary of contributions to the inner energy U:
Electronic energy                ...   -325.99241344 Eh
Zero point energy                ...      0.15044540 Eh      94.41 kcal/mol
Thermal vibrational correction   ...      0.00484252 Eh       3.04 kcal/mol
Thermal rotational correction    ...      0.00141627 Eh       0.89 kcal/mol
Thermal translational correction ...      0.00141627 Eh       0.89 kcal/mol
-----------------------------------------------------------------------
Total thermal energy                   -325.83429298 Eh

Summary of corrections to the electronic energy:
(perhaps to be used in another calculation)
Total thermal correction                  0.00767506 Eh       4.82 kcal/mol
Non-thermal (ZPE) correction              0.15044540 Eh      94.41 kcal/mol
-----------------------------------------------------------------------
Total correction                          0.15812046 Eh      99.22 kcal/mol

--------
ENTHALPY
--------

The enthalpy is H = U + kB*T
                kB is Boltzmann's constant
Total free energy                 ...   -325.83429298 Eh
Thermal Enthalpy correction       ...      0.00094421 Eh       0.59 kcal/mol
-----------------------------------------------------------------------
Total Enthalpy                    ...   -325.83334877 Eh

-------
ENTROPY
-------

The entropy contributions are T*S = T*(S(el)+S(vib)+S(rot)+S(trans)
     S(el)   - electronic entropy
     S(vib)  - vibrational entropy
     S(rot)  - rotational entropy
     S(trans)- translational entropy
The entropies will be listed as mutliplied by the temperature to get
units of energy

Electronic entropy                ...      0.00000000 Eh      0.00 kcal/mol
Vibrational entropy               ...      0.00880115 Eh      5.52 kcal/mol
Rotational entropy                ...      0.01201707 Eh      7.54 kcal/mol
Translational entropy             ...      0.01887324 Eh     11.84 kcal/mol
-----------------------------------------------------------------------
Final entropy term                ...      0.03969146 Eh     24.91 kcal/mol

CAUTION: The rotational entropy is not quite correctly treated here
         because it includes a symmetry number that is not yet correctly
         implemented in ORCA!
For a nonlinear molecule the correct rotational entropy is:
    S(rot) = R*(ln(qrot/sn)+1.5)
    R    = 8.31441 J/mol/K = 1.987191683e-3 kcal/mol/K
    qrot = 225510.8423788
    sn is the rotational symmetry number. We have assumed 3 here
       if it is different for your molecule then you should correct
       the printed rotational entropy by manually evaluating the equation
       as given above

For convenience we print out the resulting values for sn=1 - 12:
 sn= 1  qrot/sn=  225510.8424 T*S(rot)=     8.19 kcal/mol T*S(tot)=    25.56 kcal/mol
 sn= 2  qrot/sn=  112755.4212 T*S(rot)=     7.78 kcal/mol T*S(tot)=    25.15 kcal/mol
 sn= 3  qrot/sn=   75170.2808 T*S(rot)=     7.54 kcal/mol T*S(tot)=    24.91 kcal/mol
 sn= 4  qrot/sn=   56377.7106 T*S(rot)=     7.37 kcal/mol T*S(tot)=    24.74 kcal/mol
 sn= 5  qrot/sn=   45102.1685 T*S(rot)=     7.24 kcal/mol T*S(tot)=    24.60 kcal/mol
 sn= 6  qrot/sn=   37585.1404 T*S(rot)=     7.13 kcal/mol T*S(tot)=    24.50 kcal/mol
 sn= 7  qrot/sn=   32215.8346 T*S(rot)=     7.04 kcal/mol T*S(tot)=    24.40 kcal/mol
 sn= 8  qrot/sn=   28188.8553 T*S(rot)=     6.96 kcal/mol T*S(tot)=    24.33 kcal/mol
 sn= 9  qrot/sn=   25056.7603 T*S(rot)=     6.89 kcal/mol T*S(tot)=    24.26 kcal/mol
 sn=10  qrot/sn=   22551.0842 T*S(rot)=     6.83 kcal/mol T*S(tot)=    24.19 kcal/mol
 sn=11  qrot/sn=   20500.9857 T*S(rot)=     6.77 kcal/mol T*S(tot)=    24.14 kcal/mol
 sn=12  qrot/sn=   18792.5702 T*S(rot)=     6.72 kcal/mol T*S(tot)=    24.09 kcal/mol

-------------------
GIBBS FREE ENTHALPY
-------------------

The Gibbs free enthalpy is G = H - T*S

Total enthalpy                    ...   -325.83334877 Eh
Total entropy correction          ...     -0.03969146 Eh    -24.91 kcal/mol
-----------------------------------------------------------------------
Final Gibbs free enthalpy         ...   -325.87304023 Eh

For completeness - the Gibbs free enthalpy minus the electronic energy
G-E(el)                           ...      0.11937320 Eh     74.91 kcal/mol

                             ****ORCA TERMINATED NORMALLY****
TOTAL RUN TIME: 0 days 0 hours 41 minutes 18 seconds 46 msec
