                         Program Version 3.0.3 - RELEASE   -
|  1> ! NORI PBE0 def2-TZVP UseSym TightOPT Freq TightSCF Grid3 FinalGrid5 XYZFile
|  2> % pal
|  3>     nprocs 8
|  4> end
|  5> %method
|  6>     SymThresh 5.0e-2
|  7> end
|  8> % geom
|  9>     MaxIter 10
| 10> end
| 11> % maxcore 2000
| 12> % output
| 13>     printlevel mini
| 14>     print[ P_Basis ] 0
| 15>     print[ P_SCFInfo ] 1
| 16>     print[ P_SCFIterInfo ] 1
| 17>     print[ P_OrbEn ] 0
| 18>     print[ P_Cartesian ] 0
| 19> end
| 20> % elprop
| 21>     Dipole false
| 22> end
| 23> *xyz 1 1
| 24>  C        1.2938999807     0.4776265036     0.0372328779
| 25>  C        2.7955548408     0.2465803845     0.0086995189
| 26>  C        3.2794093275    -0.3112963946    -1.3200717768
| 27>  O        3.0473223447     0.5563809581    -2.4111468470
| 28>  C        4.7732921166    -0.5396719334    -1.3315792079
| 29>  C        5.5168559818    -0.6599512880    -2.5938957650
| 30>  N        5.5481151377     0.6192417028    -1.8482492151
| 31>  H        0.9776632320     0.8074866426     1.0269274083
| 32>  H        0.7434783608    -0.4380018648    -0.1944408630
| 33>  H        0.9808279538     1.2568553339    -0.6632559789
| 34>  H        3.3252423958     1.1819212813     0.2240566526
| 35>  H        3.0723754683    -0.4647017960     0.7937431008
| 36>  H        2.8102964278    -1.2892491954    -1.5010072199
| 37>  H        2.1109639111     0.7652133077    -2.4742570661
| 38>  H        5.2052359763    -0.9872543396    -0.4445051180
| 39>  H        6.4608020604    -1.1882209874    -2.6076213562
| 40>  H        4.9739297456    -0.5918043530    -3.5271576688
| 41>  H        4.9541184387     1.3567634824    -2.2280577423
| 42>  H        6.4019762995     0.9121925553    -1.3893037333
| 43> *
| 44>
| 45>                          ****END OF INPUT****
 Total Charge           Charge          ....    1
 Multiplicity           Mult            ....    1
 Number of Electrons    NEL             ....   56
FINAL SINGLE POINT ENERGY      -327.206005703369

CARTESIAN COORDINATES (ANGSTROEM)
---------------------------------
  C     -2.500219   -1.313963    0.281308
  C     -1.294671   -0.905453   -0.548801
  C     -0.540648    0.271158    0.049496
  O     -0.001181    0.000773    1.327576
  C      0.653766    0.667165   -0.787621
  C      1.752104    1.463171   -0.221353
  N      1.916692   -0.000586   -0.375258
  H     -3.053918   -2.110150   -0.216657
  H     -3.188081   -0.477004    0.426672
  H     -2.215213   -1.702550    1.262845
  H     -0.610482   -1.754203   -0.663221
  H     -1.620954   -0.620726   -1.554621
  H     -1.201369    1.148976    0.089877
  H     -0.699268   -0.270210    1.930750
  H      0.509743    0.694180   -1.861266
  H      2.377632    2.051537   -0.879535
  H      1.690699    1.775004    0.812910
  H      1.818250   -0.540620    0.484799
  H      2.556697   -0.363503   -1.071299

FINAL SINGLE POINT ENERGY      -327.206006545875
                    ***********************HURRAY********************
 Multiplicity           Mult            ....    1
 Number of Electrons    NEL             ....   56
 Basis Dimension        Dim             ....  289
FINAL SINGLE POINT ENERGY      -327.206007024099

VIBRATIONAL FREQUENCIES
-----------------------

   0:         0.00 cm**-1
   1:         0.00 cm**-1
   2:         0.00 cm**-1
   3:         0.00 cm**-1
   4:         0.00 cm**-1
   5:         0.00 cm**-1
   6:        87.51 cm**-1
   7:       111.56 cm**-1
   8:       182.78 cm**-1
   9:       233.64 cm**-1
  10:       258.49 cm**-1
  11:       301.11 cm**-1
  12:       316.30 cm**-1
  13:       399.54 cm**-1
  14:       488.27 cm**-1
  15:       628.32 cm**-1
  16:       778.04 cm**-1
  17:       795.75 cm**-1
  18:       835.79 cm**-1
  19:       899.43 cm**-1
  20:       903.33 cm**-1
  21:       929.37 cm**-1
  22:       980.92 cm**-1
  23:      1007.70 cm**-1
  24:      1045.60 cm**-1
  25:      1080.19 cm**-1
  26:      1091.38 cm**-1
  27:      1148.83 cm**-1
  28:      1164.64 cm**-1
  29:      1179.43 cm**-1
  30:      1185.39 cm**-1
  31:      1225.80 cm**-1
  32:      1257.53 cm**-1
  33:      1282.10 cm**-1
  34:      1292.96 cm**-1
  35:      1323.38 cm**-1
  36:      1384.25 cm**-1
  37:      1390.81 cm**-1
  38:      1418.11 cm**-1
  39:      1448.80 cm**-1
  40:      1471.48 cm**-1
  41:      1483.97 cm**-1
  42:      1490.35 cm**-1
  43:      1503.86 cm**-1
  44:      1589.94 cm**-1
  45:      3022.40 cm**-1
  46:      3042.68 cm**-1
  47:      3053.27 cm**-1
  48:      3086.85 cm**-1
  49:      3124.07 cm**-1
  50:      3147.48 cm**-1
  51:      3177.33 cm**-1
  52:      3212.11 cm**-1
  53:      3282.93 cm**-1
  54:      3455.51 cm**-1
  55:      3607.54 cm**-1
  56:      3862.46 cm**-1

IR SPECTRUM
-----------

 Mode    freq (cm**-1)   T**2         TX         TY         TZ
-------------------------------------------------------------------
   6:        87.51    4.569412  ( -0.742607  -1.770239  -0.940319)
   7:       111.56    3.327923  ( -0.046367  -1.045661  -1.494110)
   8:       182.78    2.768665  ( -0.454765   1.187765   1.072878)
   9:       233.64    6.607140  ( -0.723831   1.867977   1.610549)
  10:       258.49  114.930455  ( -1.113955  -9.810414  -4.176762)
  11:       301.11   25.205690  ( -3.713234   0.415805   3.353311)
  12:       316.30    6.252645  (  0.135964   2.335597  -0.882694)
  13:       399.54    3.128495  ( -0.417722  -1.123878  -1.300346)
  14:       488.27    5.529301  ( -0.937954  -2.054178   0.655662)
  15:       628.32   11.167901  (  1.390251  -0.765564   2.940921)
  16:       778.04    1.813741  ( -0.514498   1.123988  -0.534495)
  17:       795.75    1.738404  ( -0.364798   0.531734   1.150037)
  18:       835.79    6.394673  (  1.377828  -2.111981   0.189211)
  19:       899.43   14.069950  (  3.390527  -1.030016  -1.230181)
  20:       903.33   24.285530  ( -0.995906   4.393541  -1.997624)
  21:       929.37   16.793635  ( -2.981725   0.806487  -2.693053)
  22:       980.92    6.122312  ( -0.576029   1.032197   2.173723)
  23:      1007.70   47.696735  (  2.375495   0.651827   6.452045)
  24:      1045.60   74.399073  (  7.121462   2.999589   3.832273)
  25:      1080.19   14.513367  (  2.412674   1.329573  -2.631465)
  26:      1091.38   23.336348  ( -3.635684  -2.551357   1.899666)
  27:      1148.83    1.729052  ( -0.898262   0.146405  -0.949075)
  28:      1164.64    2.010696  ( -0.752268  -0.986551  -0.686663)
  29:      1179.43    3.092626  (  0.104480  -0.540247   1.670282)
  30:      1185.39   11.347956  (  2.706577  -0.708004   1.876467)
  31:      1225.80   79.975196  ( -5.709928  -0.111449  -6.881824)
  32:      1257.53    6.064022  ( -0.957263   0.025591  -2.268703)
  33:      1282.10    5.111310  (  1.270867   1.777976  -0.578800)
  34:      1292.96    1.645146  (  1.179174   0.279588   0.420150)
  35:      1323.38    6.974479  ( -2.242145  -0.071527  -1.393610)
  36:      1384.25    3.913822  (  1.552930   0.010860  -1.225607)
  37:      1390.81    1.173565  ( -0.987005  -0.039342  -0.444790)
  38:      1418.11    3.776662  (  1.643504   0.215441  -1.014467)
  39:      1448.80   17.310540  ( -3.347377  -1.332891  -2.080627)
  40:      1471.48    8.512293  ( -0.074151   1.904346   2.209131)
  41:      1483.97    7.610755  ( -0.397887  -2.724617  -0.170009)
  42:      1490.35   14.837861  ( -2.059720  -0.818786  -3.150398)
  43:      1503.86   12.963309  (  1.283657  -3.159002   1.155959)
  44:      1589.94   74.812825  (  6.664819  -5.474744   0.648218)
  45:      3022.40    7.333626  ( -0.682099   2.041051  -1.643922)
  46:      3042.68   11.727867  ( -2.621445   1.492309   1.621391)
  47:      3053.27   16.125664  (  2.133996  -0.433368  -3.374006)
  48:      3086.85    5.062621  (  0.993234  -1.672733   1.130519)
  49:      3124.07   20.086911  (  2.603252  -2.598637   2.560680)
  50:      3147.48    4.662908  (  0.256571   1.776755   1.200093)
  51:      3177.33    3.098443  ( -0.582305  -1.262122  -1.080006)
  52:      3212.11    1.303370  ( -0.196558   0.122350  -1.117929)
  53:      3282.93    8.436127  ( -0.922466  -0.202486   2.746668)
  54:      3455.51   99.652001  ( -1.542014   7.985012  -5.789108)
  55:      3607.54  166.042720  (  8.327364  -1.465519  -9.723682)
  56:      3862.46   98.871216  (  5.817173   2.845439  -7.545541)

--------------------------
THERMOCHEMISTRY AT 298.15K
--------------------------

Temperature         ... 298.15 K
Pressure            ... 1.00 atm
Total Mass          ... 102.16 AMU

Throughout the following assumptions are being made:
  (1) The electronic state is orbitally nondegenerate
  (2) There are no thermally accessible electronically excited states
  (3) Hindered rotations indicated by low frequency modes) are not
      treated as such but are treated as vibrations and this may
      case some error
  (4) All equations used are the standard statistical mechanics
      equations for an ideal gas
  (5) All vibrations are strinctly harmonic

------------
INNER ENERGY
------------

The inner energy is: U= E(el) + E(ZPE) + E(vib) + E(rot) + E(trans)
    E(el)   - is the total energy from the electronic structure calculation
              = E(kin-el) + E(nuc-el) + E(el-el) + E(nuc-nuc)
    E(ZPE)  - the the zero temperature vibrational energy from the frequency calculation
    E(vib)  - the the finite temperature correction to E(ZPE) due to population
              of excietd vibrational states
    E(rot)  - is the rotational thermal energy
    E(trans)- is the translational thermal energy

Summary of contributions to the inner energy U:
Electronic energy                ...   -327.20600702 Eh
Zero point energy                ...      0.17467003 Eh     109.61 kcal/mol
Thermal vibrational correction   ...      0.00529006 Eh       3.32 kcal/mol
Thermal rotational correction    ...      0.00141627 Eh       0.89 kcal/mol
Thermal translational correction ...      0.00141627 Eh       0.89 kcal/mol
-----------------------------------------------------------------------
Total thermal energy                   -327.02321439 Eh

Summary of corrections to the electronic energy:
(perhaps to be used in another calculation)
Total thermal correction                  0.00812260 Eh       5.10 kcal/mol
Non-thermal (ZPE) correction              0.17467003 Eh     109.61 kcal/mol
-----------------------------------------------------------------------
Total correction                          0.18279264 Eh     114.70 kcal/mol

--------
ENTHALPY
--------

The enthalpy is H = U + kB*T
                kB is Boltzmann's constant
Total free energy                 ...   -327.02321439 Eh
Thermal Enthalpy correction       ...      0.00094421 Eh       0.59 kcal/mol
-----------------------------------------------------------------------
Total Enthalpy                    ...   -327.02227018 Eh

-------
ENTROPY
-------

The entropy contributions are T*S = T*(S(el)+S(vib)+S(rot)+S(trans)
     S(el)   - electronic entropy
     S(vib)  - vibrational entropy
     S(rot)  - rotational entropy
     S(trans)- translational entropy
The entropies will be listed as mutliplied by the temperature to get
units of energy

Electronic entropy                ...      0.00000000 Eh      0.00 kcal/mol
Vibrational entropy               ...      0.00924731 Eh      5.80 kcal/mol
Rotational entropy                ...      0.01206409 Eh      7.57 kcal/mol
Translational entropy             ...      0.01890147 Eh     11.86 kcal/mol
-----------------------------------------------------------------------
Final entropy term                ...      0.04021286 Eh     25.23 kcal/mol

CAUTION: The rotational entropy is not quite correctly treated here
         because it includes a symmetry number that is not yet correctly
         implemented in ORCA!
For a nonlinear molecule the correct rotational entropy is:
    S(rot) = R*(ln(qrot/sn)+1.5)
    R    = 8.31441 J/mol/K = 1.987191683e-3 kcal/mol/K
    qrot = 237023.6375548
    sn is the rotational symmetry number. We have assumed 3 here
       if it is different for your molecule then you should correct
       the printed rotational entropy by manually evaluating the equation
       as given above

For convenience we print out the resulting values for sn=1 - 12:
 sn= 1  qrot/sn=  237023.6376 T*S(rot)=     8.22 kcal/mol T*S(tot)=    25.88 kcal/mol
 sn= 2  qrot/sn=  118511.8188 T*S(rot)=     7.81 kcal/mol T*S(tot)=    25.47 kcal/mol
 sn= 3  qrot/sn=   79007.8792 T*S(rot)=     7.57 kcal/mol T*S(tot)=    25.23 kcal/mol
 sn= 4  qrot/sn=   59255.9094 T*S(rot)=     7.40 kcal/mol T*S(tot)=    25.06 kcal/mol
 sn= 5  qrot/sn=   47404.7275 T*S(rot)=     7.27 kcal/mol T*S(tot)=    24.93 kcal/mol
 sn= 6  qrot/sn=   39503.9396 T*S(rot)=     7.16 kcal/mol T*S(tot)=    24.82 kcal/mol
 sn= 7  qrot/sn=   33860.5197 T*S(rot)=     7.07 kcal/mol T*S(tot)=    24.73 kcal/mol
 sn= 8  qrot/sn=   29627.9547 T*S(rot)=     6.99 kcal/mol T*S(tot)=    24.65 kcal/mol
 sn= 9  qrot/sn=   26335.9597 T*S(rot)=     6.92 kcal/mol T*S(tot)=    24.58 kcal/mol
 sn=10  qrot/sn=   23702.3638 T*S(rot)=     6.86 kcal/mol T*S(tot)=    24.52 kcal/mol
 sn=11  qrot/sn=   21547.6034 T*S(rot)=     6.80 kcal/mol T*S(tot)=    24.46 kcal/mol
 sn=12  qrot/sn=   19751.9698 T*S(rot)=     6.75 kcal/mol T*S(tot)=    24.41 kcal/mol

-------------------
GIBBS FREE ENTHALPY
-------------------

The Gibbs free enthalpy is G = H - T*S

Total enthalpy                    ...   -327.02227018 Eh
Total entropy correction          ...     -0.04021286 Eh    -25.23 kcal/mol
-----------------------------------------------------------------------
Final Gibbs free enthalpy         ...   -327.06248304 Eh

For completeness - the Gibbs free enthalpy minus the electronic energy
G-E(el)                           ...      0.14352398 Eh     90.06 kcal/mol

                             ****ORCA TERMINATED NORMALLY****
TOTAL RUN TIME: 0 days 0 hours 49 minutes 53 seconds 700 msec
