                         Program Version 3.0.3 - RELEASE   -
|  1> ! NORI PBE0 def2-TZVP UseSym TightOPT Freq TightSCF Grid3 FinalGrid5 XYZFile
|  2> % pal
|  3>     nprocs 8
|  4> end
|  5> %method
|  6>     SymThresh 5.0e-2
|  7> end
|  8> % geom
|  9>     MaxIter 10
| 10> end
| 11> % maxcore 2000
| 12> % output
| 13>     printlevel mini
| 14>     print[ P_Basis ] 0
| 15>     print[ P_SCFInfo ] 1
| 16>     print[ P_SCFIterInfo ] 1
| 17>     print[ P_OrbEn ] 0
| 18>     print[ P_Cartesian ] 0
| 19> end
| 20> % elprop
| 21>     Dipole false
| 22> end
| 23> *xyz 1 1
| 24>  C        1.0021893063    -0.7702757546    -0.6476990472
| 25>  C        2.4413036594    -0.5084339288    -0.2328557205
| 26>  C        2.6933712499     0.9606752227    -0.0105751951
| 27>  O        4.0497145199     1.1498950748     0.4088680915
| 28>  C        4.4165323083     2.4869340600     0.5981737910
| 29>  C        5.8434688141     2.4393529196     1.1036018869
| 30>  N        6.5796482677     1.4667552561     0.2295677313
| 31>  H        0.8376963681    -1.8354780859    -0.8119946954
| 32>  H        0.7507032137    -0.2507324573    -1.5754179327
| 33>  H        0.2991479763    -0.4427050879     0.1217876532
| 34>  H        3.1262157917    -0.8769836412    -1.0038652418
| 35>  H        2.6719475475    -1.0506472155     0.6891258132
| 36>  H        2.0298139178     1.3589048779     0.7667805971
| 37>  H        2.5224356899     1.5339852798    -0.9311127330
| 38>  H        3.7910567918     2.9901081462     1.3452853423
| 39>  H        4.3422794301     3.0570030521    -0.3399556242
| 40>  H        6.3452658566     3.4050506495     1.0740725031
| 41>  H        5.8816027531     2.0341760865     2.1144516469
| 42>  H        6.8258416066     1.8721117872    -0.6743640678
| 43>  H        5.9065611286     0.6990109579     0.0634303238
| 44>  H        7.4292238028     1.1067628007     0.6625548775
| 45> *
| 46>
| 47>                          ****END OF INPUT****
 Total Charge           Charge          ....    1
 Multiplicity           Mult            ....    1
 Number of Electrons    NEL             ....   58
FINAL SINGLE POINT ENERGY      -328.428985325747
FINAL SINGLE POINT ENERGY      -328.428986748802
FINAL SINGLE POINT ENERGY      -328.428988279795

CARTESIAN COORDINATES (ANGSTROEM)
---------------------------------
  C     -1.828463   -0.884852   -2.881630
  C     -0.866722   -1.025776   -1.712639
  C     -0.905783    0.186075   -0.816987
  O     -0.001755   -0.004403    0.277620
  C      0.074923    1.078885    1.159788
  C      1.024278    0.634863    2.252981
  N      2.205342    0.008831    1.571284
  H     -1.786515   -1.766374   -3.521916
  H     -1.585094   -0.016405   -3.498477
  H     -2.859805   -0.775030   -2.538500
  H      0.154269   -1.164888   -2.082954
  H     -1.118036   -1.910973   -1.121020
  H     -1.913440    0.342313   -0.413281
  H     -0.614820    1.091494   -1.365396
  H     -0.895664    1.321607    1.608225
  H      0.444358    1.981993    0.650855
  H      1.363285    1.450744    2.888823
  H      0.572256   -0.146126    2.863741
  H      2.840227    0.708447    1.184423
  H      1.802801   -0.527509    0.783559
  H      2.739297   -0.606980    2.183599

FINAL SINGLE POINT ENERGY      -328.428988495962
                    ***********************HURRAY********************
 Multiplicity           Mult            ....    1
 Number of Electrons    NEL             ....   58
 Basis Dimension        Dim             ....  301
FINAL SINGLE POINT ENERGY      -328.428988609376

VIBRATIONAL FREQUENCIES
-----------------------

   0:         0.00 cm**-1
   1:         0.00 cm**-1
   2:         0.00 cm**-1
   3:         0.00 cm**-1
   4:         0.00 cm**-1
   5:         0.00 cm**-1
   6:        56.89 cm**-1
   7:        70.34 cm**-1
   8:       114.30 cm**-1
   9:       146.53 cm**-1
  10:       202.22 cm**-1
  11:       233.47 cm**-1
  12:       246.37 cm**-1
  13:       278.99 cm**-1
  14:       393.03 cm**-1
  15:       399.92 cm**-1
  16:       558.84 cm**-1
  17:       767.66 cm**-1
  18:       819.95 cm**-1
  19:       892.26 cm**-1
  20:       902.57 cm**-1
  21:       925.17 cm**-1
  22:       955.56 cm**-1
  23:      1004.40 cm**-1
  24:      1032.75 cm**-1
  25:      1071.81 cm**-1
  26:      1108.17 cm**-1
  27:      1149.65 cm**-1
  28:      1169.71 cm**-1
  29:      1187.97 cm**-1
  30:      1197.86 cm**-1
  31:      1271.96 cm**-1
  32:      1277.73 cm**-1
  33:      1323.22 cm**-1
  34:      1331.62 cm**-1
  35:      1342.57 cm**-1
  36:      1380.32 cm**-1
  37:      1409.82 cm**-1
  38:      1415.72 cm**-1
  39:      1441.92 cm**-1
  40:      1476.80 cm**-1
  41:      1485.27 cm**-1
  42:      1490.05 cm**-1
  43:      1493.85 cm**-1
  44:      1498.48 cm**-1
  45:      1508.58 cm**-1
  46:      1523.12 cm**-1
  47:      1639.33 cm**-1
  48:      1669.43 cm**-1
  49:      3002.16 cm**-1
  50:      3017.74 cm**-1
  51:      3048.99 cm**-1
  52:      3057.77 cm**-1
  53:      3061.06 cm**-1
  54:      3066.75 cm**-1
  55:      3096.20 cm**-1
  56:      3116.84 cm**-1
  57:      3130.55 cm**-1
  58:      3146.09 cm**-1
  59:      3182.21 cm**-1
  60:      3285.65 cm**-1
  61:      3478.01 cm**-1
  62:      3535.60 cm**-1

IR SPECTRUM
-----------

 Mode    freq (cm**-1)   T**2         TX         TY         TZ
-------------------------------------------------------------------
   6:        56.89    6.053481  ( -0.754401  -1.088177   2.073700)
   7:        70.34    4.276441  ( -0.602783  -1.227546  -1.551201)
   8:       114.30    7.675275  (  1.563884   1.176667   1.960866)
   9:       146.53    4.108391  ( -0.587018  -1.151363   1.561462)
  10:       202.22   26.315434  (  4.733256   1.208982   1.565276)
  11:       233.47    2.729815  (  1.454424   0.014306   0.783748)
  12:       246.37    3.657130  (  0.928537  -0.923167   1.393812)
  13:       278.99    6.145950  (  1.580300  -0.205066   1.899092)
  14:       393.03   18.211923  ( -3.516301   1.750391  -1.668438)
  15:       399.92   17.518074  (  3.147601  -0.556350   2.702065)
  16:       558.84    2.649852  (  0.706456  -1.457213  -0.165237)
  17:       767.66    2.424353  (  1.104370   0.675451  -0.865151)
  18:       819.95   20.887087  (  4.077678   0.167746   2.057059)
  19:       892.26    7.935210  ( -2.364711   0.236426  -1.512433)
  20:       902.57    1.487247  (  1.014702   0.436427  -0.516874)
  21:       925.17    5.223782  ( -1.382937   1.761929   0.454834)
  22:       955.56   10.288261  ( -1.019280  -2.893050   0.937864)
  23:      1004.40    9.191762  ( -1.236959  -2.078455  -1.828037)
  24:      1032.75   30.658879  ( -4.233224   2.245746  -2.774044)
  25:      1071.81    2.875823  (  1.142360  -1.172454   0.442933)
  26:      1108.17  153.943449  (  7.472110   0.462981   9.894275)
  27:      1149.65  101.738256  (  4.519628   3.145189   8.450976)
  28:      1169.71   25.918853  ( -1.727853  -3.017001  -3.719016)
  29:      1187.97   29.144863  ( -0.305186  -3.188180  -4.345945)
  30:      1197.86   23.072931  ( -1.769825  -3.237943  -3.075122)
  31:      1271.96    0.388057  ( -0.100352  -0.080748   0.609481)
  32:      1277.73    5.927226  (  1.564995   1.347573  -1.289212)
  33:      1323.22    2.737590  ( -1.274867  -0.966065   0.423109)
  34:      1331.62    0.423060  (  0.287053  -0.376635  -0.445878)
  35:      1342.57   18.325976  (  1.508344   3.509877   1.931745)
  36:      1380.32   15.939256  ( -1.511144  -1.273837  -3.468867)
  37:      1409.82    3.302202  (  1.434846   0.298766   1.074318)
  38:      1415.72    4.867444  (  1.335482  -0.086969   1.753958)
  39:      1441.92   24.758246  ( -4.642849   1.770924   0.256961)
  40:      1476.80  131.833882  ( -9.933081   4.922509   2.989431)
  41:      1485.27    3.326385  (  0.355018   0.954676   1.512925)
  42:      1490.05   21.728669  ( -2.779809   2.000590  -3.162115)
  43:      1493.85   10.904617  ( -2.344424  -1.530761   1.750733)
  44:      1498.48    1.078598  (  0.320645  -0.957747   0.241879)
  45:      1508.58    9.331827  (  0.065675  -2.133057  -2.185768)
  46:      1523.12   23.644531  (  3.216633  -3.608748  -0.524157)
  47:      1639.33   31.275401  (  3.098493   4.470162  -1.300919)
  48:      1669.43   36.670918  ( -3.154365   1.761964  -4.859669)
  49:      3002.16   23.084123  ( -1.893715  -4.366526  -0.656823)
  50:      3017.74   24.167648  ( -1.941851   4.130157  -1.827201)
  51:      3048.99   14.195193  (  2.437818  -2.654724   1.097578)
  52:      3057.77   17.755174  ( -1.813162   1.873197  -3.310400)
  53:      3061.06   24.671571  (  4.904033  -0.493639  -0.615107)
  54:      3066.75    3.957303  (  0.798621  -0.076844  -1.820330)
  55:      3096.20   12.621848  ( -2.546846  -1.623290   1.870923)
  56:      3116.84    1.139775  (  0.152136  -0.113549   1.050588)
  57:      3130.55   29.217894  (  3.926849   2.383775  -2.848748)
  58:      3146.09   10.877590  ( -0.883555   2.934263   1.219434)
  59:      3182.21    0.443924  ( -0.328198  -0.301178  -0.495482)
  60:      3285.65  188.327913  (  7.866660   4.265389  10.404328)
  61:      3478.01  117.371236  ( 10.128067   1.942576   3.319622)
  62:      3535.60  105.875512  (  1.572250  -7.663616   6.683751)

--------------------------
THERMOCHEMISTRY AT 298.15K
--------------------------

Temperature         ... 298.15 K
Pressure            ... 1.00 atm
Total Mass          ... 104.17 AMU

Throughout the following assumptions are being made:
  (1) The electronic state is orbitally nondegenerate
  (2) There are no thermally accessible electronically excited states
  (3) Hindered rotations indicated by low frequency modes) are not
      treated as such but are treated as vibrations and this may
      case some error
  (4) All equations used are the standard statistical mechanics
      equations for an ideal gas
  (5) All vibrations are strinctly harmonic

------------
INNER ENERGY
------------

The inner energy is: U= E(el) + E(ZPE) + E(vib) + E(rot) + E(trans)
    E(el)   - is the total energy from the electronic structure calculation
              = E(kin-el) + E(nuc-el) + E(el-el) + E(nuc-nuc)
    E(ZPE)  - the the zero temperature vibrational energy from the frequency calculation
    E(vib)  - the the finite temperature correction to E(ZPE) due to population
              of excietd vibrational states
    E(rot)  - is the rotational thermal energy
    E(trans)- is the translational thermal energy

Summary of contributions to the inner energy U:
Electronic energy                ...   -328.42898861 Eh
Zero point energy                ...      0.19840969 Eh     124.50 kcal/mol
Thermal vibrational correction   ...      0.00646693 Eh       4.06 kcal/mol
Thermal rotational correction    ...      0.00141627 Eh       0.89 kcal/mol
Thermal translational correction ...      0.00141627 Eh       0.89 kcal/mol
-----------------------------------------------------------------------
Total thermal energy                   -328.22127945 Eh

Summary of corrections to the electronic energy:
(perhaps to be used in another calculation)
Total thermal correction                  0.00929947 Eh       5.84 kcal/mol
Non-thermal (ZPE) correction              0.19840969 Eh     124.50 kcal/mol
-----------------------------------------------------------------------
Total correction                          0.20770916 Eh     130.34 kcal/mol

--------
ENTHALPY
--------

The enthalpy is H = U + kB*T
                kB is Boltzmann's constant
Total free energy                 ...   -328.22127945 Eh
Thermal Enthalpy correction       ...      0.00094421 Eh       0.59 kcal/mol
-----------------------------------------------------------------------
Total Enthalpy                    ...   -328.22033524 Eh

-------
ENTROPY
-------

The entropy contributions are T*S = T*(S(el)+S(vib)+S(rot)+S(trans)
     S(el)   - electronic entropy
     S(vib)  - vibrational entropy
     S(rot)  - rotational entropy
     S(trans)- translational entropy
The entropies will be listed as mutliplied by the temperature to get
units of energy

Electronic entropy                ...      0.00000000 Eh      0.00 kcal/mol
Vibrational entropy               ...      0.01239547 Eh      7.78 kcal/mol
Rotational entropy                ...      0.01239313 Eh      7.78 kcal/mol
Translational entropy             ...      0.01892914 Eh     11.88 kcal/mol
-----------------------------------------------------------------------
Final entropy term                ...      0.04371775 Eh     27.43 kcal/mol

CAUTION: The rotational entropy is not quite correctly treated here
         because it includes a symmetry number that is not yet correctly
         implemented in ORCA!
For a nonlinear molecule the correct rotational entropy is:
    S(rot) = R*(ln(qrot/sn)+1.5)
    R    = 8.31441 J/mol/K = 1.987191683e-3 kcal/mol/K
    qrot = 335848.6551227
    sn is the rotational symmetry number. We have assumed 3 here
       if it is different for your molecule then you should correct
       the printed rotational entropy by manually evaluating the equation
       as given above

For convenience we print out the resulting values for sn=1 - 12:
 sn= 1  qrot/sn=  335848.6551 T*S(rot)=     8.43 kcal/mol T*S(tot)=    28.08 kcal/mol
 sn= 2  qrot/sn=  167924.3276 T*S(rot)=     8.02 kcal/mol T*S(tot)=    27.67 kcal/mol
 sn= 3  qrot/sn=  111949.5517 T*S(rot)=     7.78 kcal/mol T*S(tot)=    27.43 kcal/mol
 sn= 4  qrot/sn=   83962.1638 T*S(rot)=     7.61 kcal/mol T*S(tot)=    27.26 kcal/mol
 sn= 5  qrot/sn=   67169.7310 T*S(rot)=     7.47 kcal/mol T*S(tot)=    27.13 kcal/mol
 sn= 6  qrot/sn=   55974.7759 T*S(rot)=     7.37 kcal/mol T*S(tot)=    27.02 kcal/mol
 sn= 7  qrot/sn=   47978.3793 T*S(rot)=     7.27 kcal/mol T*S(tot)=    26.93 kcal/mol
 sn= 8  qrot/sn=   41981.0819 T*S(rot)=     7.20 kcal/mol T*S(tot)=    26.85 kcal/mol
 sn= 9  qrot/sn=   37316.5172 T*S(rot)=     7.13 kcal/mol T*S(tot)=    26.78 kcal/mol
 sn=10  qrot/sn=   33584.8655 T*S(rot)=     7.06 kcal/mol T*S(tot)=    26.72 kcal/mol
 sn=11  qrot/sn=   30531.6959 T*S(rot)=     7.01 kcal/mol T*S(tot)=    26.66 kcal/mol
 sn=12  qrot/sn=   27987.3879 T*S(rot)=     6.96 kcal/mol T*S(tot)=    26.61 kcal/mol

-------------------
GIBBS FREE ENTHALPY
-------------------

The Gibbs free enthalpy is G = H - T*S

Total enthalpy                    ...   -328.22033524 Eh
Total entropy correction          ...     -0.04371775 Eh    -27.43 kcal/mol
-----------------------------------------------------------------------
Final Gibbs free enthalpy         ...   -328.26405299 Eh

For completeness - the Gibbs free enthalpy minus the electronic energy
G-E(el)                           ...      0.16493562 Eh    103.50 kcal/mol

                             ****ORCA TERMINATED NORMALLY****
TOTAL RUN TIME: 0 days 0 hours 51 minutes 49 seconds 845 msec
