                         Program Version 3.0.3 - RELEASE   -
|  1> ! NORI PBE0 def2-TZVP UseSym TightOPT Freq TightSCF Grid3 FinalGrid5 XYZFile
|  2> % pal
|  3>     nprocs 8
|  4> end
|  5> %method
|  6>     SymThresh 5.0e-2
|  7> end
|  8> % geom
|  9>     MaxIter 10
| 10> end
| 11> % maxcore 2000
| 12> % output
| 13>     printlevel mini
| 14>     print[ P_Basis ] 0
| 15>     print[ P_SCFInfo ] 1
| 16>     print[ P_SCFIterInfo ] 1
| 17>     print[ P_OrbEn ] 0
| 18>     print[ P_Cartesian ] 0
| 19> end
| 20> % elprop
| 21>     Dipole false
| 22> end
| 23> *xyz 1 1
| 24>  C        0.6107994679    -1.8544203799    -2.1128632869
| 25>  C        2.1113917369    -1.8240667131    -2.1453384158
| 26>  C        2.8272465315    -0.9341616775    -1.4728751274
| 27>  O        4.1952989082    -0.8269336437    -1.4392725521
| 28>  C        4.9147401204    -1.7440942965    -2.1878769981
| 29>  C        6.3655372020    -1.3743679476    -1.9522864842
| 30>  N        7.2713547425    -2.2991507653    -2.7125460993
| 31>  H        0.2269333014    -2.6552354101    -2.7440569440
| 32>  H        0.1785353627    -0.9190477368    -2.4754386067
| 33>  H        0.2308067311    -2.0249796887    -1.1032033510
| 34>  H        2.6078168427    -2.5747989609    -2.7532832916
| 35>  H        2.3910862754    -0.1619114281    -0.8501122122
| 36>  H        4.7143247590    -2.7771818031    -1.8598413053
| 37>  H        4.6619286816    -1.6769363457    -3.2584320607
| 38>  H        6.5739552596    -0.3604379564    -2.2937203106
| 39>  H        6.6266127486    -1.4566837045    -0.8972015037
| 40>  H        7.0926880768    -2.2495754353    -3.7188583233
| 41>  H        7.1364191266    -3.2713633075    -2.4235844962
| 42>  H        8.2547241253    -2.0643827994    -2.5605586309
| 43> *
| 44>
| 45>                          ****END OF INPUT****
 Total Charge           Charge          ....    1
 Multiplicity           Mult            ....    1
 Number of Electrons    NEL             ....   56
FINAL SINGLE POINT ENERGY      -327.185259980657

CARTESIAN COORDINATES (ANGSTROEM)
---------------------------------
  C     -0.507750    3.497717    0.000000
  C     -0.404732    2.000052   -0.000000
  C      0.755478    1.358844   -0.000000
  O      0.950205    0.000061   -0.000000
  C     -0.183673   -0.795973    0.000000
  C      0.346519   -2.215779    0.000000
  N     -0.789003   -3.197860    0.000000
  H     -1.550550    3.812833   -0.000000
  H     -0.035151    3.936249   -0.881559
  H     -0.035151    3.936249    0.881559
  H     -1.335636    1.441149   -0.000000
  H      1.716262    1.859321   -0.000000
  H     -0.806180   -0.609700    0.890105
  H     -0.806180   -0.609700   -0.890105
  H      0.947152   -2.411823   -0.887987
  H      0.947152   -2.411823    0.887987
  H     -1.382211   -3.079347   -0.824925
  H     -1.382211   -3.079347    0.824925
  H     -0.447345   -4.161143   -0.000000

FINAL SINGLE POINT ENERGY      -327.185260767877
                    ***********************HURRAY********************
 Multiplicity           Mult            ....    1
 Number of Electrons    NEL             ....   56
 Basis Dimension        Dim             ....  289
FINAL SINGLE POINT ENERGY      -327.185260855042

VIBRATIONAL FREQUENCIES
-----------------------

   0:         0.00 cm**-1
   1:         0.00 cm**-1
   2:         0.00 cm**-1
   3:         0.00 cm**-1
   4:         0.00 cm**-1
   5:         0.00 cm**-1
   6:      -205.82 cm**-1 ***imaginary mode***
   7:        71.15 cm**-1
   8:        81.72 cm**-1
   9:       114.16 cm**-1
  10:       181.25 cm**-1
  11:       222.34 cm**-1
  12:       268.14 cm**-1
  13:       309.87 cm**-1
  14:       335.91 cm**-1
  15:       422.17 cm**-1
  16:       657.05 cm**-1
  17:       793.36 cm**-1
  18:       817.91 cm**-1
  19:       924.98 cm**-1
  20:       938.48 cm**-1
  21:       957.13 cm**-1
  22:       965.19 cm**-1
  23:      1001.88 cm**-1
  24:      1050.46 cm**-1
  25:      1060.17 cm**-1
  26:      1122.72 cm**-1
  27:      1167.74 cm**-1
  28:      1191.15 cm**-1
  29:      1243.08 cm**-1
  30:      1287.36 cm**-1
  31:      1320.08 cm**-1
  32:      1335.28 cm**-1
  33:      1360.96 cm**-1
  34:      1369.69 cm**-1
  35:      1414.18 cm**-1
  36:      1445.94 cm**-1
  37:      1485.09 cm**-1
  38:      1485.94 cm**-1
  39:      1496.01 cm**-1
  40:      1510.73 cm**-1
  41:      1521.18 cm**-1
  42:      1659.53 cm**-1
  43:      1665.07 cm**-1
  44:      1733.60 cm**-1
  45:      2971.87 cm**-1
  46:      3005.67 cm**-1
  47:      3062.73 cm**-1
  48:      3112.19 cm**-1
  49:      3124.50 cm**-1
  50:      3150.68 cm**-1
  51:      3175.63 cm**-1
  52:      3180.48 cm**-1
  53:      3222.84 cm**-1
  54:      3420.13 cm**-1
  55:      3495.99 cm**-1
  56:      3505.68 cm**-1

IR SPECTRUM
-----------

 Mode    freq (cm**-1)   T**2         TX         TY         TZ
-------------------------------------------------------------------
   7:        71.15    2.975910  (  0.000087  -0.000125  -1.725083)
   8:        81.72    2.458296  ( -0.000519   0.000561   1.567895)
   9:       114.16   13.109653  ( -2.381649   2.727160  -0.000385)
  10:       181.25    1.940482  ( -0.000093   0.000025   1.393012)
  11:       222.34    0.246332  ( -0.000083   0.000057   0.496318)
  12:       268.14    0.285969  (  0.391096  -0.364709  -0.000038)
  13:       309.87    0.034471  ( -0.000132   0.000032   0.185664)
  14:       335.91    4.669541  ( -1.420172  -1.628696  -0.000012)
  15:       422.17   19.713539  ( -1.901780  -4.012078  -0.000006)
  16:       657.05    7.736787  (  1.899417  -2.031995   0.000008)
  17:       793.36   15.125959  (  0.000090  -0.000011   3.889211)
  18:       817.91    0.068552  (  0.000103  -0.000043   0.261824)
  19:       924.98   25.493865  ( -1.139980   4.918771   0.000080)
  20:       938.48    1.814524  ( -0.000022  -0.000214   1.347043)
  21:       957.13   29.536703  ( -1.214947   5.297226  -0.000060)
  22:       965.19   54.419759  (  0.000374  -0.000089   7.376975)
  23:      1001.88   14.479812  ( -3.782905  -0.411630   0.000088)
  24:      1050.46    0.298332  (  0.000055  -0.000020  -0.546198)
  25:      1060.17   27.007827  (  4.543713  -2.522400   0.000012)
  26:      1122.72   23.894428  ( -1.648293   4.601908  -0.000009)
  27:      1167.74    0.246881  (  0.494583   0.047624   0.000001)
  28:      1191.15    0.035742  (  0.000047  -0.000045  -0.189056)
  29:      1243.08  252.636865  ( -1.160840 -15.852108  -0.000022)
  30:      1287.36    1.073990  ( -0.000048   0.000018   1.036335)
  31:      1320.08    0.758610  ( -0.451983   0.744527   0.000004)
  32:      1335.28    7.133909  (  0.000008   0.000095  -2.670938)
  33:      1360.96   31.906124  (  0.579350  -5.618761  -0.000010)
  34:      1369.69    2.694159  ( -0.660247   1.502742   0.000032)
  35:      1414.18    2.537209  ( -0.898248  -1.315432  -0.000067)
  36:      1445.94    2.314053  (  1.067109  -1.084127  -0.000027)
  37:      1485.09   10.262081  ( -2.930494  -1.293942  -0.000245)
  38:      1485.94   10.584689  ( -0.000242  -0.000121   3.253412)
  39:      1496.01   10.475746  (  3.091784  -0.957400   0.000027)
  40:      1510.73  107.834093  (  5.408505   8.864658  -0.000002)
  41:      1521.18   54.271743  (  6.412299   3.626868   0.000043)
  42:      1659.53   53.659935  ( -0.000111   0.000141   7.325294)
  43:      1665.07   40.979169  ( -3.519127   5.347421  -0.000241)
  44:      1733.60   81.156962  ( -3.843106   8.147852  -0.000006)
  45:      2971.87   36.926994  (  4.451099   4.136993  -0.000201)
  46:      3005.67   23.753731  ( -0.000154  -0.000161  -4.873780)
  47:      3062.73   13.448519  (  0.360773  -3.649433  -0.000028)
  48:      3112.19    0.099164  (  0.034974  -0.312955   0.000001)
  49:      3124.50    5.352700  (  0.000081  -0.000097   2.313590)
  50:      3150.68    8.336502  (  2.267570  -1.787353  -0.000052)
  51:      3175.63    0.018098  (  0.000003  -0.000020  -0.134530)
  52:      3180.48   23.418216  ( -1.645405  -4.550919   0.000006)
  53:      3222.84    3.877548  (  0.141767   1.964039   0.000002)
  54:      3420.13   49.683595  (  4.542086   5.390088  -0.000123)
  55:      3495.99   96.325085  ( -0.000338   0.000358  -9.814534)
  56:      3505.68  116.727236  ( -6.139410   8.890157   0.000469)

--------------------------
THERMOCHEMISTRY AT 298.15K
--------------------------

Temperature         ... 298.15 K
Pressure            ... 1.00 atm
Total Mass          ... 102.16 AMU

Throughout the following assumptions are being made:
  (1) The electronic state is orbitally nondegenerate
  (2) There are no thermally accessible electronically excited states
  (3) Hindered rotations indicated by low frequency modes) are not
      treated as such but are treated as vibrations and this may
      case some error
  (4) All equations used are the standard statistical mechanics
      equations for an ideal gas
  (5) All vibrations are strinctly harmonic

------------
INNER ENERGY
------------

The inner energy is: U= E(el) + E(ZPE) + E(vib) + E(rot) + E(trans)
    E(el)   - is the total energy from the electronic structure calculation
              = E(kin-el) + E(nuc-el) + E(el-el) + E(nuc-nuc)
    E(ZPE)  - the the zero temperature vibrational energy from the frequency calculation
    E(vib)  - the the finite temperature correction to E(ZPE) due to population
              of excietd vibrational states
    E(rot)  - is the rotational thermal energy
    E(trans)- is the translational thermal energy

Summary of contributions to the inner energy U:
Electronic energy                ...   -327.18526086 Eh
Zero point energy                ...      0.17409085 Eh     109.24 kcal/mol
Thermal vibrational correction   ...      0.00565115 Eh       3.55 kcal/mol
Thermal rotational correction    ...      0.00141627 Eh       0.89 kcal/mol
Thermal translational correction ...      0.00141627 Eh       0.89 kcal/mol
-----------------------------------------------------------------------
Total thermal energy                   -327.00268631 Eh

Summary of corrections to the electronic energy:
(perhaps to be used in another calculation)
Total thermal correction                  0.00848369 Eh       5.32 kcal/mol
Non-thermal (ZPE) correction              0.17409085 Eh     109.24 kcal/mol
-----------------------------------------------------------------------
Total correction                          0.18257454 Eh     114.57 kcal/mol

--------
ENTHALPY
--------

The enthalpy is H = U + kB*T
                kB is Boltzmann's constant
Total free energy                 ...   -327.00268631 Eh
Thermal Enthalpy correction       ...      0.00094421 Eh       0.59 kcal/mol
-----------------------------------------------------------------------
Total Enthalpy                    ...   -327.00174210 Eh

-------
ENTROPY
-------

The entropy contributions are T*S = T*(S(el)+S(vib)+S(rot)+S(trans)
     S(el)   - electronic entropy
     S(vib)  - vibrational entropy
     S(rot)  - rotational entropy
     S(trans)- translational entropy
The entropies will be listed as mutliplied by the temperature to get
units of energy

Electronic entropy                ...      0.00000000 Eh      0.00 kcal/mol
Vibrational entropy               ...      0.01063946 Eh      6.68 kcal/mol
Rotational entropy                ...      0.01235083 Eh      7.75 kcal/mol
Translational entropy             ...      0.01890147 Eh     11.86 kcal/mol
-----------------------------------------------------------------------
Final entropy term                ...      0.04189175 Eh     26.29 kcal/mol

CAUTION: The rotational entropy is not quite correctly treated here
         because it includes a symmetry number that is not yet correctly
         implemented in ORCA!
For a nonlinear molecule the correct rotational entropy is:
    S(rot) = R*(ln(qrot/sn)+1.5)
    R    = 8.31441 J/mol/K = 1.987191683e-3 kcal/mol/K
    qrot = 321132.2680963
    sn is the rotational symmetry number. We have assumed 3 here
       if it is different for your molecule then you should correct
       the printed rotational entropy by manually evaluating the equation
       as given above

For convenience we print out the resulting values for sn=1 - 12:
 sn= 1  qrot/sn=  321132.2681 T*S(rot)=     8.40 kcal/mol T*S(tot)=    26.94 kcal/mol
 sn= 2  qrot/sn=  160566.1340 T*S(rot)=     7.99 kcal/mol T*S(tot)=    26.53 kcal/mol
 sn= 3  qrot/sn=  107044.0894 T*S(rot)=     7.75 kcal/mol T*S(tot)=    26.29 kcal/mol
 sn= 4  qrot/sn=   80283.0670 T*S(rot)=     7.58 kcal/mol T*S(tot)=    26.12 kcal/mol
 sn= 5  qrot/sn=   64226.4536 T*S(rot)=     7.45 kcal/mol T*S(tot)=    25.98 kcal/mol
 sn= 6  qrot/sn=   53522.0447 T*S(rot)=     7.34 kcal/mol T*S(tot)=    25.88 kcal/mol
 sn= 7  qrot/sn=   45876.0383 T*S(rot)=     7.25 kcal/mol T*S(tot)=    25.79 kcal/mol
 sn= 8  qrot/sn=   40141.5335 T*S(rot)=     7.17 kcal/mol T*S(tot)=    25.71 kcal/mol
 sn= 9  qrot/sn=   35681.3631 T*S(rot)=     7.10 kcal/mol T*S(tot)=    25.64 kcal/mol
 sn=10  qrot/sn=   32113.2268 T*S(rot)=     7.04 kcal/mol T*S(tot)=    25.57 kcal/mol
 sn=11  qrot/sn=   29193.8426 T*S(rot)=     6.98 kcal/mol T*S(tot)=    25.52 kcal/mol
 sn=12  qrot/sn=   26761.0223 T*S(rot)=     6.93 kcal/mol T*S(tot)=    25.47 kcal/mol

-------------------
GIBBS FREE ENTHALPY
-------------------

The Gibbs free enthalpy is G = H - T*S

Total enthalpy                    ...   -327.00174210 Eh
Total entropy correction          ...     -0.04189175 Eh    -26.29 kcal/mol
-----------------------------------------------------------------------
Final Gibbs free enthalpy         ...   -327.04363385 Eh

For completeness - the Gibbs free enthalpy minus the electronic energy
G-E(el)                           ...      0.14162700 Eh     88.87 kcal/mol

                             ****ORCA TERMINATED NORMALLY****
TOTAL RUN TIME: 0 days 0 hours 42 minutes 48 seconds 392 msec
