                         Program Version 3.0.3 - RELEASE   -
|  1> ! NORI PBE0 def2-TZVP UseSym TightOPT Freq TightSCF Grid3 FinalGrid5 XYZFile
|  2> % pal
|  3>     nprocs 8
|  4> end
|  5> %method
|  6>     SymThresh 5.0e-2
|  7> end
|  8> % geom
|  9>     MaxIter 10
| 10> end
| 11> % maxcore 2000
| 12> % output
| 13>     printlevel mini
| 14>     print[ P_Basis ] 0
| 15>     print[ P_SCFInfo ] 1
| 16>     print[ P_SCFIterInfo ] 1
| 17>     print[ P_OrbEn ] 0
| 18>     print[ P_Cartesian ] 0
| 19> end
| 20> % elprop
| 21>     Dipole false
| 22> end
| 23> *xyz 1 1
| 24>  C        1.2411589302     1.2624823951    -0.9351366361
| 25>  C        2.5397328680     0.5812471349    -1.1655100982
| 26>  C        3.0401794553     0.2207514111    -2.3415671518
| 27>  O        3.1783182923     0.3662832302     0.0376693915
| 28>  C        4.4156426097    -0.2588987084     0.0000869794
| 29>  C        4.8466428091    -0.3445685818     1.4505508982
| 30>  N        6.1871204963    -1.0135810382     1.5562656382
| 31>  H        0.7292692116     1.4375578116    -1.8789685350
| 32>  H        1.3957198057     2.2217245781    -0.4347066424
| 33>  H        0.5990531840     0.6552275946    -0.2919238205
| 34>  H        2.4750571748     0.4268876293    -3.2388821432
| 35>  H        3.9932559254    -0.2738982619    -2.4686180724
| 36>  H        5.1411112248     0.3232259297    -0.5899827764
| 37>  H        4.3448918932    -1.2628433140    -0.4473232069
| 38>  H        4.1419802989    -0.9329537979     2.0377512630
| 39>  H        4.9414341859     0.6464248476     1.8938944844
| 40>  H        6.1585829119    -1.9626486648     1.1758126374
| 41>  H        6.4952453103    -1.0785308579     2.5286582916
| 42>  H        6.9018534124    -0.4964793375     1.0384094990
| 43> *
| 44>
| 45>                          ****END OF INPUT****
 Total Charge           Charge          ....    1
 Multiplicity           Mult            ....    1
 Number of Electrons    NEL             ....   56
FINAL SINGLE POINT ENERGY      -327.194046198195
FINAL SINGLE POINT ENERGY      -327.194046672234

CARTESIAN COORDINATES (ANGSTROEM)
---------------------------------
  C      2.386568   -1.543885   -0.000001
  C      0.915298   -1.346637    0.000001
  C     -0.004767   -2.304336    0.000001
  O      0.620676    0.000245    0.000001
  C     -0.718358    0.360368    0.000000
  C     -0.708891    1.875792    0.000001
  N     -2.114470    2.404168   -0.000001
  H      2.629029   -2.604542   -0.000002
  H      2.835347   -1.079431    0.881583
  H      2.835345   -1.079430   -0.881585
  H      0.312025   -3.337158    0.000000
  H     -1.070784   -2.121886    0.000002
  H     -1.238282   -0.027345    0.890103
  H     -1.238280   -0.027345   -0.890103
  H     -0.213599    2.267825   -0.888059
  H     -0.213601    2.267824    0.888062
  H     -2.629907    2.087160   -0.824842
  H     -2.127986    3.426145   -0.000000
  H     -2.629909    2.087160    0.824839

FINAL SINGLE POINT ENERGY      -327.194046862803
                    ***********************HURRAY********************
 Multiplicity           Mult            ....    1
 Number of Electrons    NEL             ....   56
 Basis Dimension        Dim             ....  289
FINAL SINGLE POINT ENERGY      -327.194046798589

VIBRATIONAL FREQUENCIES
-----------------------

   0:         0.00 cm**-1
   1:         0.00 cm**-1
   2:         0.00 cm**-1
   3:         0.00 cm**-1
   4:         0.00 cm**-1
   5:         0.00 cm**-1
   6:        64.66 cm**-1
   7:        87.73 cm**-1
   8:       133.58 cm**-1
   9:       155.00 cm**-1
  10:       177.37 cm**-1
  11:       220.18 cm**-1
  12:       318.61 cm**-1
  13:       349.27 cm**-1
  14:       470.49 cm**-1
  15:       513.04 cm**-1
  16:       546.53 cm**-1
  17:       725.09 cm**-1
  18:       808.13 cm**-1
  19:       857.75 cm**-1
  20:       878.21 cm**-1
  21:       922.32 cm**-1
  22:       940.92 cm**-1
  23:       966.52 cm**-1
  24:      1007.70 cm**-1
  25:      1019.06 cm**-1
  26:      1068.25 cm**-1
  27:      1156.07 cm**-1
  28:      1190.46 cm**-1
  29:      1191.48 cm**-1
  30:      1289.37 cm**-1
  31:      1297.72 cm**-1
  32:      1335.26 cm**-1
  33:      1369.60 cm**-1
  34:      1406.31 cm**-1
  35:      1442.00 cm**-1
  36:      1448.94 cm**-1
  37:      1463.74 cm**-1
  38:      1479.45 cm**-1
  39:      1496.20 cm**-1
  40:      1511.26 cm**-1
  41:      1521.60 cm**-1
  42:      1659.45 cm**-1
  43:      1664.99 cm**-1
  44:      1734.13 cm**-1
  45:      2978.71 cm**-1
  46:      3014.61 cm**-1
  47:      3061.37 cm**-1
  48:      3112.22 cm**-1
  49:      3123.62 cm**-1
  50:      3174.76 cm**-1
  51:      3175.64 cm**-1
  52:      3196.13 cm**-1
  53:      3281.83 cm**-1
  54:      3419.84 cm**-1
  55:      3495.50 cm**-1
  56:      3505.74 cm**-1

IR SPECTRUM
-----------

 Mode    freq (cm**-1)   T**2         TX         TY         TZ
-------------------------------------------------------------------
   6:        64.66   10.521759  ( -0.000890   0.000189  -3.243726)
   7:        87.73    0.809463  ( -0.000463   0.000470   0.899702)
   8:       133.58   10.412587  ( -1.381513  -2.916163  -0.000633)
   9:       155.00    3.039621  (  0.000505   0.000314  -1.743451)
  10:       177.37    0.194553  ( -0.000195   0.000476  -0.441082)
  11:       220.18    0.024478  (  0.000036   0.000024  -0.156454)
  12:       318.61    9.164498  ( -2.163143   2.117855   0.000246)
  13:       349.27    7.248261  (  2.072450  -1.718491  -0.000004)
  14:       470.49    5.817195  (  1.248087  -2.063849   0.000278)
  15:       513.04    2.998767  (  0.001652   0.000458  -1.731694)
  16:       546.53    7.960886  ( -2.553014   1.201251   0.000254)
  17:       725.09    1.364337  ( -0.001725  -0.002032   1.168045)
  18:       808.13    8.354451  ( -0.001971  -0.001136  -2.890406)
  19:       857.75   52.782940  (  0.000906   0.000190  -7.265187)
  20:       878.21   13.760017  ( -0.807869  -3.620409  -0.000358)
  21:       922.32   19.217408  (  0.808546  -4.308557  -0.000544)
  22:       940.92   12.784131  (  0.000810   0.000179  -3.575490)
  23:       966.52   51.094964  (  0.882453   7.093394   0.000307)
  24:      1007.70    8.756362  (  1.806735  -2.343517  -0.000020)
  25:      1019.06    3.597498  (  1.329033   1.353207  -0.000187)
  26:      1068.25    0.421737  (  0.000499   0.000094   0.649413)
  27:      1156.07   20.236662  (  4.160316  -1.711267  -0.000461)
  28:      1190.46   39.411732  ( -4.234367   4.634854  -0.000181)
  29:      1191.48    0.003261  (  0.038725  -0.041889  -0.002629)
  30:      1289.37    1.256917  ( -0.000098  -0.000701   1.121123)
  31:      1297.72  252.105744  (  7.288210 -14.106302  -0.000440)
  32:      1335.26    6.482967  (  0.000823   0.000670  -2.546167)
  33:      1369.60    3.513879  (  0.142517  -1.869109   0.000273)
  34:      1406.31   24.768522  (  3.561017  -3.476734   0.000197)
  35:      1442.00    2.504590  ( -1.279343   0.931596  -0.000585)
  36:      1448.94    7.164692  (  2.445947  -1.087215  -0.000010)
  37:      1463.74   12.172558  (  0.000743   0.000778   3.488919)
  38:      1479.45   14.818825  ( -1.240677  -3.644111   0.001121)
  39:      1496.20   11.503022  ( -2.396443  -2.400017   0.001032)
  40:      1511.26   99.867177  ( -8.243971   5.648373  -0.001583)
  41:      1521.60   53.385951  ( -7.157572   1.468032   0.001831)
  42:      1659.45   53.408105  (  0.000549   0.002701  -7.308084)
  43:      1664.99   39.299910  ( -1.384852  -6.114089  -0.003419)
  44:      1734.13  115.307698  ( -4.957449  -9.525303   0.000327)
  45:      2978.71   34.563553  (  5.540276  -1.966950  -0.000167)
  46:      3014.61   20.607813  ( -0.000184  -0.000581   4.539583)
  47:      3061.37    5.133553  ( -2.067684  -0.926411  -0.000248)
  48:      3112.22    0.122295  ( -0.049617   0.346169  -0.000004)
  49:      3123.62    3.957137  (  0.000635   0.000297   1.989255)
  50:      3174.76    3.428432  (  0.021026   1.851483  -0.000042)
  51:      3175.64    0.008761  ( -0.001422  -0.001563  -0.093578)
  52:      3196.13    7.336652  (  1.084137  -2.482196   0.000218)
  53:      3281.83    2.395015  ( -1.457142   0.521299   0.000049)
  54:      3419.84   50.507303  ( -6.278025   3.330721   0.000934)
  55:      3495.50   96.512986  ( -0.000950   0.001614  -9.824102)
  56:      3505.74  115.359795  (  2.622084  10.415588   0.001114)

--------------------------
THERMOCHEMISTRY AT 298.15K
--------------------------

Temperature         ... 298.15 K
Pressure            ... 1.00 atm
Total Mass          ... 102.16 AMU

Throughout the following assumptions are being made:
  (1) The electronic state is orbitally nondegenerate
  (2) There are no thermally accessible electronically excited states
  (3) Hindered rotations indicated by low frequency modes) are not
      treated as such but are treated as vibrations and this may
      case some error
  (4) All equations used are the standard statistical mechanics
      equations for an ideal gas
  (5) All vibrations are strinctly harmonic

------------
INNER ENERGY
------------

The inner energy is: U= E(el) + E(ZPE) + E(vib) + E(rot) + E(trans)
    E(el)   - is the total energy from the electronic structure calculation
              = E(kin-el) + E(nuc-el) + E(el-el) + E(nuc-nuc)
    E(ZPE)  - the the zero temperature vibrational energy from the frequency calculation
    E(vib)  - the the finite temperature correction to E(ZPE) due to population
              of excietd vibrational states
    E(rot)  - is the rotational thermal energy
    E(trans)- is the translational thermal energy

Summary of contributions to the inner energy U:
Electronic energy                ...   -327.19404680 Eh
Zero point energy                ...      0.17411678 Eh     109.26 kcal/mol
Thermal vibrational correction   ...      0.00609438 Eh       3.82 kcal/mol
Thermal rotational correction    ...      0.00141627 Eh       0.89 kcal/mol
Thermal translational correction ...      0.00141627 Eh       0.89 kcal/mol
-----------------------------------------------------------------------
Total thermal energy                   -327.01100310 Eh

Summary of corrections to the electronic energy:
(perhaps to be used in another calculation)
Total thermal correction                  0.00892692 Eh       5.60 kcal/mol
Non-thermal (ZPE) correction              0.17411678 Eh     109.26 kcal/mol
-----------------------------------------------------------------------
Total correction                          0.18304370 Eh     114.86 kcal/mol

--------
ENTHALPY
--------

The enthalpy is H = U + kB*T
                kB is Boltzmann's constant
Total free energy                 ...   -327.01100310 Eh
Thermal Enthalpy correction       ...      0.00094421 Eh       0.59 kcal/mol
-----------------------------------------------------------------------
Total Enthalpy                    ...   -327.01005889 Eh

-------
ENTROPY
-------

The entropy contributions are T*S = T*(S(el)+S(vib)+S(rot)+S(trans)
     S(el)   - electronic entropy
     S(vib)  - vibrational entropy
     S(rot)  - rotational entropy
     S(trans)- translational entropy
The entropies will be listed as mutliplied by the temperature to get
units of energy

Electronic entropy                ...      0.00000000 Eh      0.00 kcal/mol
Vibrational entropy               ...      0.01140075 Eh      7.15 kcal/mol
Rotational entropy                ...      0.01229257 Eh      7.71 kcal/mol
Translational entropy             ...      0.01890147 Eh     11.86 kcal/mol
-----------------------------------------------------------------------
Final entropy term                ...      0.04259478 Eh     26.73 kcal/mol

CAUTION: The rotational entropy is not quite correctly treated here
         because it includes a symmetry number that is not yet correctly
         implemented in ORCA!
For a nonlinear molecule the correct rotational entropy is:
    S(rot) = R*(ln(qrot/sn)+1.5)
    R    = 8.31441 J/mol/K = 1.987191683e-3 kcal/mol/K
    qrot = 301915.4065605
    sn is the rotational symmetry number. We have assumed 3 here
       if it is different for your molecule then you should correct
       the printed rotational entropy by manually evaluating the equation
       as given above

For convenience we print out the resulting values for sn=1 - 12:
 sn= 1  qrot/sn=  301915.4066 T*S(rot)=     8.36 kcal/mol T*S(tot)=    27.38 kcal/mol
 sn= 2  qrot/sn=  150957.7033 T*S(rot)=     7.95 kcal/mol T*S(tot)=    26.97 kcal/mol
 sn= 3  qrot/sn=  100638.4689 T*S(rot)=     7.71 kcal/mol T*S(tot)=    26.73 kcal/mol
 sn= 4  qrot/sn=   75478.8516 T*S(rot)=     7.54 kcal/mol T*S(tot)=    26.56 kcal/mol
 sn= 5  qrot/sn=   60383.0813 T*S(rot)=     7.41 kcal/mol T*S(tot)=    26.43 kcal/mol
 sn= 6  qrot/sn=   50319.2344 T*S(rot)=     7.30 kcal/mol T*S(tot)=    26.32 kcal/mol
 sn= 7  qrot/sn=   43130.7724 T*S(rot)=     7.21 kcal/mol T*S(tot)=    26.23 kcal/mol
 sn= 8  qrot/sn=   37739.4258 T*S(rot)=     7.13 kcal/mol T*S(tot)=    26.15 kcal/mol
 sn= 9  qrot/sn=   33546.1563 T*S(rot)=     7.06 kcal/mol T*S(tot)=    26.08 kcal/mol
 sn=10  qrot/sn=   30191.5407 T*S(rot)=     7.00 kcal/mol T*S(tot)=    26.02 kcal/mol
 sn=11  qrot/sn=   27446.8551 T*S(rot)=     6.94 kcal/mol T*S(tot)=    25.96 kcal/mol
 sn=12  qrot/sn=   25159.6172 T*S(rot)=     6.89 kcal/mol T*S(tot)=    25.91 kcal/mol

-------------------
GIBBS FREE ENTHALPY
-------------------

The Gibbs free enthalpy is G = H - T*S

Total enthalpy                    ...   -327.01005889 Eh
Total entropy correction          ...     -0.04259478 Eh    -26.73 kcal/mol
-----------------------------------------------------------------------
Final Gibbs free enthalpy         ...   -327.05265367 Eh

For completeness - the Gibbs free enthalpy minus the electronic energy
G-E(el)                           ...      0.14139313 Eh     88.73 kcal/mol

                             ****ORCA TERMINATED NORMALLY****
TOTAL RUN TIME: 0 days 0 hours 52 minutes 46 seconds 784 msec
