                         Program Version 3.0.3 - RELEASE   -
|  1> ! NORI PBE0 def2-TZVP UseSym TightOPT Freq TightSCF Grid3 FinalGrid5 XYZFile
|  2> % pal
|  3>     nprocs 8
|  4> end
|  5> %method
|  6>     SymThresh 5.0e-2
|  7> end
|  8> % geom
|  9>     MaxIter 10
| 10> end
| 11> % maxcore 2000
| 12> % output
| 13>     printlevel mini
| 14>     print[ P_Basis ] 0
| 15>     print[ P_SCFInfo ] 1
| 16>     print[ P_SCFIterInfo ] 1
| 17>     print[ P_OrbEn ] 0
| 18>     print[ P_Cartesian ] 0
| 19> end
| 20> % elprop
| 21>     Dipole false
| 22> end
| 23> *xyz 1 1
| 24>  C        0.6386265990    -0.0331128186     0.6154068771
| 25>  C        1.9111357916    -0.8420621527     0.5706049873
| 26>  C        2.2440876460    -1.4849244002     1.8984964166
| 27>  O        1.7188883374    -1.8470010366    -0.4540288525
| 28>  C        2.8768496440    -2.4856627302    -0.9124169790
| 29>  C        2.3996302563    -3.4420061854    -1.9861007492
| 30>  N        1.4430952917    -2.6770242652    -2.8517775004
| 31>  H        0.4235819268     0.4257539237    -0.3516913856
| 32>  H        0.7329367224     0.7670891293     1.3508128700
| 33>  H       -0.2066033368    -0.6614923844     0.9055723727
| 34>  H        2.7439698537    -0.2046006112     0.2432884453
| 35>  H        1.4347215566    -2.1456722522     2.2174687664
| 36>  H        2.3716473371    -0.7113040128     2.6577467827
| 37>  H        3.1736694817    -2.0567340909     1.8663590738
| 38>  H        3.5972242523    -1.7578680681    -1.3164710433
| 39>  H        3.3853667852    -3.0641927405    -0.1341854073
| 40>  H        3.2065913062    -3.8406407813    -2.5982704984
| 41>  H        1.8300858768    -4.2607712052    -1.5474888926
| 42>  H        1.9258150471    -2.0642963531    -3.5099930228
| 43>  H        0.9149631319    -2.0831837725    -2.1868437893
| 44>  H        0.8083964930    -3.2777831919    -3.3762984718
| 45> *
| 46>
| 47>                          ****END OF INPUT****
 Total Charge           Charge          ....    1
 Multiplicity           Mult            ....    1
 Number of Electrons    NEL             ....   58
FINAL SINGLE POINT ENERGY      -328.433273077800
FINAL SINGLE POINT ENERGY      -328.433275108590
FINAL SINGLE POINT ENERGY      -328.433277283323
FINAL SINGLE POINT ENERGY      -328.433278235674

CARTESIAN COORDINATES (ANGSTROEM)
---------------------------------
  C     -1.381803   -1.480314    1.379132
  C     -1.309204   -0.607761    0.150546
  C     -2.398927    0.440322    0.110365
  O      0.000772    0.008947    0.167489
  C      0.414436    0.605258   -1.029213
  C      1.820521    1.099875   -0.755917
  N      2.541465   -0.016434   -0.060470
  H     -0.591834   -2.234173    1.379831
  H     -2.339751   -2.001099    1.409153
  H     -1.297133   -0.876537    2.285393
  H     -1.358058   -1.232691   -0.751883
  H     -2.340000    1.088920    0.987155
  H     -3.374987   -0.047901    0.113611
  H     -2.353961    1.057228   -0.789312
  H      0.399961   -0.118333   -1.858385
  H     -0.204050    1.460603   -1.319818
  H      2.363274    1.379299   -1.657190
  H      1.805326    1.937716   -0.059435
  H      2.849744   -0.739609   -0.711374
  H      1.826357   -0.429228    0.565939
  H      3.348200    0.299858    0.475998

FINAL SINGLE POINT ENERGY      -328.433278669641
                    ***********************HURRAY********************
 Multiplicity           Mult            ....    1
 Number of Electrons    NEL             ....   58
 Basis Dimension        Dim             ....  301
FINAL SINGLE POINT ENERGY      -328.433278853279

VIBRATIONAL FREQUENCIES
-----------------------

   0:         0.00 cm**-1
   1:         0.00 cm**-1
   2:         0.00 cm**-1
   3:         0.00 cm**-1
   4:         0.00 cm**-1
   5:         0.00 cm**-1
   6:        36.26 cm**-1
   7:        89.78 cm**-1
   8:       157.31 cm**-1
   9:       200.14 cm**-1
  10:       222.95 cm**-1
  11:       252.64 cm**-1
  12:       269.55 cm**-1
  13:       299.27 cm**-1
  14:       363.48 cm**-1
  15:       458.29 cm**-1
  16:       470.38 cm**-1
  17:       531.04 cm**-1
  18:       789.51 cm**-1
  19:       872.26 cm**-1
  20:       896.73 cm**-1
  21:       931.91 cm**-1
  22:       943.80 cm**-1
  23:       952.65 cm**-1
  24:       960.21 cm**-1
  25:      1023.13 cm**-1
  26:      1090.98 cm**-1
  27:      1135.44 cm**-1
  28:      1155.39 cm**-1
  29:      1173.42 cm**-1
  30:      1187.05 cm**-1
  31:      1210.70 cm**-1
  32:      1273.89 cm**-1
  33:      1341.11 cm**-1
  34:      1358.43 cm**-1
  35:      1367.51 cm**-1
  36:      1392.57 cm**-1
  37:      1408.09 cm**-1
  38:      1416.57 cm**-1
  39:      1429.06 cm**-1
  40:      1467.66 cm**-1
  41:      1472.10 cm**-1
  42:      1475.94 cm**-1
  43:      1489.62 cm**-1
  44:      1491.57 cm**-1
  45:      1499.63 cm**-1
  46:      1516.94 cm**-1
  47:      1638.29 cm**-1
  48:      1669.62 cm**-1
  49:      3001.21 cm**-1
  50:      3017.81 cm**-1
  51:      3058.57 cm**-1
  52:      3061.40 cm**-1
  53:      3081.74 cm**-1
  54:      3117.17 cm**-1
  55:      3136.21 cm**-1
  56:      3138.55 cm**-1
  57:      3143.90 cm**-1
  58:      3151.50 cm**-1
  59:      3182.32 cm**-1
  60:      3254.09 cm**-1
  61:      3479.19 cm**-1
  62:      3538.44 cm**-1

IR SPECTRUM
-----------

 Mode    freq (cm**-1)   T**2         TX         TY         TZ
-------------------------------------------------------------------
   6:        36.26    4.880779  (  0.226063   1.484706   1.620285)
   7:        89.78    7.050254  ( -1.204882  -2.285884   0.610940)
   8:       157.31   22.291991  (  4.215611  -0.350825  -2.097030)
   9:       200.14    5.940756  (  2.311398  -0.641146  -0.432582)
  10:       222.95    5.236722  ( -2.109140   0.816825   0.347917)
  11:       252.64    5.677113  (  2.375626   0.028883   0.180768)
  12:       269.55    0.626128  (  0.032766  -0.290246  -0.735399)
  13:       299.27   14.858748  (  3.507156   1.324591   0.896697)
  14:       363.48    9.094262  ( -2.873560  -0.803445  -0.437481)
  15:       458.29   24.245514  ( -4.567187   1.613880  -0.884142)
  16:       470.38    4.436993  (  2.076495   0.286500  -0.207558)
  17:       531.04    4.279162  (  1.528479   0.380929   1.340823)
  18:       789.51   34.339920  ( -5.825431  -0.194035   0.605500)
  19:       872.26    0.236928  ( -0.068333   0.394960   0.276162)
  20:       896.73   11.395149  (  3.372664  -0.073629   0.121938)
  21:       931.91    1.403324  (  0.671195  -0.649691   0.728507)
  22:       943.80    2.350034  (  0.435382   0.914832   1.150460)
  23:       952.65    8.586617  ( -1.281029  -1.413454  -2.224349)
  24:       960.21    5.562245  ( -2.207720   0.591146   0.582035)
  25:      1023.13   40.226182  (  6.240412   1.124260  -0.139572)
  26:      1090.98  116.972575  ( -8.865721  -4.139703   4.608083)
  27:      1135.44   97.912965  (  8.772659   4.575335   0.140481)
  28:      1155.39   87.582546  (  6.738814   3.671722  -5.356248)
  29:      1173.42   10.460655  ( -0.823793   2.326404  -2.090422)
  30:      1187.05   10.601683  ( -3.181166   0.208128  -0.662232)
  31:      1210.70   16.639641  (  1.542789   1.200571  -3.580234)
  32:      1273.89    4.281792  (  0.646618   1.807165   0.773195)
  33:      1341.11   14.566319  (  1.788251   0.245352  -3.362779)
  34:      1358.43   26.927096  (  3.891775   1.073962  -3.260029)
  35:      1367.51    1.669567  (  1.266350  -0.006077  -0.256686)
  36:      1392.57   11.089240  (  2.420088  -2.251513   0.403863)
  37:      1408.09   21.887939  (  2.537935  -3.439362   1.902003)
  38:      1416.57   18.570839  (  3.252168   0.027639  -2.827274)
  39:      1429.06    5.437466  ( -2.022417   0.920970   0.706478)
  40:      1467.66  162.310788  ( -8.088766   7.816323  -5.982286)
  41:      1472.10    3.763437  ( -0.991559   1.358765  -0.966439)
  42:      1475.94    1.108437  ( -0.002087  -0.917255  -0.516793)
  43:      1489.62   15.703006  ( -3.483869  -1.557009  -1.068355)
  44:      1491.57    9.963572  ( -0.691617  -1.620425  -2.619057)
  45:      1499.63   13.013261  (  2.436617   0.895391   2.504882)
  46:      1516.94   13.807159  (  3.349135   0.199150   1.597120)
  47:      1638.29   28.436021  ( -1.758200   3.105677   3.962262)
  48:      1669.62   36.071299  ( -5.273381  -2.591324  -1.244101)
  49:      3001.21   23.072730  ( -1.132551   1.097917   4.537029)
  50:      3017.81   24.319757  ( -0.675882  -3.158374  -3.726609)
  51:      3058.57   10.791049  ( -1.507037   2.331207  -1.756520)
  52:      3061.40    1.407400  (  0.587496   0.420646   0.940907)
  53:      3081.74    7.310073  (  0.481219  -2.621719   0.452872)
  54:      3117.17    1.584073  (  0.810830   0.959246  -0.080466)
  55:      3136.21   13.799547  ( -1.638647   3.224955  -0.845015)
  56:      3138.55   18.647094  (  1.937655  -0.310894  -3.846548)
  57:      3143.90    4.416964  ( -0.341928   1.831916   0.971665)
  58:      3151.50   10.407579  ( -2.531059  -1.365648  -1.461616)
  59:      3182.32    0.892083  ( -0.790393  -0.236788   0.459667)
  60:      3254.09  220.352248  ( 13.155536   4.120210  -5.505270)
  61:      3479.19  115.337101  ( 10.185050  -2.644401  -2.146858)
  62:      3538.44  104.170594  (  5.103834   5.621418   6.820641)

--------------------------
THERMOCHEMISTRY AT 298.15K
--------------------------

Temperature         ... 298.15 K
Pressure            ... 1.00 atm
Total Mass          ... 104.17 AMU

Throughout the following assumptions are being made:
  (1) The electronic state is orbitally nondegenerate
  (2) There are no thermally accessible electronically excited states
  (3) Hindered rotations indicated by low frequency modes) are not
      treated as such but are treated as vibrations and this may
      case some error
  (4) All equations used are the standard statistical mechanics
      equations for an ideal gas
  (5) All vibrations are strinctly harmonic

------------
INNER ENERGY
------------

The inner energy is: U= E(el) + E(ZPE) + E(vib) + E(rot) + E(trans)
    E(el)   - is the total energy from the electronic structure calculation
              = E(kin-el) + E(nuc-el) + E(el-el) + E(nuc-nuc)
    E(ZPE)  - the the zero temperature vibrational energy from the frequency calculation
    E(vib)  - the the finite temperature correction to E(ZPE) due to population
              of excietd vibrational states
    E(rot)  - is the rotational thermal energy
    E(trans)- is the translational thermal energy

Summary of contributions to the inner energy U:
Electronic energy                ...   -328.43327885 Eh
Zero point energy                ...      0.19761964 Eh     124.01 kcal/mol
Thermal vibrational correction   ...      0.00639104 Eh       4.01 kcal/mol
Thermal rotational correction    ...      0.00141627 Eh       0.89 kcal/mol
Thermal translational correction ...      0.00141627 Eh       0.89 kcal/mol
-----------------------------------------------------------------------
Total thermal energy                   -328.22643564 Eh

Summary of corrections to the electronic energy:
(perhaps to be used in another calculation)
Total thermal correction                  0.00922358 Eh       5.79 kcal/mol
Non-thermal (ZPE) correction              0.19761964 Eh     124.01 kcal/mol
-----------------------------------------------------------------------
Total correction                          0.20684322 Eh     129.80 kcal/mol

--------
ENTHALPY
--------

The enthalpy is H = U + kB*T
                kB is Boltzmann's constant
Total free energy                 ...   -328.22643564 Eh
Thermal Enthalpy correction       ...      0.00094421 Eh       0.59 kcal/mol
-----------------------------------------------------------------------
Total Enthalpy                    ...   -328.22549143 Eh

-------
ENTROPY
-------

The entropy contributions are T*S = T*(S(el)+S(vib)+S(rot)+S(trans)
     S(el)   - electronic entropy
     S(vib)  - vibrational entropy
     S(rot)  - rotational entropy
     S(trans)- translational entropy
The entropies will be listed as mutliplied by the temperature to get
units of energy

Electronic entropy                ...      0.00000000 Eh      0.00 kcal/mol
Vibrational entropy               ...      0.01203128 Eh      7.55 kcal/mol
Rotational entropy                ...      0.01231206 Eh      7.73 kcal/mol
Translational entropy             ...      0.01892914 Eh     11.88 kcal/mol
-----------------------------------------------------------------------
Final entropy term                ...      0.04327248 Eh     27.15 kcal/mol

CAUTION: The rotational entropy is not quite correctly treated here
         because it includes a symmetry number that is not yet correctly
         implemented in ORCA!
For a nonlinear molecule the correct rotational entropy is:
    S(rot) = R*(ln(qrot/sn)+1.5)
    R    = 8.31441 J/mol/K = 1.987191683e-3 kcal/mol/K
    qrot = 308212.4177118
    sn is the rotational symmetry number. We have assumed 3 here
       if it is different for your molecule then you should correct
       the printed rotational entropy by manually evaluating the equation
       as given above

For convenience we print out the resulting values for sn=1 - 12:
 sn= 1  qrot/sn=  308212.4177 T*S(rot)=     8.38 kcal/mol T*S(tot)=    27.80 kcal/mol
 sn= 2  qrot/sn=  154106.2089 T*S(rot)=     7.97 kcal/mol T*S(tot)=    27.39 kcal/mol
 sn= 3  qrot/sn=  102737.4726 T*S(rot)=     7.73 kcal/mol T*S(tot)=    27.15 kcal/mol
 sn= 4  qrot/sn=   77053.1044 T*S(rot)=     7.56 kcal/mol T*S(tot)=    26.98 kcal/mol
 sn= 5  qrot/sn=   61642.4835 T*S(rot)=     7.42 kcal/mol T*S(tot)=    26.85 kcal/mol
 sn= 6  qrot/sn=   51368.7363 T*S(rot)=     7.32 kcal/mol T*S(tot)=    26.74 kcal/mol
 sn= 7  qrot/sn=   44030.3454 T*S(rot)=     7.22 kcal/mol T*S(tot)=    26.65 kcal/mol
 sn= 8  qrot/sn=   38526.5522 T*S(rot)=     7.14 kcal/mol T*S(tot)=    26.57 kcal/mol
 sn= 9  qrot/sn=   34245.8242 T*S(rot)=     7.08 kcal/mol T*S(tot)=    26.50 kcal/mol
 sn=10  qrot/sn=   30821.2418 T*S(rot)=     7.01 kcal/mol T*S(tot)=    26.44 kcal/mol
 sn=11  qrot/sn=   28019.3107 T*S(rot)=     6.96 kcal/mol T*S(tot)=    26.38 kcal/mol
 sn=12  qrot/sn=   25684.3681 T*S(rot)=     6.90 kcal/mol T*S(tot)=    26.33 kcal/mol

-------------------
GIBBS FREE ENTHALPY
-------------------

The Gibbs free enthalpy is G = H - T*S

Total enthalpy                    ...   -328.22549143 Eh
Total entropy correction          ...     -0.04327248 Eh    -27.15 kcal/mol
-----------------------------------------------------------------------
Final Gibbs free enthalpy         ...   -328.26876391 Eh

For completeness - the Gibbs free enthalpy minus the electronic energy
G-E(el)                           ...      0.16451494 Eh    103.23 kcal/mol

                             ****ORCA TERMINATED NORMALLY****
TOTAL RUN TIME: 0 days 1 hours 0 minutes 15 seconds 47 msec
