                         Program Version 3.0.3 - RELEASE   -
|  1> ! NORI PBE0 def2-TZVP UseSym TightOPT Freq TightSCF Grid3 FinalGrid5 XYZFile
|  2> % pal
|  3>     nprocs 8
|  4> end
|  5> %method
|  6>     SymThresh 5.0e-2
|  7> end
|  8> % geom
|  9>     MaxIter 10
| 10> end
| 11> % maxcore 2000
| 12> % output
| 13>     printlevel mini
| 14>     print[ P_Basis ] 0
| 15>     print[ P_SCFInfo ] 1
| 16>     print[ P_SCFIterInfo ] 1
| 17>     print[ P_OrbEn ] 0
| 18>     print[ P_Cartesian ] 0
| 19> end
| 20> % elprop
| 21>     Dipole false
| 22> end
| 23> *xyz 1 1
| 24>  C        1.0113313487     0.2226646236     0.1291354439
| 25>  C        2.5098728561     0.3342204097    -0.0993365199
| 26>  C        2.8766485996     1.7247598988    -0.6022720177
| 27>  O        3.2235670279     0.0294313902     1.0935974514
| 28>  C        2.9554650389    -0.7661259384    -1.0727465955
| 29>  C        4.4611711230    -0.8292087170    -1.2001696244
| 30>  N        4.8753601298    -2.1176490398    -1.8652533300
| 31>  H        0.4526299194     0.3828030010    -0.7955730704
| 32>  H        0.6834880249     0.9806577878     0.8450613012
| 33>  H        0.7527951101    -0.7591952252     0.5301342231
| 34>  H        2.4024444149     1.9412532038    -1.5624236961
| 35>  H        3.9573160949     1.8477194446    -0.7049672066
| 36>  H        2.5320516584     2.4788676815     0.1087145593
| 37>  H        2.9275129802     0.6128082314     1.7988125068
| 38>  H        2.5866811776    -1.7159468021    -0.6682771346
| 39>  H        2.4840534795    -0.6083755784    -2.0470514152
| 40>  H        4.8751005872    -0.0253781581    -1.8082090772
| 41>  H        4.9323391943    -0.8170015462    -0.2177674451
| 42>  H        4.4675295629    -2.2018224782    -2.7985746614
| 43>  H        4.5561777862    -2.9206031869    -1.3187193210
| 44>  H        5.8906338855    -2.1865590019    -1.9588943707
| 45> *
| 46>
| 47>                          ****END OF INPUT****
 Total Charge           Charge          ....    1
 Multiplicity           Mult            ....    1
 Number of Electrons    NEL             ....   58
FINAL SINGLE POINT ENERGY      -328.441962924419
FINAL SINGLE POINT ENERGY      -328.441964514251

CARTESIAN COORDINATES (ANGSTROEM)
---------------------------------
  C     -1.830065   -1.232218    0.627897
  C     -0.826390   -0.100692    0.475858
  C     -1.537342    1.220819    0.212397
  O     -0.001663   -0.002595    1.631275
  C      0.165238   -0.451571   -0.642664
  C      1.296616    0.548940   -0.724928
  N      2.416746    0.002772   -1.573866
  H     -2.422302   -1.365807   -0.280073
  H     -2.525275   -1.011049    1.441562
  H     -1.322806   -2.170889    0.858804
  H     -2.106620    1.190255   -0.719503
  H     -0.836607    2.057447    0.172202
  H     -2.243510    1.429479    1.019268
  H     -0.556209    0.120754    2.407469
  H      0.574162   -1.441225   -0.406968
  H     -0.366654   -0.523974   -1.595734
  H      1.002213    1.494076   -1.180574
  H      1.714823    0.739833    0.263220
  H      2.096977   -0.204261   -2.522374
  H      2.775477   -0.867723   -1.175396
  H      3.195913    0.660338   -1.641846

FINAL SINGLE POINT ENERGY      -328.441965221511
                    ***********************HURRAY********************
 Multiplicity           Mult            ....    1
 Number of Electrons    NEL             ....   58
 Basis Dimension        Dim             ....  301
FINAL SINGLE POINT ENERGY      -328.441965528446

VIBRATIONAL FREQUENCIES
-----------------------

   0:         0.00 cm**-1
   1:         0.00 cm**-1
   2:         0.00 cm**-1
   3:         0.00 cm**-1
   4:         0.00 cm**-1
   5:         0.00 cm**-1
   6:        60.67 cm**-1
   7:       106.14 cm**-1
   8:       180.31 cm**-1
   9:       227.44 cm**-1
  10:       236.40 cm**-1
  11:       265.44 cm**-1
  12:       282.13 cm**-1
  13:       316.46 cm**-1
  14:       349.08 cm**-1
  15:       355.38 cm**-1
  16:       417.14 cm**-1
  17:       468.07 cm**-1
  18:       536.51 cm**-1
  19:       775.43 cm**-1
  20:       786.82 cm**-1
  21:       896.90 cm**-1
  22:       906.25 cm**-1
  23:       930.62 cm**-1
  24:       935.13 cm**-1
  25:       981.67 cm**-1
  26:      1005.03 cm**-1
  27:      1007.17 cm**-1
  28:      1072.76 cm**-1
  29:      1123.84 cm**-1
  30:      1159.73 cm**-1
  31:      1234.77 cm**-1
  32:      1238.41 cm**-1
  33:      1309.37 cm**-1
  34:      1336.27 cm**-1
  35:      1350.48 cm**-1
  36:      1377.08 cm**-1
  37:      1402.47 cm**-1
  38:      1405.56 cm**-1
  39:      1420.22 cm**-1
  40:      1464.81 cm**-1
  41:      1474.12 cm**-1
  42:      1480.84 cm**-1
  43:      1497.07 cm**-1
  44:      1502.03 cm**-1
  45:      1506.11 cm**-1
  46:      1508.17 cm**-1
  47:      1659.11 cm**-1
  48:      1664.34 cm**-1
  49:      3041.37 cm**-1
  50:      3052.45 cm**-1
  51:      3056.68 cm**-1
  52:      3101.14 cm**-1
  53:      3109.48 cm**-1
  54:      3128.92 cm**-1
  55:      3133.52 cm**-1
  56:      3136.54 cm**-1
  57:      3142.27 cm**-1
  58:      3173.65 cm**-1
  59:      3422.43 cm**-1
  60:      3504.19 cm**-1
  61:      3510.13 cm**-1
  62:      3852.94 cm**-1

IR SPECTRUM
-----------

 Mode    freq (cm**-1)   T**2         TX         TY         TZ
-------------------------------------------------------------------
   6:        60.67    5.905581  (  0.593619  -0.070417   2.355470)
   7:       106.14    9.226686  (  0.331848  -2.343248   1.904140)
   8:       180.31    6.273676  ( -0.160216  -1.623270  -1.900790)
   9:       227.44    0.390193  ( -0.219293  -0.582625  -0.051499)
  10:       236.40    3.469286  ( -0.089782  -1.632244   0.892751)
  11:       265.44   11.397886  ( -0.762487  -3.111003   1.066845)
  12:       282.13   90.442007  ( -0.898779  -9.433694   0.799762)
  13:       316.46   13.023668  (  3.039373  -1.647159  -1.035735)
  14:       349.08    8.334206  ( -0.931009  -2.457503   1.195035)
  15:       355.38   12.563380  ( -2.098587  -1.456702   2.457098)
  16:       417.14    0.363908  (  0.133220   0.149580  -0.569022)
  17:       468.07    8.975676  (  0.437088   2.925919   0.472891)
  18:       536.51    7.205502  ( -1.052126   0.342217  -2.445694)
  19:       775.43    5.747680  ( -0.553878   1.339517  -1.909606)
  20:       786.82    6.660678  ( -2.198455  -0.855878  -1.046397)
  21:       896.90   12.025553  (  3.326435   0.862493  -0.465283)
  22:       906.25   18.719853  (  0.120572  -1.278423   4.131701)
  23:       930.62   12.977866  (  3.111014   0.928610   1.561135)
  24:       935.13    8.328243  ( -2.149336   0.691121  -1.797484)
  25:       981.67    6.057667  (  1.251550   0.156172   2.113504)
  26:      1005.03    2.820886  (  1.088360  -0.374127  -1.223269)
  27:      1007.17    4.433569  (  0.524963   1.993125   0.430623)
  28:      1072.76   20.059853  ( -1.412205  -0.562009  -4.213036)
  29:      1123.84   32.363459  (  1.459344   1.011668  -5.404655)
  30:      1159.73   36.796051  ( -2.631264  -0.722416  -5.417621)
  31:      1234.77   55.144463  (  4.244985   3.077377   5.258737)
  32:      1238.41   16.255370  (  1.403654  -3.128729   2.120419)
  33:      1309.37    2.949682  (  1.415960  -0.356300   0.904318)
  34:      1336.27    7.200176  (  2.081469  -0.267366   1.672178)
  35:      1350.48   10.971311  ( -0.794369   1.668022  -2.749180)
  36:      1377.08   46.867110  ( -6.770101   0.836988  -0.576442)
  37:      1402.47   21.391354  (  0.929667   4.476637  -0.697710)
  38:      1405.56   22.930837  ( -4.489112   0.237849   1.649891)
  39:      1420.22    6.527744  (  2.169260  -0.411831   1.285477)
  40:      1464.81    0.037687  ( -0.169046  -0.023073   0.092617)
  41:      1474.12    0.688540  ( -0.545987   0.619573  -0.081040)
  42:      1480.84    2.516597  (  0.060839   1.570003  -0.219055)
  43:      1497.07    0.965911  (  0.640973   0.522375  -0.531214)
  44:      1502.03   18.067669  ( -4.085418   0.383622  -1.108993)
  45:      1506.11   68.120167  ( -6.734552   1.361255   4.573070)
  46:      1508.17   85.702609  ( -4.877640   5.028991   6.051486)
  47:      1659.11   52.187066  ( -3.558925   2.535300  -5.752684)
  48:      1664.34   36.268116  (  3.304929   5.034434   0.005565)
  49:      3041.37   13.968351  ( -1.861418   2.829613   1.580115)
  50:      3052.45    9.250411  ( -0.843441  -2.809938   0.802041)
  51:      3056.68    0.951199  (  0.841006  -0.205435   0.449115)
  52:      3101.14    5.769713  ( -1.529904   0.774175  -1.682189)
  53:      3109.48    3.234556  ( -0.366303  -1.083326   1.388086)
  54:      3128.92    2.235003  (  0.478652   1.405583   0.173878)
  55:      3133.52   21.137818  (  3.235334   1.094644  -3.077692)
  56:      3136.54   15.348513  (  1.235373   2.573251   2.683420)
  57:      3142.27   13.077115  (  2.678883  -1.618100   1.811753)
  58:      3173.65    1.776812  ( -0.658496   0.800585   0.838008)
  59:      3422.43   42.759557  ( -5.319283   1.682056   3.411080)
  60:      3504.19   87.933460  ( -3.013281   4.800620  -7.470452)
  61:      3510.13   94.370812  ( -5.835938  -7.415554  -2.306989)
  62:      3852.94   56.126383  (  1.802614  -0.807120  -7.226723)

--------------------------
THERMOCHEMISTRY AT 298.15K
--------------------------

Temperature         ... 298.15 K
Pressure            ... 1.00 atm
Total Mass          ... 104.17 AMU

Throughout the following assumptions are being made:
  (1) The electronic state is orbitally nondegenerate
  (2) There are no thermally accessible electronically excited states
  (3) Hindered rotations indicated by low frequency modes) are not
      treated as such but are treated as vibrations and this may
      case some error
  (4) All equations used are the standard statistical mechanics
      equations for an ideal gas
  (5) All vibrations are strinctly harmonic

------------
INNER ENERGY
------------

The inner energy is: U= E(el) + E(ZPE) + E(vib) + E(rot) + E(trans)
    E(el)   - is the total energy from the electronic structure calculation
              = E(kin-el) + E(nuc-el) + E(el-el) + E(nuc-nuc)
    E(ZPE)  - the the zero temperature vibrational energy from the frequency calculation
    E(vib)  - the the finite temperature correction to E(ZPE) due to population
              of excietd vibrational states
    E(rot)  - is the rotational thermal energy
    E(trans)- is the translational thermal energy

Summary of contributions to the inner energy U:
Electronic energy                ...   -328.44196553 Eh
Zero point energy                ...      0.19724250 Eh     123.77 kcal/mol
Thermal vibrational correction   ...      0.00660063 Eh       4.14 kcal/mol
Thermal rotational correction    ...      0.00141627 Eh       0.89 kcal/mol
Thermal translational correction ...      0.00141627 Eh       0.89 kcal/mol
-----------------------------------------------------------------------
Total thermal energy                   -328.23528985 Eh

Summary of corrections to the electronic energy:
(perhaps to be used in another calculation)
Total thermal correction                  0.00943317 Eh       5.92 kcal/mol
Non-thermal (ZPE) correction              0.19724250 Eh     123.77 kcal/mol
-----------------------------------------------------------------------
Total correction                          0.20667567 Eh     129.69 kcal/mol

--------
ENTHALPY
--------

The enthalpy is H = U + kB*T
                kB is Boltzmann's constant
Total free energy                 ...   -328.23528985 Eh
Thermal Enthalpy correction       ...      0.00094421 Eh       0.59 kcal/mol
-----------------------------------------------------------------------
Total Enthalpy                    ...   -328.23434564 Eh

-------
ENTROPY
-------

The entropy contributions are T*S = T*(S(el)+S(vib)+S(rot)+S(trans)
     S(el)   - electronic entropy
     S(vib)  - vibrational entropy
     S(rot)  - rotational entropy
     S(trans)- translational entropy
The entropies will be listed as mutliplied by the temperature to get
units of energy

Electronic entropy                ...      0.00000000 Eh      0.00 kcal/mol
Vibrational entropy               ...      0.01167537 Eh      7.33 kcal/mol
Rotational entropy                ...      0.01227336 Eh      7.70 kcal/mol
Translational entropy             ...      0.01892914 Eh     11.88 kcal/mol
-----------------------------------------------------------------------
Final entropy term                ...      0.04287787 Eh     26.91 kcal/mol

CAUTION: The rotational entropy is not quite correctly treated here
         because it includes a symmetry number that is not yet correctly
         implemented in ORCA!
For a nonlinear molecule the correct rotational entropy is:
    S(rot) = R*(ln(qrot/sn)+1.5)
    R    = 8.31441 J/mol/K = 1.987191683e-3 kcal/mol/K
    qrot = 295835.3193507
    sn is the rotational symmetry number. We have assumed 3 here
       if it is different for your molecule then you should correct
       the printed rotational entropy by manually evaluating the equation
       as given above

For convenience we print out the resulting values for sn=1 - 12:
 sn= 1  qrot/sn=  295835.3194 T*S(rot)=     8.35 kcal/mol T*S(tot)=    27.56 kcal/mol
 sn= 2  qrot/sn=  147917.6597 T*S(rot)=     7.94 kcal/mol T*S(tot)=    27.15 kcal/mol
 sn= 3  qrot/sn=   98611.7731 T*S(rot)=     7.70 kcal/mol T*S(tot)=    26.91 kcal/mol
 sn= 4  qrot/sn=   73958.8298 T*S(rot)=     7.53 kcal/mol T*S(tot)=    26.74 kcal/mol
 sn= 5  qrot/sn=   59167.0639 T*S(rot)=     7.40 kcal/mol T*S(tot)=    26.60 kcal/mol
 sn= 6  qrot/sn=   49305.8866 T*S(rot)=     7.29 kcal/mol T*S(tot)=    26.50 kcal/mol
 sn= 7  qrot/sn=   42262.1885 T*S(rot)=     7.20 kcal/mol T*S(tot)=    26.40 kcal/mol
 sn= 8  qrot/sn=   36979.4149 T*S(rot)=     7.12 kcal/mol T*S(tot)=    26.33 kcal/mol
 sn= 9  qrot/sn=   32870.5910 T*S(rot)=     7.05 kcal/mol T*S(tot)=    26.26 kcal/mol
 sn=10  qrot/sn=   29583.5319 T*S(rot)=     6.99 kcal/mol T*S(tot)=    26.19 kcal/mol
 sn=11  qrot/sn=   26894.1199 T*S(rot)=     6.93 kcal/mol T*S(tot)=    26.14 kcal/mol
 sn=12  qrot/sn=   24652.9433 T*S(rot)=     6.88 kcal/mol T*S(tot)=    26.08 kcal/mol

-------------------
GIBBS FREE ENTHALPY
-------------------

The Gibbs free enthalpy is G = H - T*S

Total enthalpy                    ...   -328.23434564 Eh
Total entropy correction          ...     -0.04287787 Eh    -26.91 kcal/mol
-----------------------------------------------------------------------
Final Gibbs free enthalpy         ...   -328.27722352 Eh

For completeness - the Gibbs free enthalpy minus the electronic energy
G-E(el)                           ...      0.16474201 Eh    103.38 kcal/mol

                             ****ORCA TERMINATED NORMALLY****
TOTAL RUN TIME: 0 days 0 hours 59 minutes 8 seconds 172 msec
