                         Program Version 3.0.3 - RELEASE   -
|  1> ! NORI PBE0 def2-TZVP UseSym TightOPT Freq TightSCF Grid3 FinalGrid5 XYZFile
|  2> % pal
|  3>     nprocs 8
|  4> end
|  5> %method
|  6>     SymThresh 5.0e-2
|  7> end
|  8> % geom
|  9>     MaxIter 10
| 10> end
| 11> % maxcore 2000
| 12> % output
| 13>     printlevel mini
| 14>     print[ P_Basis ] 0
| 15>     print[ P_SCFInfo ] 1
| 16>     print[ P_SCFIterInfo ] 1
| 17>     print[ P_OrbEn ] 0
| 18>     print[ P_Cartesian ] 0
| 19> end
| 20> % elprop
| 21>     Dipole false
| 22> end
| 23> *xyz 1 1
| 24>  C        1.5604260143     1.0825026038    -0.4184472495
| 25>  C        2.5533779035     0.1770447172     0.2976448552
| 26>  C        2.5763785255     0.4471893662     1.7993045167
| 27>  O        1.4342038335    -0.1401061609     2.3742179107
| 28>  C        2.2182910675    -1.2872008695    -0.0087525699
| 29>  C        3.0030070715    -2.3220182708     0.7608270112
| 30>  N        4.4796738798    -2.2165758911     0.4603702567
| 31>  H        1.5167025772     0.8596890672    -1.4868177560
| 32>  H        1.8394384930     2.1317787092    -0.3075515040
| 33>  H        0.5593137189     0.9499823160    -0.0033713100
| 34>  H        3.5570352058     0.4189951494    -0.0860002990
| 35>  H        2.6091385163     1.5291521394     1.9661796976
| 36>  H        3.4914246892     0.0351276653     2.2621968644
| 37>  H        1.2366077270     0.2777860295     3.2157681287
| 38>  H        2.3047582713    -1.4706238008    -1.0859251543
| 39>  H        1.1703733609    -1.4619491930     0.2469292526
| 40>  H        2.7105159614    -3.3382175809     0.4952527256
| 41>  H        2.8939683601    -2.1934300662     1.8380827261
| 42>  H        4.6604752410    -2.3657321200    -0.5344396066
| 43>  H        5.0264751372    -2.8997225119     0.9865215042
| 44>  H        4.8229544452    -1.2836712980     0.6978399997
| 45> *
| 46>
| 47>                          ****END OF INPUT****
 Total Charge           Charge          ....    1
 Multiplicity           Mult            ....    1
 Number of Electrons    NEL             ....   58
FINAL SINGLE POINT ENERGY      -328.432792636888
FINAL SINGLE POINT ENERGY      -328.432799364546
FINAL SINGLE POINT ENERGY      -328.432805336211

CARTESIAN COORDINATES (ANGSTROEM)
---------------------------------
  C     -2.302351    0.294327    0.035010
  C     -0.804513    0.451513   -0.192294
  C     -0.109300    1.030148    1.036815
  O      0.013876    0.012814    2.000789
  C     -0.208147   -0.900881   -0.599163
  C      1.298554   -0.967441   -0.675203
  N      1.833811    0.008051   -1.696966
  H     -2.792198   -0.154620   -0.831687
  H     -2.772803    1.261339    0.219894
  H     -2.488032   -0.346766    0.899153
  H     -0.669172    1.179771   -1.007264
  H     -0.692176    1.879494    1.408690
  H      0.887766    1.431201    0.775615
  H      0.120901    0.397852    2.873926
  H     -0.649361   -1.230211   -1.546616
  H     -0.498168   -1.645985    0.145780
  H      1.650196   -1.952913   -0.981406
  H      1.762398   -0.706626    0.276338
  H      1.461085   -0.195557   -2.626587
  H      2.853214   -0.018480   -1.752449
  H      1.553765    0.960928   -1.455089

FINAL SINGLE POINT ENERGY      -328.432805861010
                    ***********************HURRAY********************
 Multiplicity           Mult            ....    1
 Number of Electrons    NEL             ....   58
 Basis Dimension        Dim             ....  301
FINAL SINGLE POINT ENERGY      -328.432806330893

VIBRATIONAL FREQUENCIES
-----------------------

   0:         0.00 cm**-1
   1:         0.00 cm**-1
   2:         0.00 cm**-1
   3:         0.00 cm**-1
   4:         0.00 cm**-1
   5:         0.00 cm**-1
   6:        68.18 cm**-1
   7:       117.61 cm**-1
   8:       141.41 cm**-1
   9:       191.26 cm**-1
  10:       223.12 cm**-1
  11:       243.97 cm**-1
  12:       287.40 cm**-1
  13:       308.47 cm**-1
  14:       319.16 cm**-1
  15:       379.34 cm**-1
  16:       495.47 cm**-1
  17:       603.04 cm**-1
  18:       751.02 cm**-1
  19:       828.07 cm**-1
  20:       860.96 cm**-1
  21:       901.47 cm**-1
  22:       937.28 cm**-1
  23:       960.85 cm**-1
  24:      1006.62 cm**-1
  25:      1022.10 cm**-1
  26:      1050.56 cm**-1
  27:      1081.37 cm**-1
  28:      1151.31 cm**-1
  29:      1163.66 cm**-1
  30:      1189.25 cm**-1
  31:      1227.07 cm**-1
  32:      1283.41 cm**-1
  33:      1297.44 cm**-1
  34:      1326.20 cm**-1
  35:      1351.31 cm**-1
  36:      1368.60 cm**-1
  37:      1398.78 cm**-1
  38:      1408.67 cm**-1
  39:      1408.98 cm**-1
  40:      1446.00 cm**-1
  41:      1465.95 cm**-1
  42:      1488.11 cm**-1
  43:      1495.02 cm**-1
  44:      1497.02 cm**-1
  45:      1499.28 cm**-1
  46:      1519.72 cm**-1
  47:      1655.53 cm**-1
  48:      1660.62 cm**-1
  49:      2920.04 cm**-1
  50:      2989.70 cm**-1
  51:      3053.97 cm**-1
  52:      3059.95 cm**-1
  53:      3065.30 cm**-1
  54:      3104.76 cm**-1
  55:      3117.40 cm**-1
  56:      3136.77 cm**-1
  57:      3144.60 cm**-1
  58:      3165.39 cm**-1
  59:      3423.64 cm**-1
  60:      3503.11 cm**-1
  61:      3516.22 cm**-1
  62:      3877.75 cm**-1

IR SPECTRUM
-----------

 Mode    freq (cm**-1)   T**2         TX         TY         TZ
-------------------------------------------------------------------
   6:        68.18   11.636819  (  0.259561  -0.818918  -3.301336)
   7:       117.61    2.507208  (  0.242431  -1.563333  -0.066535)
   8:       141.41   17.408663  ( -3.598525   1.056961   1.828146)
   9:       191.26    0.708078  (  0.176987  -0.502662  -0.651218)
  10:       223.12    1.270611  ( -0.507455  -0.042163  -1.005645)
  11:       243.97    1.814012  (  1.073918   0.072662   0.809588)
  12:       287.40  111.858862  ( 10.419094  -0.058658  -1.816013)
  13:       308.47    6.877929  (  1.668380  -0.971383   1.775064)
  14:       319.16   10.592053  ( -2.874852  -0.445016   1.459191)
  15:       379.34    0.416398  (  0.318657   0.442787   0.344668)
  16:       495.47    3.856728  (  1.875836   0.570298  -0.112815)
  17:       603.04    4.198146  (  0.857435  -1.172455   1.445095)
  18:       751.02   13.881206  (  1.027963  -1.040885  -3.426523)
  19:       828.07    2.790012  (  0.376414  -0.998269  -1.285217)
  20:       860.96   12.290529  ( -2.473680   1.737074   1.775954)
  21:       901.47    7.525243  ( -2.433947  -1.080557  -0.658439)
  22:       937.28    3.280639  ( -0.869116   1.589034   0.015700)
  23:       960.85   14.364437  ( -1.267160  -0.828613   3.474499)
  24:      1006.62   11.000605  ( -1.955583  -1.019903   2.477115)
  25:      1022.10   42.014005  ( -0.943371   4.211145  -4.836353)
  26:      1050.56    7.571395  ( -1.835174  -1.166957   1.685747)
  27:      1081.37   23.399773  (  1.408531  -2.383759   3.966549)
  28:      1151.31    1.482569  ( -0.914198   0.797845   0.101264)
  29:      1163.66    7.484635  ( -2.234999  -1.164916   1.064135)
  30:      1189.25   37.677433  ( -2.007291   4.553894  -3.593085)
  31:      1227.07   20.524719  (  1.084401   3.724777  -2.339835)
  32:      1283.41    6.422823  ( -0.198039   1.776777  -1.796292)
  33:      1297.44   21.363371  (  1.115699  -3.422283   2.899408)
  34:      1326.20    5.222091  ( -0.608488   1.496164   1.616579)
  35:      1351.31   13.615917  (  0.723710  -3.215056  -1.659993)
  36:      1368.60    8.303641  (  1.022285   0.804999  -2.571099)
  37:      1398.78    0.177863  ( -0.124931  -0.162937   0.368385)
  38:      1408.67    3.563951  (  1.858715  -0.190034  -0.270214)
  39:      1408.98    4.547656  (  1.985723   0.437755  -0.642598)
  40:      1446.00    1.306990  ( -0.519365   0.538057   0.864722)
  41:      1465.95   21.684805  ( -3.159228  -3.322863   0.814045)
  42:      1488.11   31.649467  ( -0.968158  -3.596964   4.215921)
  43:      1495.02  108.029760  (  5.372283   5.611897  -6.904705)
  44:      1497.02   24.839642  ( -0.738769   0.542297   4.898957)
  45:      1499.28   24.063963  (  2.741374  -3.572348   1.946064)
  46:      1519.72   17.615032  (  3.480968   2.301028  -0.450741)
  47:      1655.53   43.621227  ( -2.003423  -4.492191  -4.407691)
  48:      1660.62   30.842517  ( -4.971592   2.401868   0.597349)
  49:      2920.04   99.755707  ( -8.334750  -4.124285   3.643889)
  50:      2989.70   55.844798  ( -3.775822  -4.143730   4.941404)
  51:      3053.97   13.899974  (  0.483648  -1.544507  -3.358654)
  52:      3059.95    7.586639  (  2.200051   1.230153   1.110468)
  53:      3065.30   20.545561  (  3.049626  -3.337656  -0.324648)
  54:      3104.76    3.160272  ( -1.491340   0.620022   0.742798)
  55:      3117.40    1.489865  (  1.144257  -0.170864   0.389033)
  56:      3136.77   11.563667  (  0.283910   1.404030   3.084114)
  57:      3144.60    8.814969  (  0.725874  -2.811052   0.621341)
  58:      3165.39    0.317427  (  0.091635   0.554155   0.044074)
  59:      3423.64   24.814076  (  1.939452   3.167141  -3.319913)
  60:      3503.11  101.057601  (  2.374127  -6.242992  -7.513067)
  61:      3516.22  104.039163  ( -9.917323   1.192041  -2.065166)
  62:      3877.75   92.215093  ( -0.895836  -1.480639  -9.445649)

--------------------------
THERMOCHEMISTRY AT 298.15K
--------------------------

Temperature         ... 298.15 K
Pressure            ... 1.00 atm
Total Mass          ... 104.17 AMU

Throughout the following assumptions are being made:
  (1) The electronic state is orbitally nondegenerate
  (2) There are no thermally accessible electronically excited states
  (3) Hindered rotations indicated by low frequency modes) are not
      treated as such but are treated as vibrations and this may
      case some error
  (4) All equations used are the standard statistical mechanics
      equations for an ideal gas
  (5) All vibrations are strinctly harmonic

------------
INNER ENERGY
------------

The inner energy is: U= E(el) + E(ZPE) + E(vib) + E(rot) + E(trans)
    E(el)   - is the total energy from the electronic structure calculation
              = E(kin-el) + E(nuc-el) + E(el-el) + E(nuc-nuc)
    E(ZPE)  - the the zero temperature vibrational energy from the frequency calculation
    E(vib)  - the the finite temperature correction to E(ZPE) due to population
              of excietd vibrational states
    E(rot)  - is the rotational thermal energy
    E(trans)- is the translational thermal energy

Summary of contributions to the inner energy U:
Electronic energy                ...   -328.43280633 Eh
Zero point energy                ...      0.19856331 Eh     124.60 kcal/mol
Thermal vibrational correction   ...      0.00639448 Eh       4.01 kcal/mol
Thermal rotational correction    ...      0.00141627 Eh       0.89 kcal/mol
Thermal translational correction ...      0.00141627 Eh       0.89 kcal/mol
-----------------------------------------------------------------------
Total thermal energy                   -328.22501600 Eh

Summary of corrections to the electronic energy:
(perhaps to be used in another calculation)
Total thermal correction                  0.00922702 Eh       5.79 kcal/mol
Non-thermal (ZPE) correction              0.19856331 Eh     124.60 kcal/mol
-----------------------------------------------------------------------
Total correction                          0.20779033 Eh     130.39 kcal/mol

--------
ENTHALPY
--------

The enthalpy is H = U + kB*T
                kB is Boltzmann's constant
Total free energy                 ...   -328.22501600 Eh
Thermal Enthalpy correction       ...      0.00094421 Eh       0.59 kcal/mol
-----------------------------------------------------------------------
Total Enthalpy                    ...   -328.22407179 Eh

-------
ENTROPY
-------

The entropy contributions are T*S = T*(S(el)+S(vib)+S(rot)+S(trans)
     S(el)   - electronic entropy
     S(vib)  - vibrational entropy
     S(rot)  - rotational entropy
     S(trans)- translational entropy
The entropies will be listed as mutliplied by the temperature to get
units of energy

Electronic entropy                ...      0.00000000 Eh      0.00 kcal/mol
Vibrational entropy               ...      0.01146301 Eh      7.19 kcal/mol
Rotational entropy                ...      0.01227900 Eh      7.71 kcal/mol
Translational entropy             ...      0.01892914 Eh     11.88 kcal/mol
-----------------------------------------------------------------------
Final entropy term                ...      0.04267115 Eh     26.78 kcal/mol

CAUTION: The rotational entropy is not quite correctly treated here
         because it includes a symmetry number that is not yet correctly
         implemented in ORCA!
For a nonlinear molecule the correct rotational entropy is:
    S(rot) = R*(ln(qrot/sn)+1.5)
    R    = 8.31441 J/mol/K = 1.987191683e-3 kcal/mol/K
    qrot = 297608.2833385
    sn is the rotational symmetry number. We have assumed 3 here
       if it is different for your molecule then you should correct
       the printed rotational entropy by manually evaluating the equation
       as given above

For convenience we print out the resulting values for sn=1 - 12:
 sn= 1  qrot/sn=  297608.2833 T*S(rot)=     8.36 kcal/mol T*S(tot)=    27.43 kcal/mol
 sn= 2  qrot/sn=  148804.1417 T*S(rot)=     7.95 kcal/mol T*S(tot)=    27.02 kcal/mol
 sn= 3  qrot/sn=   99202.7611 T*S(rot)=     7.71 kcal/mol T*S(tot)=    26.78 kcal/mol
 sn= 4  qrot/sn=   74402.0708 T*S(rot)=     7.53 kcal/mol T*S(tot)=    26.61 kcal/mol
 sn= 5  qrot/sn=   59521.6567 T*S(rot)=     7.40 kcal/mol T*S(tot)=    26.47 kcal/mol
 sn= 6  qrot/sn=   49601.3806 T*S(rot)=     7.29 kcal/mol T*S(tot)=    26.37 kcal/mol
 sn= 7  qrot/sn=   42515.4690 T*S(rot)=     7.20 kcal/mol T*S(tot)=    26.27 kcal/mol
 sn= 8  qrot/sn=   37201.0354 T*S(rot)=     7.12 kcal/mol T*S(tot)=    26.20 kcal/mol
 sn= 9  qrot/sn=   33067.5870 T*S(rot)=     7.05 kcal/mol T*S(tot)=    26.13 kcal/mol
 sn=10  qrot/sn=   29760.8283 T*S(rot)=     6.99 kcal/mol T*S(tot)=    26.06 kcal/mol
 sn=11  qrot/sn=   27055.2985 T*S(rot)=     6.94 kcal/mol T*S(tot)=    26.01 kcal/mol
 sn=12  qrot/sn=   24800.6903 T*S(rot)=     6.88 kcal/mol T*S(tot)=    25.96 kcal/mol

-------------------
GIBBS FREE ENTHALPY
-------------------

The Gibbs free enthalpy is G = H - T*S

Total enthalpy                    ...   -328.22407179 Eh
Total entropy correction          ...     -0.04267115 Eh    -26.78 kcal/mol
-----------------------------------------------------------------------
Final Gibbs free enthalpy         ...   -328.26674294 Eh

For completeness - the Gibbs free enthalpy minus the electronic energy
G-E(el)                           ...      0.16606339 Eh    104.21 kcal/mol

                             ****ORCA TERMINATED NORMALLY****
TOTAL RUN TIME: 0 days 1 hours 1 minutes 41 seconds 617 msec
