                         Program Version 3.0.3 - RELEASE   -
|  1> ! NORI PBE0 def2-TZVP UseSym TightOPT Freq TightSCF Grid3 FinalGrid5 XYZFile
|  2> % pal
|  3>     nprocs 8
|  4> end
|  5> %method
|  6>     SymThresh 5.0e-2
|  7> end
|  8> % geom
|  9>     MaxIter 10
| 10> end
| 11> % maxcore 2000
| 12> % output
| 13>     printlevel mini
| 14>     print[ P_Basis ] 0
| 15>     print[ P_SCFInfo ] 1
| 16>     print[ P_SCFIterInfo ] 1
| 17>     print[ P_OrbEn ] 0
| 18>     print[ P_Cartesian ] 0
| 19> end
| 20> % elprop
| 21>     Dipole false
| 22> end
| 23> *xyz 1 1
| 24>  C        1.0754249083     0.3732611253    -0.0812851860
| 25>  C        2.5359287479     0.2359430281     0.1784289461
| 26>  C        2.9008552979    -0.1253134822     1.5984040988
| 27>  O        2.0967005350     0.5032387913     2.5574440590
| 28>  C        3.4192757702     0.3500669237    -0.8229586558
| 29>  C        4.8876663658     0.1683944456    -0.7311858728
| 30>  N        5.5915538149     1.4393809671    -1.1936491442
| 31>  H        0.8642292528     0.5924503218    -1.1271061691
| 32>  H        0.6453356901     1.1542347864     0.5486166932
| 33>  H        0.5591489709    -0.5504289586     0.1991462081
| 34>  H        3.9659678837     0.0353560594     1.8057637900
| 35>  H        2.7206990468    -1.2002553012     1.7162903454
| 36>  H        2.3716934693     1.4164096969     2.6725850358
| 37>  H        3.0350639526     0.5141740843    -1.8287358784
| 38>  H        5.2586748181    -0.6177132504    -1.3931871209
| 39>  H        5.2506231503    -0.0284433381     0.2753132880
| 40>  H        5.3078596037     1.6754793008    -2.1467139536
| 41>  H        6.6097905421     1.3468718200    -1.1799529834
| 42>  H        5.3265081795     2.2260929799    -0.5978474999
| 43> *
| 44>
| 45>                          ****END OF INPUT****
 Total Charge           Charge          ....    1
 Multiplicity           Mult            ....    1
 Number of Electrons    NEL             ....   56
FINAL SINGLE POINT ENERGY      -327.200995407387
FINAL SINGLE POINT ENERGY      -327.200996657282
FINAL SINGLE POINT ENERGY      -327.200997921467
FINAL SINGLE POINT ENERGY      -327.200998526384

CARTESIAN COORDINATES (ANGSTROEM)
---------------------------------
  C     -1.764989    1.123538    0.680723
  C     -0.677259    0.198092    0.256776
  C     -0.105486   -0.665193    1.355842
  O     -0.005250   -0.006733    2.588076
  C     -0.320863    0.111680   -1.032315
  C      0.687704   -0.808366   -1.610378
  N      1.776258   -0.002004   -2.308926
  H     -2.174025    1.685691   -0.157905
  H     -1.403738    1.817914    1.441558
  H     -2.571384    0.557070    1.156682
  H      0.851330   -1.118890    1.069546
  H     -0.805656   -1.492806    1.517052
  H      0.749189    0.588127    2.584628
  H     -0.869905    0.710541   -1.757481
  H      0.272907   -1.456674   -2.386033
  H      1.196131   -1.430528   -0.876667
  H      1.367252    0.596190   -3.029824
  H      2.478301   -0.598110   -2.752880
  H      2.244488    0.611962   -1.639562

FINAL SINGLE POINT ENERGY      -327.200998826090
                    ***********************HURRAY********************
 Multiplicity           Mult            ....    1
 Number of Electrons    NEL             ....   56
 Basis Dimension        Dim             ....  289
FINAL SINGLE POINT ENERGY      -327.200998919935

VIBRATIONAL FREQUENCIES
-----------------------

   0:         0.00 cm**-1
   1:         0.00 cm**-1
   2:         0.00 cm**-1
   3:         0.00 cm**-1
   4:         0.00 cm**-1
   5:         0.00 cm**-1
   6:        54.50 cm**-1
   7:        80.78 cm**-1
   8:       136.59 cm**-1
   9:       179.48 cm**-1
  10:       192.19 cm**-1
  11:       250.32 cm**-1
  12:       278.79 cm**-1
  13:       301.43 cm**-1
  14:       392.79 cm**-1
  15:       422.57 cm**-1
  16:       500.77 cm**-1
  17:       598.07 cm**-1
  18:       766.35 cm**-1
  19:       840.34 cm**-1
  20:       858.94 cm**-1
  21:       860.17 cm**-1
  22:       929.22 cm**-1
  23:       975.14 cm**-1
  24:      1050.06 cm**-1
  25:      1061.14 cm**-1
  26:      1080.60 cm**-1
  27:      1134.24 cm**-1
  28:      1144.50 cm**-1
  29:      1210.39 cm**-1
  30:      1257.15 cm**-1
  31:      1333.89 cm**-1
  32:      1358.18 cm**-1
  33:      1391.03 cm**-1
  34:      1396.67 cm**-1
  35:      1408.03 cm**-1
  36:      1411.22 cm**-1
  37:      1453.80 cm**-1
  38:      1471.20 cm**-1
  39:      1473.23 cm**-1
  40:      1490.81 cm**-1
  41:      1493.60 cm**-1
  42:      1649.89 cm**-1
  43:      1661.29 cm**-1
  44:      1719.62 cm**-1
  45:      3023.36 cm**-1
  46:      3058.47 cm**-1
  47:      3071.40 cm**-1
  48:      3090.91 cm**-1
  49:      3123.27 cm**-1
  50:      3139.56 cm**-1
  51:      3162.06 cm**-1
  52:      3171.10 cm**-1
  53:      3417.41 cm**-1
  54:      3507.15 cm**-1
  55:      3510.33 cm**-1
  56:      3862.94 cm**-1

IR SPECTRUM
-----------

 Mode    freq (cm**-1)   T**2         TX         TY         TZ
-------------------------------------------------------------------
   6:        54.50    2.865577  (  0.076822  -0.546474   1.600326)
   7:        80.78   10.852280  ( -0.497127  -1.052280  -3.081858)
   8:       136.59    5.572085  ( -0.334889  -1.952618  -1.283439)
   9:       179.48    3.603184  ( -0.285194   0.729023   1.729270)
  10:       192.19    0.673011  (  0.311832  -0.191159  -0.734323)
  11:       250.32   34.813202  (  4.045987  -4.073075   1.361342)
  12:       278.79   92.366431  ( -5.794710   5.784178  -5.032996)
  13:       301.43    1.251329  (  0.539980  -0.028885   0.979243)
  14:       392.79    6.908603  (  1.440071   1.454288  -1.649195)
  15:       422.57   15.544126  ( -3.796528   1.033767  -0.248654)
  16:       500.77    1.633145  ( -0.163314  -0.512262   1.159337)
  17:       598.07    2.118430  (  0.355482  -1.352522  -0.403419)
  18:       766.35    4.254146  (  1.846673  -0.065140   0.916352)
  19:       840.34   12.004110  ( -2.162974  -2.323173   1.388711)
  20:       858.94   13.558657  ( -3.663655  -0.209001  -0.304310)
  21:       860.17   55.550860  (  5.203083  -0.319672  -5.326969)
  22:       929.22   22.116496  (  2.572356   3.343209   2.079046)
  23:       975.14    7.899306  ( -0.272127   1.021484  -2.604193)
  24:      1050.06   22.590695  ( -0.728499  -3.278479  -3.363266)
  25:      1061.14   36.242524  (  0.809325  -1.823801  -5.679900)
  26:      1080.60   10.382819  ( -1.976623  -1.292022   2.192364)
  27:      1134.24   76.374648  ( -1.703981  -2.734854  -8.123526)
  28:      1144.50    9.267969  (  1.559316  -2.566938  -0.497327)
  29:      1210.39   20.137017  ( -1.294005   2.378423   3.578501)
  30:      1257.15    5.629416  ( -1.883817   0.855467   1.161390)
  31:      1333.89   13.294984  ( -0.105891   0.513867   3.608284)
  32:      1358.18   43.234561  ( -2.615330   1.005040   5.948487)
  33:      1391.03   28.091918  (  0.760006  -1.565128  -5.006464)
  34:      1396.67    2.557368  ( -1.494183  -0.506219  -0.261779)
  35:      1408.03    6.413797  (  1.007311  -0.965141  -2.113676)
  36:      1411.22   18.039171  ( -3.318193   2.331860   1.261428)
  37:      1453.80    9.851454  (  2.158870   2.096946   0.890817)
  38:      1471.20   37.059782  (  2.099728   2.464167  -5.155463)
  39:      1473.23   12.353928  (  0.198418  -0.145862  -3.506178)
  40:      1490.81   18.211612  ( -2.523158   3.147362   1.392623)
  41:      1493.60  142.029138  (  8.799657   6.046665  -5.294621)
  42:      1649.89   48.415123  (  4.740962  -0.962194   5.001258)
  43:      1661.29   38.893301  ( -2.388799   4.646895   3.404894)
  44:      1719.62   49.463489  (  4.241690  -0.633440  -5.574075)
  45:      3023.36   44.411204  (  3.849816  -4.114519  -3.558210)
  46:      3058.47    0.426541  (  0.132833  -0.221434   0.599886)
  47:      3071.40    9.639256  ( -3.042167   0.593638  -0.179086)
  48:      3090.91    7.083611  (  1.659537  -1.522128  -1.418688)
  49:      3123.27    1.356078  (  0.183009   1.001683  -0.564993)
  50:      3139.56    2.622369  ( -0.301174   0.738073  -1.409579)
  51:      3162.06    6.678791  (  1.472465  -1.443534   1.557834)
  52:      3171.10    1.697504  ( -0.854661   0.953519  -0.240544)
  53:      3417.41   37.341711  (  4.465975   2.117603  -3.593401)
  54:      3507.15   87.907353  ( -5.987362   5.047400  -5.155833)
  55:      3510.33   82.878306  (  0.017141   6.197157   6.668827)
  56:      3862.94   48.803701  ( -4.649045  -3.974618  -3.375277)

--------------------------
THERMOCHEMISTRY AT 298.15K
--------------------------

Temperature         ... 298.15 K
Pressure            ... 1.00 atm
Total Mass          ... 102.16 AMU

Throughout the following assumptions are being made:
  (1) The electronic state is orbitally nondegenerate
  (2) There are no thermally accessible electronically excited states
  (3) Hindered rotations indicated by low frequency modes) are not
      treated as such but are treated as vibrations and this may
      case some error
  (4) All equations used are the standard statistical mechanics
      equations for an ideal gas
  (5) All vibrations are strinctly harmonic

------------
INNER ENERGY
------------

The inner energy is: U= E(el) + E(ZPE) + E(vib) + E(rot) + E(trans)
    E(el)   - is the total energy from the electronic structure calculation
              = E(kin-el) + E(nuc-el) + E(el-el) + E(nuc-nuc)
    E(ZPE)  - the the zero temperature vibrational energy from the frequency calculation
    E(vib)  - the the finite temperature correction to E(ZPE) due to population
              of excietd vibrational states
    E(rot)  - is the rotational thermal energy
    E(trans)- is the translational thermal energy

Summary of contributions to the inner energy U:
Electronic energy                ...   -327.20099892 Eh
Zero point energy                ...      0.17406786 Eh     109.23 kcal/mol
Thermal vibrational correction   ...      0.00638379 Eh       4.01 kcal/mol
Thermal rotational correction    ...      0.00141627 Eh       0.89 kcal/mol
Thermal translational correction ...      0.00141627 Eh       0.89 kcal/mol
-----------------------------------------------------------------------
Total thermal energy                   -327.01771473 Eh

Summary of corrections to the electronic energy:
(perhaps to be used in another calculation)
Total thermal correction                  0.00921633 Eh       5.78 kcal/mol
Non-thermal (ZPE) correction              0.17406786 Eh     109.23 kcal/mol
-----------------------------------------------------------------------
Total correction                          0.18328419 Eh     115.01 kcal/mol

--------
ENTHALPY
--------

The enthalpy is H = U + kB*T
                kB is Boltzmann's constant
Total free energy                 ...   -327.01771473 Eh
Thermal Enthalpy correction       ...      0.00094421 Eh       0.59 kcal/mol
-----------------------------------------------------------------------
Total Enthalpy                    ...   -327.01677052 Eh

-------
ENTROPY
-------

The entropy contributions are T*S = T*(S(el)+S(vib)+S(rot)+S(trans)
     S(el)   - electronic entropy
     S(vib)  - vibrational entropy
     S(rot)  - rotational entropy
     S(trans)- translational entropy
The entropies will be listed as mutliplied by the temperature to get
units of energy

Electronic entropy                ...      0.00000000 Eh      0.00 kcal/mol
Vibrational entropy               ...      0.01194194 Eh      7.49 kcal/mol
Rotational entropy                ...      0.01239881 Eh      7.78 kcal/mol
Translational entropy             ...      0.01890147 Eh     11.86 kcal/mol
-----------------------------------------------------------------------
Final entropy term                ...      0.04324222 Eh     27.13 kcal/mol

CAUTION: The rotational entropy is not quite correctly treated here
         because it includes a symmetry number that is not yet correctly
         implemented in ORCA!
For a nonlinear molecule the correct rotational entropy is:
    S(rot) = R*(ln(qrot/sn)+1.5)
    R    = 8.31441 J/mol/K = 1.987191683e-3 kcal/mol/K
    qrot = 337874.1847125
    sn is the rotational symmetry number. We have assumed 3 here
       if it is different for your molecule then you should correct
       the printed rotational entropy by manually evaluating the equation
       as given above

For convenience we print out the resulting values for sn=1 - 12:
 sn= 1  qrot/sn=  337874.1847 T*S(rot)=     8.43 kcal/mol T*S(tot)=    27.79 kcal/mol
 sn= 2  qrot/sn=  168937.0924 T*S(rot)=     8.02 kcal/mol T*S(tot)=    27.38 kcal/mol
 sn= 3  qrot/sn=  112624.7282 T*S(rot)=     7.78 kcal/mol T*S(tot)=    27.13 kcal/mol
 sn= 4  qrot/sn=   84468.5462 T*S(rot)=     7.61 kcal/mol T*S(tot)=    26.96 kcal/mol
 sn= 5  qrot/sn=   67574.8369 T*S(rot)=     7.48 kcal/mol T*S(tot)=    26.83 kcal/mol
 sn= 6  qrot/sn=   56312.3641 T*S(rot)=     7.37 kcal/mol T*S(tot)=    26.72 kcal/mol
 sn= 7  qrot/sn=   48267.7407 T*S(rot)=     7.28 kcal/mol T*S(tot)=    26.63 kcal/mol
 sn= 8  qrot/sn=   42234.2731 T*S(rot)=     7.20 kcal/mol T*S(tot)=    26.55 kcal/mol
 sn= 9  qrot/sn=   37541.5761 T*S(rot)=     7.13 kcal/mol T*S(tot)=    26.48 kcal/mol
 sn=10  qrot/sn=   33787.4185 T*S(rot)=     7.07 kcal/mol T*S(tot)=    26.42 kcal/mol
 sn=11  qrot/sn=   30715.8350 T*S(rot)=     7.01 kcal/mol T*S(tot)=    26.37 kcal/mol
 sn=12  qrot/sn=   28156.1821 T*S(rot)=     6.96 kcal/mol T*S(tot)=    26.31 kcal/mol

-------------------
GIBBS FREE ENTHALPY
-------------------

The Gibbs free enthalpy is G = H - T*S

Total enthalpy                    ...   -327.01677052 Eh
Total entropy correction          ...     -0.04324222 Eh    -27.13 kcal/mol
-----------------------------------------------------------------------
Final Gibbs free enthalpy         ...   -327.06001274 Eh

For completeness - the Gibbs free enthalpy minus the electronic energy
G-E(el)                           ...      0.14098618 Eh     88.47 kcal/mol

                             ****ORCA TERMINATED NORMALLY****
TOTAL RUN TIME: 0 days 0 hours 56 minutes 43 seconds 397 msec
