                         Program Version 3.0.3 - RELEASE   -
|  1> ! NORI PBE0 def2-TZVP UseSym TightOPT Freq TightSCF Grid3 FinalGrid5 XYZFile
|  2> % pal
|  3>     nprocs 8
|  4> end
|  5> %method
|  6>     SymThresh 5.0e-2
|  7> end
|  8> % geom
|  9>     MaxIter 10
| 10> end
| 11> % maxcore 2000
| 12> % output
| 13>     printlevel mini
| 14>     print[ P_Basis ] 0
| 15>     print[ P_SCFInfo ] 1
| 16>     print[ P_SCFIterInfo ] 1
| 17>     print[ P_OrbEn ] 0
| 18>     print[ P_Cartesian ] 0
| 19> end
| 20> % elprop
| 21>     Dipole false
| 22> end
| 23> *xyz 1 1
| 24>  C        0.9772050179    -0.1177650025    -0.0553421643
| 25>  C        2.4959265313    -0.1770020523    -0.0212094932
| 26>  C        3.1093131268     0.7888553472     0.9764285256
| 27>  O        2.6725557761     0.5183199375     2.3212314825
| 28>  C        4.6341538848     0.7713994282     1.0184283520
| 29>  C        5.2405729713    -0.4871268197     1.6085892121
| 30>  N        4.8980434903    -0.5761189749     3.0695460956
| 31>  H        0.5849381279    -0.7624473123    -0.8421635607
| 32>  H        0.6213424322     0.8962644138    -0.2549511744
| 33>  H        0.5252825752    -0.4639462594     0.8788919311
| 34>  H        2.8923343888     0.0749171195    -1.0099550716
| 35>  H        2.8194370907    -1.2011896683     0.1950398227
| 36>  H        2.7985536137     1.8071276453     0.7153321489
| 37>  H        1.7128932137     0.5649238996     2.3723564780
| 38>  H        4.9937323390     1.6433795199     1.5749368129
| 39>  H        5.0159820141     0.8821040875     0.0013437239
| 40>  H        6.3264522408    -0.4984364501     1.5167746323
| 41>  H        4.8471212591    -1.3907660628     1.1433968213
| 42>  H        5.4117899871     0.1164153768     3.6140603334
| 43>  H        5.0916868676    -1.4966857541     3.4611167113
| 44>  H        3.8786830513    -0.3415924188     3.1335583805
| 45> *
| 46>
| 47>                          ****END OF INPUT****
 Total Charge           Charge          ....    1
 Multiplicity           Mult            ....    1
 Number of Electrons    NEL             ....   58
FINAL SINGLE POINT ENERGY      -328.452605937498
FINAL SINGLE POINT ENERGY      -328.452609099714
FINAL SINGLE POINT ENERGY      -328.452608589427
FINAL SINGLE POINT ENERGY      -328.452611761199

CARTESIAN COORDINATES (ANGSTROEM)
---------------------------------
  C     -2.525705   -1.232644    0.293486
  C     -1.448241   -0.600102   -0.573405
  C     -0.672247    0.491950    0.141475
  O      0.002833   -0.009674    1.309940
  C      0.400730    1.163306   -0.710891
  C      1.601881    0.291229   -1.023088
  N      2.361221    0.008167    0.242747
  H     -3.112443   -1.948499   -0.282846
  H     -3.216961   -0.480703    0.683051
  H     -2.107499   -1.787618    1.138572
  H     -1.910349   -0.150471   -1.457948
  H     -0.764575   -1.375827   -0.935888
  H     -1.375494    1.269767    0.461223
  H     -0.631923   -0.414927    1.908648
  H      0.736843    2.082597   -0.219130
  H     -0.045732    1.471442   -1.658775
  H      2.283597    0.770682   -1.724966
  H      1.311563   -0.676542   -1.432164
  H      2.850025    0.839031    0.576034
  H      3.044342   -0.739551    0.130702
  H      1.633525   -0.244234    0.953583

FINAL SINGLE POINT ENERGY      -328.452612293839
                    ***********************HURRAY********************
 Multiplicity           Mult            ....    1
 Number of Electrons    NEL             ....   58
 Basis Dimension        Dim             ....  301
FINAL SINGLE POINT ENERGY      -328.452612691631

VIBRATIONAL FREQUENCIES
-----------------------

   0:         0.00 cm**-1
   1:         0.00 cm**-1
   2:         0.00 cm**-1
   3:         0.00 cm**-1
   4:         0.00 cm**-1
   5:         0.00 cm**-1
   6:        68.47 cm**-1
   7:        94.38 cm**-1
   8:       182.73 cm**-1
   9:       238.39 cm**-1
  10:       280.40 cm**-1
  11:       297.13 cm**-1
  12:       317.03 cm**-1
  13:       325.28 cm**-1
  14:       378.34 cm**-1
  15:       423.46 cm**-1
  16:       462.71 cm**-1
  17:       605.87 cm**-1
  18:       767.65 cm**-1
  19:       827.75 cm**-1
  20:       851.45 cm**-1
  21:       875.44 cm**-1
  22:       922.99 cm**-1
  23:       958.56 cm**-1
  24:       999.68 cm**-1
  25:      1057.76 cm**-1
  26:      1065.03 cm**-1
  27:      1072.77 cm**-1
  28:      1118.59 cm**-1
  29:      1162.55 cm**-1
  30:      1187.16 cm**-1
  31:      1220.28 cm**-1
  32:      1294.42 cm**-1
  33:      1307.92 cm**-1
  34:      1336.54 cm**-1
  35:      1346.74 cm**-1
  36:      1380.54 cm**-1
  37:      1396.06 cm**-1
  38:      1413.89 cm**-1
  39:      1421.50 cm**-1
  40:      1432.01 cm**-1
  41:      1466.68 cm**-1
  42:      1469.28 cm**-1
  43:      1490.90 cm**-1
  44:      1497.44 cm**-1
  45:      1503.54 cm**-1
  46:      1512.44 cm**-1
  47:      1640.89 cm**-1
  48:      1673.97 cm**-1
  49:      3025.11 cm**-1
  50:      3041.25 cm**-1
  51:      3047.32 cm**-1
  52:      3052.27 cm**-1
  53:      3063.21 cm**-1
  54:      3089.51 cm**-1
  55:      3108.14 cm**-1
  56:      3119.50 cm**-1
  57:      3126.11 cm**-1
  58:      3144.60 cm**-1
  59:      3164.00 cm**-1
  60:      3478.84 cm**-1
  61:      3541.13 cm**-1
  62:      3849.03 cm**-1

IR SPECTRUM
-----------

 Mode    freq (cm**-1)   T**2         TX         TY         TZ
-------------------------------------------------------------------
   6:        68.47   10.071911  ( -1.480386  -2.607456  -1.039972)
   7:        94.38    1.138557  (  0.799365   0.411526  -0.574647)
   8:       182.73    3.183149  ( -1.576718  -0.809559   0.204264)
   9:       238.39    1.084082  (  0.716735  -0.289510  -0.697536)
  10:       280.40   15.379090  ( -1.562806  -2.380961  -2.695877)
  11:       297.13   49.290024  ( -6.339607  -2.790385  -1.145929)
  12:       317.03   14.117433  (  2.635046   2.592590  -0.672638)
  13:       325.28  106.159683  (  2.120686  -7.223997  -7.033934)
  14:       378.34   10.688547  ( -0.830598  -3.078699   0.721295)
  15:       423.46   25.428298  (  4.277099  -1.826341  -1.949154)
  16:       462.71    9.290282  ( -1.643330  -2.485595  -0.641536)
  17:       605.87    6.000509  ( -0.497687  -0.088215  -2.396880)
  18:       767.65    1.876325  (  0.930760   0.985048  -0.199223)
  19:       827.75    9.174245  (  2.020011  -0.916403  -2.062524)
  20:       851.45   12.391981  (  1.372119   1.075513  -3.058193)
  21:       875.44   32.370537  ( -2.952853  -3.205081   3.657684)
  22:       922.99    2.722626  (  0.358068   0.533065   1.519952)
  23:       958.56    1.123314  ( -0.157258   0.078419   1.045196)
  24:       999.68   52.534134  ( -5.925403   1.145991  -4.013781)
  25:      1057.76   15.840361  (  2.844102  -2.309499   1.554883)
  26:      1065.03    5.073803  ( -2.037457  -0.957248   0.079036)
  27:      1072.77   10.657563  ( -2.977975   1.333654  -0.102926)
  28:      1118.59   15.481510  ( -3.515008   1.754535  -0.218712)
  29:      1162.55   19.399644  ( -0.572621  -1.329261   4.159906)
  30:      1187.16    1.957938  ( -0.242559   1.165709   0.735000)
  31:      1220.28   71.642183  ( -2.382139  -0.231751  -8.118737)
  32:      1294.42    0.791611  ( -0.194056   0.591148  -0.636002)
  33:      1307.92   11.671349  ( -2.944425   0.876155  -1.494678)
  34:      1336.54   10.480158  (  2.830478  -0.527948   1.479805)
  35:      1346.74   26.296845  (  3.685870   2.630739  -2.406329)
  36:      1380.54    3.620816  (  1.120932  -0.471814   1.463461)
  37:      1396.06    3.477664  ( -0.403860  -0.150496  -1.814363)
  38:      1413.89    8.550216  (  2.897807   0.387963  -0.049159)
  39:      1421.50    0.639222  (  0.099373   0.096955  -0.787367)
  40:      1432.01    3.524692  ( -1.614263  -0.293583  -0.912500)
  41:      1466.68   12.337059  ( -0.612411  -3.069592   1.593617)
  42:      1469.28    6.999821  (  1.433404  -2.222756  -0.067313)
  43:      1490.90    8.422655  ( -2.221828  -0.249067  -1.850433)
  44:      1497.44   42.167738  ( -3.092038  -1.078717  -5.607442)
  45:      1503.54   18.992762  (  3.289345   2.113985   1.924588)
  46:      1512.44  197.864506  (-12.485024   3.592265  -5.392988)
  47:      1640.89   15.324486  (  1.084040   3.664263   0.850011)
  48:      1673.97   33.515319  ( -4.370294   3.232677   1.991393)
  49:      3025.11  512.403942  (-20.123706  -2.677519  10.013555)
  50:      3041.25   29.797677  ( -4.054516  -0.560563   3.611695)
  51:      3047.32   15.713879  ( -0.899530  -1.779214   3.426241)
  52:      3052.27   44.000739  ( -5.310045   0.864790   3.880245)
  53:      3063.21   11.437255  (  1.650287   2.919440   0.436670)
  54:      3089.51    4.944109  (  1.203213  -1.843228   0.314479)
  55:      3108.14    1.495080  ( -0.711780  -0.770988  -0.627715)
  56:      3119.50   25.406538  ( -3.207022   3.456988  -1.780668)
  57:      3126.11    2.556524  ( -1.257771  -0.499731  -0.851356)
  58:      3144.60    6.306189  ( -0.204198  -1.866178  -1.667894)
  59:      3164.00    0.922097  (  0.181660  -0.876517  -0.347583)
  60:      3478.84   91.675030  (  9.468596   1.121928   0.872924)
  61:      3541.13   82.633749  (  2.085033  -8.521194  -2.382359)
  62:      3849.03   81.304530  ( -5.086840  -3.912717   6.333975)

--------------------------
THERMOCHEMISTRY AT 298.15K
--------------------------

Temperature         ... 298.15 K
Pressure            ... 1.00 atm
Total Mass          ... 104.17 AMU

Throughout the following assumptions are being made:
  (1) The electronic state is orbitally nondegenerate
  (2) There are no thermally accessible electronically excited states
  (3) Hindered rotations indicated by low frequency modes) are not
      treated as such but are treated as vibrations and this may
      case some error
  (4) All equations used are the standard statistical mechanics
      equations for an ideal gas
  (5) All vibrations are strinctly harmonic

------------
INNER ENERGY
------------

The inner energy is: U= E(el) + E(ZPE) + E(vib) + E(rot) + E(trans)
    E(el)   - is the total energy from the electronic structure calculation
              = E(kin-el) + E(nuc-el) + E(el-el) + E(nuc-nuc)
    E(ZPE)  - the the zero temperature vibrational energy from the frequency calculation
    E(vib)  - the the finite temperature correction to E(ZPE) due to population
              of excietd vibrational states
    E(rot)  - is the rotational thermal energy
    E(trans)- is the translational thermal energy

Summary of contributions to the inner energy U:
Electronic energy                ...   -328.45261269 Eh
Zero point energy                ...      0.19864854 Eh     124.65 kcal/mol
Thermal vibrational correction   ...      0.00600703 Eh       3.77 kcal/mol
Thermal rotational correction    ...      0.00141627 Eh       0.89 kcal/mol
Thermal translational correction ...      0.00141627 Eh       0.89 kcal/mol
-----------------------------------------------------------------------
Total thermal energy                   -328.24512458 Eh

Summary of corrections to the electronic energy:
(perhaps to be used in another calculation)
Total thermal correction                  0.00883957 Eh       5.55 kcal/mol
Non-thermal (ZPE) correction              0.19864854 Eh     124.65 kcal/mol
-----------------------------------------------------------------------
Total correction                          0.20748811 Eh     130.20 kcal/mol

--------
ENTHALPY
--------

The enthalpy is H = U + kB*T
                kB is Boltzmann's constant
Total free energy                 ...   -328.24512458 Eh
Thermal Enthalpy correction       ...      0.00094421 Eh       0.59 kcal/mol
-----------------------------------------------------------------------
Total Enthalpy                    ...   -328.24418037 Eh

-------
ENTROPY
-------

The entropy contributions are T*S = T*(S(el)+S(vib)+S(rot)+S(trans)
     S(el)   - electronic entropy
     S(vib)  - vibrational entropy
     S(rot)  - rotational entropy
     S(trans)- translational entropy
The entropies will be listed as mutliplied by the temperature to get
units of energy

Electronic entropy                ...      0.00000000 Eh      0.00 kcal/mol
Vibrational entropy               ...      0.01060938 Eh      6.66 kcal/mol
Rotational entropy                ...      0.01223552 Eh      7.68 kcal/mol
Translational entropy             ...      0.01892914 Eh     11.88 kcal/mol
-----------------------------------------------------------------------
Final entropy term                ...      0.04177404 Eh     26.21 kcal/mol

CAUTION: The rotational entropy is not quite correctly treated here
         because it includes a symmetry number that is not yet correctly
         implemented in ORCA!
For a nonlinear molecule the correct rotational entropy is:
    S(rot) = R*(ln(qrot/sn)+1.5)
    R    = 8.31441 J/mol/K = 1.987191683e-3 kcal/mol/K
    qrot = 284213.2157743
    sn is the rotational symmetry number. We have assumed 3 here
       if it is different for your molecule then you should correct
       the printed rotational entropy by manually evaluating the equation
       as given above

For convenience we print out the resulting values for sn=1 - 12:
 sn= 1  qrot/sn=  284213.2158 T*S(rot)=     8.33 kcal/mol T*S(tot)=    26.86 kcal/mol
 sn= 2  qrot/sn=  142106.6079 T*S(rot)=     7.92 kcal/mol T*S(tot)=    26.45 kcal/mol
 sn= 3  qrot/sn=   94737.7386 T*S(rot)=     7.68 kcal/mol T*S(tot)=    26.21 kcal/mol
 sn= 4  qrot/sn=   71053.3039 T*S(rot)=     7.51 kcal/mol T*S(tot)=    26.04 kcal/mol
 sn= 5  qrot/sn=   56842.6432 T*S(rot)=     7.38 kcal/mol T*S(tot)=    25.91 kcal/mol
 sn= 6  qrot/sn=   47368.8693 T*S(rot)=     7.27 kcal/mol T*S(tot)=    25.80 kcal/mol
 sn= 7  qrot/sn=   40601.8880 T*S(rot)=     7.18 kcal/mol T*S(tot)=    25.71 kcal/mol
 sn= 8  qrot/sn=   35526.6520 T*S(rot)=     7.10 kcal/mol T*S(tot)=    25.63 kcal/mol
 sn= 9  qrot/sn=   31579.2462 T*S(rot)=     7.03 kcal/mol T*S(tot)=    25.56 kcal/mol
 sn=10  qrot/sn=   28421.3216 T*S(rot)=     6.96 kcal/mol T*S(tot)=    25.50 kcal/mol
 sn=11  qrot/sn=   25837.5651 T*S(rot)=     6.91 kcal/mol T*S(tot)=    25.44 kcal/mol
 sn=12  qrot/sn=   23684.4346 T*S(rot)=     6.86 kcal/mol T*S(tot)=    25.39 kcal/mol

-------------------
GIBBS FREE ENTHALPY
-------------------

The Gibbs free enthalpy is G = H - T*S

Total enthalpy                    ...   -328.24418037 Eh
Total entropy correction          ...     -0.04177404 Eh    -26.21 kcal/mol
-----------------------------------------------------------------------
Final Gibbs free enthalpy         ...   -328.28595441 Eh

For completeness - the Gibbs free enthalpy minus the electronic energy
G-E(el)                           ...      0.16665828 Eh    104.58 kcal/mol

                             ****ORCA TERMINATED NORMALLY****
TOTAL RUN TIME: 0 days 1 hours 3 minutes 49 seconds 180 msec
