                         Program Version 3.0.3 - RELEASE   -
|  1> ! NORI PBE0 def2-TZVP UseSym TightOPT Freq TightSCF Grid3 FinalGrid5 XYZFile
|  2> % pal
|  3>     nprocs 8
|  4> end
|  5> %method
|  6>     SymThresh 5.0e-2
|  7> end
|  8> % geom
|  9>     MaxIter 10
| 10> end
| 11> % maxcore 2000
| 12> % output
| 13>     printlevel mini
| 14>     print[ P_Basis ] 0
| 15>     print[ P_SCFInfo ] 1
| 16>     print[ P_SCFIterInfo ] 1
| 17>     print[ P_OrbEn ] 0
| 18>     print[ P_Cartesian ] 0
| 19> end
| 20> % elprop
| 21>     Dipole false
| 22> end
| 23> *xyz 1 1
| 24>  C        0.7367011111     0.5077429284     0.5269915803
| 25>  C        2.1537620642     0.9210874571     0.1582192780
| 26>  C        3.0158915510    -0.2481685261    -0.2984331381
| 27>  O        2.4858207471    -0.9128980270    -1.4106447269
| 28>  C        4.4577191050     0.1457579884    -0.6628442980
| 29>  C        5.3056104136    -1.0210163570    -1.1097851864
| 30>  N        5.1220948075     0.7780814259     0.5444540917
| 31>  H        0.1591874206     1.3735286881     0.8518303211
| 32>  H        0.7395557157    -0.2213695274     1.3402859671
| 33>  H        0.2127579449     0.0574101903    -0.3171587505
| 34>  H        2.1360172944     1.6807669658    -0.6354797171
| 35>  H        2.6001390891     1.4030989212     1.0386123475
| 36>  H        3.0667483387    -0.9949703425     0.5099632573
| 37>  H        1.9140064903    -0.3215211825    -1.9097710889
| 38>  H        4.4384823614     0.9322625184    -1.4231560241
| 39>  H        5.3878832125    -1.7797986682    -0.3251855090
| 40>  H        6.3082072327    -0.7073987743    -1.4095018933
| 41>  H        4.8274843774    -1.4894701243    -1.9683218235
| 42>  H        5.1395236183     0.1178830311     1.3260855725
| 43>  H        4.6271348967     1.6166644656     0.8524627935
| 44>  H        6.0892122079     1.0316169491     0.3352469468
| 45> *
| 46>
| 47>                          ****END OF INPUT****
 Total Charge           Charge          ....    1
 Multiplicity           Mult            ....    1
 Number of Electrons    NEL             ....   58
FINAL SINGLE POINT ENERGY      -328.435597505907
FINAL SINGLE POINT ENERGY      -328.435598959175
FINAL SINGLE POINT ENERGY      -328.435600033902

CARTESIAN COORDINATES (ANGSTROEM)
---------------------------------
  C     -2.726895    0.172751    0.500159
  C     -1.499233   -0.380415   -0.208153
  C     -0.196738    0.218092    0.304776
  O      0.000721   -0.001870    1.673235
  C      1.057832   -0.307665   -0.415368
  C      2.343231    0.292687    0.100454
  N      0.950296    0.003616   -1.895335
  H     -3.634588   -0.281214    0.101834
  H     -2.803897    1.253857    0.367263
  H     -2.699871   -0.025792    1.572356
  H     -1.453995   -1.472339   -0.098304
  H     -1.614473   -0.180863   -1.282255
  H     -0.226290    1.311062    0.170859
  H     -0.483006   -0.783890    1.956772
  H      1.080380   -1.399535   -0.353667
  H      2.352782    1.379851   -0.022784
  H      3.220696   -0.131076   -0.394349
  H      2.421862    0.084245    1.166107
  H      0.875834    1.013527   -2.041109
  H      0.130196   -0.436446   -2.315915
  H      1.781414   -0.317652   -2.395084

FINAL SINGLE POINT ENERGY      -328.435600686486
                    ***********************HURRAY********************
 Multiplicity           Mult            ....    1
 Number of Electrons    NEL             ....   58
 Basis Dimension        Dim             ....  301
FINAL SINGLE POINT ENERGY      -328.435601442611

VIBRATIONAL FREQUENCIES
-----------------------

   0:         0.00 cm**-1
   1:         0.00 cm**-1
   2:         0.00 cm**-1
   3:         0.00 cm**-1
   4:         0.00 cm**-1
   5:         0.00 cm**-1
   6:        61.93 cm**-1
   7:        88.52 cm**-1
   8:       117.26 cm**-1
   9:       183.32 cm**-1
  10:       194.55 cm**-1
  11:       208.02 cm**-1
  12:       235.86 cm**-1
  13:       282.63 cm**-1
  14:       332.30 cm**-1
  15:       381.37 cm**-1
  16:       430.09 cm**-1
  17:       465.84 cm**-1
  18:       520.14 cm**-1
  19:       782.92 cm**-1
  20:       830.00 cm**-1
  21:       867.33 cm**-1
  22:       931.17 cm**-1
  23:       954.18 cm**-1
  24:       965.58 cm**-1
  25:      1016.99 cm**-1
  26:      1051.75 cm**-1
  27:      1085.26 cm**-1
  28:      1099.86 cm**-1
  29:      1163.47 cm**-1
  30:      1189.64 cm**-1
  31:      1213.06 cm**-1
  32:      1262.12 cm**-1
  33:      1304.92 cm**-1
  34:      1340.99 cm**-1
  35:      1365.67 cm**-1
  36:      1380.89 cm**-1
  37:      1400.09 cm**-1
  38:      1414.91 cm**-1
  39:      1415.23 cm**-1
  40:      1424.30 cm**-1
  41:      1467.74 cm**-1
  42:      1476.39 cm**-1
  43:      1488.58 cm**-1
  44:      1491.14 cm**-1
  45:      1492.40 cm**-1
  46:      1494.93 cm**-1
  47:      1649.28 cm**-1
  48:      1656.49 cm**-1
  49:      2992.39 cm**-1
  50:      3008.89 cm**-1
  51:      3049.70 cm**-1
  52:      3052.67 cm**-1
  53:      3067.48 cm**-1
  54:      3089.73 cm**-1
  55:      3128.20 cm**-1
  56:      3142.58 cm**-1
  57:      3152.90 cm**-1
  58:      3173.26 cm**-1
  59:      3418.22 cm**-1
  60:      3500.10 cm**-1
  61:      3513.01 cm**-1
  62:      3844.34 cm**-1

IR SPECTRUM
-----------

 Mode    freq (cm**-1)   T**2         TX         TY         TZ
-------------------------------------------------------------------
   6:        61.93    5.135309  (  1.006625  -1.870269  -0.790006)
   7:        88.52   15.569903  ( -3.512258   1.720297   0.523950)
   8:       117.26   88.101522  ( -8.364837   4.078090   1.224826)
   9:       183.32    3.473276  ( -1.751430   0.039073   0.635801)
  10:       194.55    6.391232  (  2.389627  -0.669669  -0.482140)
  11:       208.02    1.066091  (  0.251287  -0.755957   0.656868)
  12:       235.86    0.593416  (  0.580095   0.488119  -0.136548)
  13:       282.63   10.063756  (  2.565365  -1.231778  -1.401922)
  14:       332.30    8.931301  ( -2.694511  -0.766105   1.041150)
  15:       381.37    5.693604  ( -0.759650  -0.389870  -2.228124)
  16:       430.09    7.263232  (  1.729007   0.417280  -2.024758)
  17:       465.84    6.728375  (  0.186482   0.110701  -2.584830)
  18:       520.14    0.913694  (  0.417927   0.733934   0.447630)
  19:       782.92    1.126892  ( -0.407257   0.094099   0.975797)
  20:       830.00    5.789613  (  0.609203  -2.148164  -0.896592)
  21:       867.33    9.684285  (  1.872779  -1.515003   1.970216)
  22:       931.17    5.638369  ( -1.041005  -1.170726  -1.784398)
  23:       954.18   29.781800  ( -5.083146  -0.383017   1.948517)
  24:       965.58    4.688656  (  1.878711  -0.582752  -0.905263)
  25:      1016.99   24.099094  (  0.580638   0.137799   4.872675)
  26:      1051.75    2.809702  ( -1.667783   0.102796   0.132791)
  27:      1085.26   35.347120  (  0.770618  -1.780130   5.620000)
  28:      1099.86   38.341072  (  0.897991   0.486905  -6.107177)
  29:      1163.47   32.186553  (  1.600614   0.525944   5.417377)
  30:      1189.64    7.054373  ( -0.289427   0.975056  -2.453543)
  31:      1213.06   17.579705  (  3.345834   0.940938  -2.345151)
  32:      1262.12    7.985672  ( -1.852451  -0.094317  -2.131948)
  33:      1304.92   13.328699  ( -3.251973   0.593310  -1.549630)
  34:      1340.99    2.677279  (  1.308767  -0.933405  -0.305224)
  35:      1365.67    3.346876  (  0.158183  -0.787676   1.643600)
  36:      1380.89   15.914269  ( -0.122432   1.120386   3.826750)
  37:      1400.09   14.240559  (  1.444391  -0.530934   3.445635)
  38:      1414.91    2.746243  ( -1.257339  -0.382843   1.009343)
  39:      1415.23   38.322657  (  3.629607   1.103248   4.891978)
  40:      1424.30    3.188826  (  0.836688  -1.381289   0.762116)
  41:      1467.74    4.505152  (  1.125739  -0.710760  -1.653083)
  42:      1476.39    2.598292  ( -0.689266   1.455942   0.058635)
  43:      1488.58   86.856098  ( -0.106338  -2.398724   9.005049)
  44:      1491.14   67.546328  ( -0.982203  -3.964594   7.131872)
  45:      1492.40   35.941778  (  1.686099  -1.942342  -5.415363)
  46:      1494.93   15.537626  ( -2.055216  -0.503320  -3.325715)
  47:      1649.28   60.910396  ( -2.228874   6.875677   2.944076)
  48:      1656.49   38.723599  (  6.017180   1.385724  -0.772602)
  49:      2992.39   15.124707  ( -0.722974  -3.212684   2.068980)
  50:      3008.89   36.634325  (  2.199163  -2.234530  -5.177343)
  51:      3049.70   24.858802  ( -0.161685  -3.057533   3.934991)
  52:      3052.67    8.462680  ( -1.264557  -1.218143   2.319418)
  53:      3067.48    7.438943  ( -1.983505   1.659999   0.865478)
  54:      3089.73    5.496230  (  1.225995   1.912329  -0.579797)
  55:      3128.20    7.858662  ( -1.484198   2.267142   0.718251)
  56:      3142.58   12.453771  ( -0.449303  -2.909292   1.946257)
  57:      3152.90    6.507635  (  1.476816   0.636146   1.980396)
  58:      3173.26    1.761510  (  0.490680   0.160067   1.222751)
  59:      3418.22   28.171909  (  0.328020  -1.526570   5.072859)
  60:      3500.10   71.955852  ( -0.451708   8.160905   2.269680)
  61:      3513.01   98.648455  (  9.755661   0.619170  -1.758452)
  62:      3844.34   60.078434  ( -3.256384  -4.973885   4.973416)

--------------------------
THERMOCHEMISTRY AT 298.15K
--------------------------

Temperature         ... 298.15 K
Pressure            ... 1.00 atm
Total Mass          ... 104.17 AMU

Throughout the following assumptions are being made:
  (1) The electronic state is orbitally nondegenerate
  (2) There are no thermally accessible electronically excited states
  (3) Hindered rotations indicated by low frequency modes) are not
      treated as such but are treated as vibrations and this may
      case some error
  (4) All equations used are the standard statistical mechanics
      equations for an ideal gas
  (5) All vibrations are strinctly harmonic

------------
INNER ENERGY
------------

The inner energy is: U= E(el) + E(ZPE) + E(vib) + E(rot) + E(trans)
    E(el)   - is the total energy from the electronic structure calculation
              = E(kin-el) + E(nuc-el) + E(el-el) + E(nuc-nuc)
    E(ZPE)  - the the zero temperature vibrational energy from the frequency calculation
    E(vib)  - the the finite temperature correction to E(ZPE) due to population
              of excietd vibrational states
    E(rot)  - is the rotational thermal energy
    E(trans)- is the translational thermal energy

Summary of contributions to the inner energy U:
Electronic energy                ...   -328.43560144 Eh
Zero point energy                ...      0.19663452 Eh     123.39 kcal/mol
Thermal vibrational correction   ...      0.00700627 Eh       4.40 kcal/mol
Thermal rotational correction    ...      0.00141627 Eh       0.89 kcal/mol
Thermal translational correction ...      0.00141627 Eh       0.89 kcal/mol
-----------------------------------------------------------------------
Total thermal energy                   -328.22912810 Eh

Summary of corrections to the electronic energy:
(perhaps to be used in another calculation)
Total thermal correction                  0.00983882 Eh       6.17 kcal/mol
Non-thermal (ZPE) correction              0.19663452 Eh     123.39 kcal/mol
-----------------------------------------------------------------------
Total correction                          0.20647334 Eh     129.56 kcal/mol

--------
ENTHALPY
--------

The enthalpy is H = U + kB*T
                kB is Boltzmann's constant
Total free energy                 ...   -328.22912810 Eh
Thermal Enthalpy correction       ...      0.00094421 Eh       0.59 kcal/mol
-----------------------------------------------------------------------
Total Enthalpy                    ...   -328.22818389 Eh

-------
ENTROPY
-------

The entropy contributions are T*S = T*(S(el)+S(vib)+S(rot)+S(trans)
     S(el)   - electronic entropy
     S(vib)  - vibrational entropy
     S(rot)  - rotational entropy
     S(trans)- translational entropy
The entropies will be listed as mutliplied by the temperature to get
units of energy

Electronic entropy                ...      0.00000000 Eh      0.00 kcal/mol
Vibrational entropy               ...      0.01293848 Eh      8.12 kcal/mol
Rotational entropy                ...      0.01228108 Eh      7.71 kcal/mol
Translational entropy             ...      0.01892914 Eh     11.88 kcal/mol
-----------------------------------------------------------------------
Final entropy term                ...      0.04414870 Eh     27.70 kcal/mol

CAUTION: The rotational entropy is not quite correctly treated here
         because it includes a symmetry number that is not yet correctly
         implemented in ORCA!
For a nonlinear molecule the correct rotational entropy is:
    S(rot) = R*(ln(qrot/sn)+1.5)
    R    = 8.31441 J/mol/K = 1.987191683e-3 kcal/mol/K
    qrot = 298264.8627491
    sn is the rotational symmetry number. We have assumed 3 here
       if it is different for your molecule then you should correct
       the printed rotational entropy by manually evaluating the equation
       as given above

For convenience we print out the resulting values for sn=1 - 12:
 sn= 1  qrot/sn=  298264.8627 T*S(rot)=     8.36 kcal/mol T*S(tot)=    28.35 kcal/mol
 sn= 2  qrot/sn=  149132.4314 T*S(rot)=     7.95 kcal/mol T*S(tot)=    27.94 kcal/mol
 sn= 3  qrot/sn=   99421.6209 T*S(rot)=     7.71 kcal/mol T*S(tot)=    27.70 kcal/mol
 sn= 4  qrot/sn=   74566.2157 T*S(rot)=     7.54 kcal/mol T*S(tot)=    27.53 kcal/mol
 sn= 5  qrot/sn=   59652.9725 T*S(rot)=     7.40 kcal/mol T*S(tot)=    27.40 kcal/mol
 sn= 6  qrot/sn=   49710.8105 T*S(rot)=     7.30 kcal/mol T*S(tot)=    27.29 kcal/mol
 sn= 7  qrot/sn=   42609.2661 T*S(rot)=     7.20 kcal/mol T*S(tot)=    27.20 kcal/mol
 sn= 8  qrot/sn=   37283.1078 T*S(rot)=     7.13 kcal/mol T*S(tot)=    27.12 kcal/mol
 sn= 9  qrot/sn=   33140.5403 T*S(rot)=     7.06 kcal/mol T*S(tot)=    27.05 kcal/mol
 sn=10  qrot/sn=   29826.4863 T*S(rot)=     6.99 kcal/mol T*S(tot)=    26.99 kcal/mol
 sn=11  qrot/sn=   27114.9875 T*S(rot)=     6.94 kcal/mol T*S(tot)=    26.93 kcal/mol
 sn=12  qrot/sn=   24855.4052 T*S(rot)=     6.89 kcal/mol T*S(tot)=    26.88 kcal/mol

-------------------
GIBBS FREE ENTHALPY
-------------------

The Gibbs free enthalpy is G = H - T*S

Total enthalpy                    ...   -328.22818389 Eh
Total entropy correction          ...     -0.04414870 Eh    -27.70 kcal/mol
-----------------------------------------------------------------------
Final Gibbs free enthalpy         ...   -328.27233260 Eh

For completeness - the Gibbs free enthalpy minus the electronic energy
G-E(el)                           ...      0.16326885 Eh    102.45 kcal/mol

                             ****ORCA TERMINATED NORMALLY****
TOTAL RUN TIME: 0 days 1 hours 1 minutes 35 seconds 367 msec
