                         Program Version 3.0.3 - RELEASE   -
|  1> ! NORI PBE0 def2-TZVP UseSym TightOPT Freq TightSCF Grid3 FinalGrid5 XYZFile
|  2> % pal
|  3>     nprocs 8
|  4> end
|  5> %method
|  6>     SymThresh 5.0e-2
|  7> end
|  8> % geom
|  9>     MaxIter 10
| 10> end
| 11> % maxcore 2000
| 12> % output
| 13>     printlevel mini
| 14>     print[ P_Basis ] 0
| 15>     print[ P_SCFInfo ] 1
| 16>     print[ P_SCFIterInfo ] 1
| 17>     print[ P_OrbEn ] 0
| 18>     print[ P_Cartesian ] 0
| 19> end
| 20> % elprop
| 21>     Dipole false
| 22> end
| 23> *xyz 1 1
| 24>  C        0.8553318858     0.4031931223    -0.0906157919
| 25>  C        2.3428276994     0.2635588024     0.1613964107
| 26>  C        3.1192571222    -0.2067970939    -1.0158259057
| 27>  O        2.6625355665    -0.4383344230    -2.1101487713
| 28>  C        4.6295508063    -0.4276540994    -0.8396245854
| 29>  N        5.1504071314    -0.8156084403    -2.1754694224
| 30>  C        6.0362590784     0.1795717694    -2.8333317105
| 31>  H        0.3569531096     0.7488530027     0.8147964120
| 32>  H        0.4138098591    -0.5505277834    -0.3810354522
| 33>  H        0.6560068716     1.1207869296    -0.8869738135
| 34>  H        2.7912691564     1.2139355856     0.4824320123
| 35>  H        2.5530524827    -0.4298117469     0.9872120355
| 36>  H        5.1295276665     0.4763386746    -0.4907151290
| 37>  H        4.8164189205    -1.2224154620    -0.1155737469
| 38>  H        5.6109791375    -1.7232357226    -2.1401093028
| 39>  H        4.2618429341    -0.9184577325    -2.7250676904
| 40>  H        6.9345110610     0.3134094651    -2.2342176608
| 41>  H        5.4940544090     1.1196648482    -2.9178620100
| 42>  H        6.2971451020    -0.1841796959    -3.8253558779
| 43> *
| 44>
| 45>                          ****END OF INPUT****
 Total Charge           Charge          ....    1
 Multiplicity           Mult            ....    1
 Number of Electrons    NEL             ....   56
FINAL SINGLE POINT ENERGY      -327.232841763217
FINAL SINGLE POINT ENERGY      -327.232842551430

CARTESIAN COORDINATES (ANGSTROEM)
---------------------------------
  C     -2.805264    0.380739    1.059665
  C     -1.900777    0.436457   -0.154937
  C     -0.460249    0.229806    0.148839
  O     -0.000448    0.000581    1.242403
  C      0.541317    0.318539   -1.013452
  N      1.872753   -0.000706   -0.437311
  C      2.474722   -1.284583   -0.880458
  H     -3.840349    0.539460    0.758433
  H     -2.538136    1.149462    1.785296
  H     -2.737717   -0.586776    1.557273
  H     -2.181129   -0.316621   -0.904716
  H     -1.987804    1.394665   -0.685264
  H      0.297255   -0.386884   -1.808193
  H      0.543969    1.323455   -1.437972
  H      2.529914    0.762527   -0.587070
  H      1.650654   -0.047917    0.587733
  H      2.661294   -1.244790   -1.951948
  H      1.780099   -2.089437   -0.647077
  H      3.408518   -1.438557   -0.342338

FINAL SINGLE POINT ENERGY      -327.232842800581
                    ***********************HURRAY********************
 Multiplicity           Mult            ....    1
 Number of Electrons    NEL             ....   56
 Basis Dimension        Dim             ....  289
FINAL SINGLE POINT ENERGY      -327.232842922857

VIBRATIONAL FREQUENCIES
-----------------------

   0:         0.00 cm**-1
   1:         0.00 cm**-1
   2:         0.00 cm**-1
   3:         0.00 cm**-1
   4:         0.00 cm**-1
   5:         0.00 cm**-1
   6:        41.11 cm**-1
   7:        50.22 cm**-1
   8:       118.25 cm**-1
   9:       184.52 cm**-1
  10:       207.28 cm**-1
  11:       240.80 cm**-1
  12:       339.87 cm**-1
  13:       380.79 cm**-1
  14:       436.60 cm**-1
  15:       449.58 cm**-1
  16:       663.27 cm**-1
  17:       726.00 cm**-1
  18:       809.35 cm**-1
  19:       877.06 cm**-1
  20:       916.87 cm**-1
  21:       945.09 cm**-1
  22:      1007.78 cm**-1
  23:      1055.45 cm**-1
  24:      1074.18 cm**-1
  25:      1101.06 cm**-1
  26:      1146.16 cm**-1
  27:      1156.56 cm**-1
  28:      1192.59 cm**-1
  29:      1265.45 cm**-1
  30:      1300.03 cm**-1
  31:      1327.61 cm**-1
  32:      1388.54 cm**-1
  33:      1410.04 cm**-1
  34:      1418.25 cm**-1
  35:      1423.58 cm**-1
  36:      1430.22 cm**-1
  37:      1454.61 cm**-1
  38:      1478.51 cm**-1
  39:      1488.37 cm**-1
  40:      1491.88 cm**-1
  41:      1494.46 cm**-1
  42:      1499.93 cm**-1
  43:      1631.44 cm**-1
  44:      1814.88 cm**-1
  45:      3028.16 cm**-1
  46:      3041.54 cm**-1
  47:      3055.60 cm**-1
  48:      3078.55 cm**-1
  49:      3090.82 cm**-1
  50:      3105.79 cm**-1
  51:      3157.69 cm**-1
  52:      3160.67 cm**-1
  53:      3163.23 cm**-1
  54:      3190.87 cm**-1
  55:      3193.49 cm**-1
  56:      3511.74 cm**-1

IR SPECTRUM
-----------

 Mode    freq (cm**-1)   T**2         TX         TY         TZ
-------------------------------------------------------------------
   6:        41.11    0.145556  (  0.099627   0.317107  -0.187279)
   7:        50.22    0.244124  ( -0.217798  -0.390375  -0.210464)
   8:       118.25    6.114561  ( -0.435205   2.414831   0.306183)
   9:       184.52    3.835665  (  0.887126   0.430680  -1.692095)
  10:       207.28    0.444418  ( -0.149638  -0.641847   0.100297)
  11:       240.80    3.494926  ( -1.651407   0.708113  -0.516097)
  12:       339.87    7.684960  ( -2.289656  -0.191532   1.551049)
  13:       380.79   75.261558  (  7.984139  -0.741185  -3.311454)
  14:       436.60    6.213305  (  2.470292  -0.307944   0.127011)
  15:       449.58    1.434427  ( -0.903563   0.484766   0.618872)
  16:       663.27    3.035947  (  1.533843  -0.079193  -0.822802)
  17:       726.00    2.296343  (  0.159060  -1.289107  -0.780542)
  18:       809.35   22.539049  ( -3.524462  -0.722001   3.097730)
  19:       877.06   12.535388  ( -2.356342  -2.408848   1.086505)
  20:       916.87   11.000516  (  1.794467  -1.786893  -2.141826)
  21:       945.09    9.105262  (  2.714692  -1.103133   0.720282)
  22:      1007.78    9.531271  (  2.930839  -0.893250  -0.378888)
  23:      1055.45   15.739920  ( -3.160540   1.481060   1.886098)
  24:      1074.18    6.677993  ( -0.330912   1.474657  -2.096158)
  25:      1101.06    1.049468  ( -0.550017  -0.804804  -0.315024)
  26:      1146.16   35.712880  ( -5.657890   0.551201   1.843186)
  27:      1156.56    1.602504  ( -0.658760   0.372925  -1.014626)
  28:      1192.59   48.362459  ( -6.020701   0.784203   3.390965)
  29:      1265.45    2.771685  (  1.521879   0.546713  -0.395823)
  30:      1300.03    9.571066  (  2.890560  -0.802838  -0.755763)
  31:      1327.61   36.490482  ( -5.386454  -0.201570   2.726897)
  32:      1388.54   52.009786  (  7.045598  -0.473149  -1.464739)
  33:      1410.04   35.552514  (  3.617976  -0.926211   4.648107)
  34:      1418.25   19.095146  (  3.089060  -1.322106   2.793723)
  35:      1423.58   12.537624  ( -3.391566   0.828056  -0.590956)
  36:      1430.22   98.730842  ( -9.113075   3.652311  -1.530794)
  37:      1454.61   11.406150  (  0.651226  -1.719335   2.833009)
  38:      1478.51   20.064256  ( -1.841810   1.500516   3.797426)
  39:      1488.37   13.262917  ( -0.425772  -3.578730  -0.523762)
  40:      1491.88   20.478431  ( -4.049730   0.834977  -1.838730)
  41:      1494.46   17.832877  ( -2.680976   2.096645  -2.499864)
  42:      1499.93   30.874197  ( -5.322279  -0.829214   1.363798)
  43:      1631.44   52.624295  (  4.724170   3.721181   4.057009)
  44:      1814.88   93.448073  (  4.151342  -1.954537   8.508479)
  45:      3028.16   12.213639  ( -3.164366   0.120731   1.478463)
  46:      3041.54  314.669545  ( 12.462328  -2.517573 -12.370196)
  47:      3055.60    0.276544  ( -0.255257  -0.442910   0.123365)
  48:      3078.55    5.469059  ( -1.637402   0.040809   1.669223)
  49:      3090.82    1.592879  ( -1.033543  -0.065358   0.721385)
  50:      3105.79   15.974515  (  2.791044  -0.129240  -2.857952)
  51:      3157.69    5.987508  ( -0.418998  -2.368637  -0.448896)
  52:      3160.67    1.564262  (  0.039520  -1.157775  -0.471441)
  53:      3163.23    3.082907  ( -1.285102   0.497605  -1.088030)
  54:      3190.87    0.515323  ( -0.201991   0.328651   0.605402)
  55:      3193.49    0.507481  ( -0.321450  -0.100864   0.627676)
  56:      3511.74   89.439753  (  7.123667   5.944928  -1.830561)

--------------------------
THERMOCHEMISTRY AT 298.15K
--------------------------

Temperature         ... 298.15 K
Pressure            ... 1.00 atm
Total Mass          ... 102.16 AMU

Throughout the following assumptions are being made:
  (1) The electronic state is orbitally nondegenerate
  (2) There are no thermally accessible electronically excited states
  (3) Hindered rotations indicated by low frequency modes) are not
      treated as such but are treated as vibrations and this may
      case some error
  (4) All equations used are the standard statistical mechanics
      equations for an ideal gas
  (5) All vibrations are strinctly harmonic

------------
INNER ENERGY
------------

The inner energy is: U= E(el) + E(ZPE) + E(vib) + E(rot) + E(trans)
    E(el)   - is the total energy from the electronic structure calculation
              = E(kin-el) + E(nuc-el) + E(el-el) + E(nuc-nuc)
    E(ZPE)  - the the zero temperature vibrational energy from the frequency calculation
    E(vib)  - the the finite temperature correction to E(ZPE) due to population
              of excietd vibrational states
    E(rot)  - is the rotational thermal energy
    E(trans)- is the translational thermal energy

Summary of contributions to the inner energy U:
Electronic energy                ...   -327.23284292 Eh
Zero point energy                ...      0.17363371 Eh     108.96 kcal/mol
Thermal vibrational correction   ...      0.00600611 Eh       3.77 kcal/mol
Thermal rotational correction    ...      0.00141627 Eh       0.89 kcal/mol
Thermal translational correction ...      0.00141627 Eh       0.89 kcal/mol
-----------------------------------------------------------------------
Total thermal energy                   -327.05037056 Eh

Summary of corrections to the electronic energy:
(perhaps to be used in another calculation)
Total thermal correction                  0.00883865 Eh       5.55 kcal/mol
Non-thermal (ZPE) correction              0.17363371 Eh     108.96 kcal/mol
-----------------------------------------------------------------------
Total correction                          0.18247236 Eh     114.50 kcal/mol

--------
ENTHALPY
--------

The enthalpy is H = U + kB*T
                kB is Boltzmann's constant
Total free energy                 ...   -327.05037056 Eh
Thermal Enthalpy correction       ...      0.00094421 Eh       0.59 kcal/mol
-----------------------------------------------------------------------
Total Enthalpy                    ...   -327.04942635 Eh

-------
ENTROPY
-------

The entropy contributions are T*S = T*(S(el)+S(vib)+S(rot)+S(trans)
     S(el)   - electronic entropy
     S(vib)  - vibrational entropy
     S(rot)  - rotational entropy
     S(trans)- translational entropy
The entropies will be listed as mutliplied by the temperature to get
units of energy

Electronic entropy                ...      0.00000000 Eh      0.00 kcal/mol
Vibrational entropy               ...      0.01192388 Eh      7.48 kcal/mol
Rotational entropy                ...      0.01220037 Eh      7.66 kcal/mol
Translational entropy             ...      0.01890147 Eh     11.86 kcal/mol
-----------------------------------------------------------------------
Final entropy term                ...      0.04302571 Eh     27.00 kcal/mol

CAUTION: The rotational entropy is not quite correctly treated here
         because it includes a symmetry number that is not yet correctly
         implemented in ORCA!
For a nonlinear molecule the correct rotational entropy is:
    S(rot) = R*(ln(qrot/sn)+1.5)
    R    = 8.31441 J/mol/K = 1.987191683e-3 kcal/mol/K
    qrot = 273827.0500729
    sn is the rotational symmetry number. We have assumed 3 here
       if it is different for your molecule then you should correct
       the printed rotational entropy by manually evaluating the equation
       as given above

For convenience we print out the resulting values for sn=1 - 12:
 sn= 1  qrot/sn=  273827.0501 T*S(rot)=     8.31 kcal/mol T*S(tot)=    27.65 kcal/mol
 sn= 2  qrot/sn=  136913.5250 T*S(rot)=     7.90 kcal/mol T*S(tot)=    27.24 kcal/mol
 sn= 3  qrot/sn=   91275.6834 T*S(rot)=     7.66 kcal/mol T*S(tot)=    27.00 kcal/mol
 sn= 4  qrot/sn=   68456.7625 T*S(rot)=     7.49 kcal/mol T*S(tot)=    26.83 kcal/mol
 sn= 5  qrot/sn=   54765.4100 T*S(rot)=     7.35 kcal/mol T*S(tot)=    26.70 kcal/mol
 sn= 6  qrot/sn=   45637.8417 T*S(rot)=     7.25 kcal/mol T*S(tot)=    26.59 kcal/mol
 sn= 7  qrot/sn=   39118.1500 T*S(rot)=     7.15 kcal/mol T*S(tot)=    26.50 kcal/mol
 sn= 8  qrot/sn=   34228.3813 T*S(rot)=     7.07 kcal/mol T*S(tot)=    26.42 kcal/mol
 sn= 9  qrot/sn=   30425.2278 T*S(rot)=     7.00 kcal/mol T*S(tot)=    26.35 kcal/mol
 sn=10  qrot/sn=   27382.7050 T*S(rot)=     6.94 kcal/mol T*S(tot)=    26.29 kcal/mol
 sn=11  qrot/sn=   24893.3682 T*S(rot)=     6.89 kcal/mol T*S(tot)=    26.23 kcal/mol
 sn=12  qrot/sn=   22818.9208 T*S(rot)=     6.83 kcal/mol T*S(tot)=    26.18 kcal/mol

-------------------
GIBBS FREE ENTHALPY
-------------------

The Gibbs free enthalpy is G = H - T*S

Total enthalpy                    ...   -327.04942635 Eh
Total entropy correction          ...     -0.04302571 Eh    -27.00 kcal/mol
-----------------------------------------------------------------------
Final Gibbs free enthalpy         ...   -327.09245207 Eh

For completeness - the Gibbs free enthalpy minus the electronic energy
G-E(el)                           ...      0.14039086 Eh     88.10 kcal/mol

                             ****ORCA TERMINATED NORMALLY****
TOTAL RUN TIME: 0 days 0 hours 51 minutes 17 seconds 166 msec
