                         Program Version 3.0.3 - RELEASE   -
|  1> ! NORI PBE0 def2-TZVP UseSym TightOPT Freq TightSCF Grid3 FinalGrid5 XYZFile
|  2> % pal
|  3>     nprocs 8
|  4> end
|  5> %method
|  6>     SymThresh 5.0e-2
|  7> end
|  8> % geom
|  9>     MaxIter 10
| 10> end
| 11> % maxcore 2000
| 12> % output
| 13>     printlevel mini
| 14>     print[ P_Basis ] 0
| 15>     print[ P_SCFInfo ] 1
| 16>     print[ P_SCFIterInfo ] 1
| 17>     print[ P_OrbEn ] 0
| 18>     print[ P_Cartesian ] 0
| 19> end
| 20> % elprop
| 21>     Dipole false
| 22> end
| 23> *xyz 1 1
| 24>  C        0.8654325381    -0.0834586967    -0.5192783053
| 25>  C        2.3529360786    -0.3780796065    -0.4187619097
| 26>  C        3.1267433009     0.7261894917     0.2856724645
| 27>  O        2.7250338857     0.9165370503     1.6325380546
| 28>  C        4.6203398174     0.4601572624     0.4038528933
| 29>  N        4.8412884473    -0.5469481384     1.4862612678
| 30>  C        6.2359230648    -0.6405053115     1.9827126763
| 31>  H        0.3558370648    -0.8613975570    -1.0882016059
| 32>  H        0.6842875515     0.8672380316    -1.0275061505
| 33>  H        0.3846858554    -0.0482489929     0.4618763777
| 34>  H        2.7724612763    -0.4966126698    -1.4231280550
| 35>  H        2.4966908594    -1.3341264331     0.1016304849
| 36>  H        3.0146982087     1.6588833849    -0.2818747115
| 37>  H        1.7987085557     1.1695285764     1.6769117391
| 38>  H        5.1435096094     1.3637687925     0.7173253305
| 39>  H        5.0594955097     0.0882215738    -0.5211079743
| 40>  H        4.5265641233    -1.4633045612     1.1666162739
| 41>  H        4.1912863007    -0.2685293592     2.2352071204
| 42>  H        6.8901249739    -0.9110171818     1.1560284592
| 43>  H        6.2862818638    -1.3983292425     2.7628658330
| 44>  H        6.5272011146     0.3274535868     2.3852097371
| 45> *
| 46>
| 47>                          ****END OF INPUT****
 Total Charge           Charge          ....    1
 Multiplicity           Mult            ....    1
 Number of Electrons    NEL             ....   58
FINAL SINGLE POINT ENERGY      -328.441714921349
FINAL SINGLE POINT ENERGY      -328.441716886202
FINAL SINGLE POINT ENERGY      -328.441718438529

CARTESIAN COORDINATES (ANGSTROEM)
---------------------------------
  C     -2.623166   -1.204328    0.618932
  C     -1.540120   -0.669148   -0.303483
  C     -0.713387    0.436482    0.335355
  O     -0.004654    0.008270    1.486905
  C      0.384456    0.987293   -0.562875
  N      1.506781    0.000120   -0.604566
  C      2.790777    0.530107   -1.124350
  H     -3.237487   -1.942695    0.103260
  H     -3.285563   -0.403933    0.958029
  H     -2.205683   -1.703407    1.497390
  H     -1.998045   -0.265118   -1.212394
  H     -0.890227   -1.497571   -0.615272
  H     -1.373026    1.277499    0.584165
  H     -0.613220   -0.306751    2.161279
  H      0.799536    1.902836   -0.140800
  H      0.043015    1.177629   -1.579946
  H      1.221474   -0.813695   -1.150194
  H      1.600032   -0.328467    0.367129
  H      2.640614    0.893000   -2.139454
  H      3.533775   -0.265461   -1.117776
  H      3.114952    1.346254   -0.481825

FINAL SINGLE POINT ENERGY      -328.441719011956
                    ***********************HURRAY********************
 Multiplicity           Mult            ....    1
 Number of Electrons    NEL             ....   58
 Basis Dimension        Dim             ....  301
FINAL SINGLE POINT ENERGY      -328.441719538926

VIBRATIONAL FREQUENCIES
-----------------------

   0:         0.00 cm**-1
   1:         0.00 cm**-1
   2:         0.00 cm**-1
   3:         0.00 cm**-1
   4:         0.00 cm**-1
   5:         0.00 cm**-1
   6:        74.23 cm**-1
   7:        90.74 cm**-1
   8:       112.18 cm**-1
   9:       204.11 cm**-1
  10:       234.72 cm**-1
  11:       241.86 cm**-1
  12:       268.99 cm**-1
  13:       284.41 cm**-1
  14:       327.51 cm**-1
  15:       399.18 cm**-1
  16:       471.53 cm**-1
  17:       652.18 cm**-1
  18:       779.14 cm**-1
  19:       808.71 cm**-1
  20:       844.03 cm**-1
  21:       925.13 cm**-1
  22:       939.67 cm**-1
  23:      1002.26 cm**-1
  24:      1018.62 cm**-1
  25:      1057.25 cm**-1
  26:      1084.26 cm**-1
  27:      1086.36 cm**-1
  28:      1130.29 cm**-1
  29:      1166.45 cm**-1
  30:      1197.47 cm**-1
  31:      1246.26 cm**-1
  32:      1296.29 cm**-1
  33:      1312.17 cm**-1
  34:      1334.73 cm**-1
  35:      1362.30 cm**-1
  36:      1386.61 cm**-1
  37:      1403.86 cm**-1
  38:      1418.80 cm**-1
  39:      1422.72 cm**-1
  40:      1432.89 cm**-1
  41:      1461.08 cm**-1
  42:      1466.68 cm**-1
  43:      1487.56 cm**-1
  44:      1490.54 cm**-1
  45:      1494.36 cm**-1
  46:      1498.74 cm**-1
  47:      1503.62 cm**-1
  48:      1662.89 cm**-1
  49:      3020.37 cm**-1
  50:      3042.87 cm**-1
  51:      3054.08 cm**-1
  52:      3081.52 cm**-1
  53:      3091.38 cm**-1
  54:      3107.59 cm**-1
  55:      3125.47 cm**-1
  56:      3147.41 cm**-1
  57:      3170.91 cm**-1
  58:      3190.27 cm**-1
  59:      3193.68 cm**-1
  60:      3349.28 cm**-1
  61:      3487.10 cm**-1
  62:      3863.12 cm**-1

IR SPECTRUM
-----------

 Mode    freq (cm**-1)   T**2         TX         TY         TZ
-------------------------------------------------------------------
   6:        74.23    1.039817  (  0.639276   0.558628   0.564870)
   7:        90.74    1.511171  (  1.156933   0.403271  -0.100251)
   8:       112.18    9.035000  (  1.438850   1.638122   2.069122)
   9:       204.11    9.056021  (  2.320059  -0.127610  -1.912345)
  10:       234.72   23.991621  ( -0.664655  -3.490907  -3.370968)
  11:       241.86    0.725457  (  0.142215   0.236438  -0.805810)
  12:       268.99   10.686402  (  2.316692   1.176672  -1.983628)
  13:       284.41  110.532531  (  0.516684   8.951949   5.488915)
  14:       327.51    7.676037  ( -2.178660  -1.710769   0.052419)
  15:       399.18    8.916995  (  1.130778   1.722776  -2.161107)
  16:       471.53    3.581630  (  0.544864   1.706071   0.611616)
  17:       652.18   16.256975  ( -2.439988   1.496314  -2.839803)
  18:       779.14    1.558415  ( -0.016335  -0.746222  -1.000650)
  19:       808.71    5.356197  ( -1.025855  -0.127065  -2.070669)
  20:       844.03    9.502806  (  0.796635  -2.242976  -1.958887)
  21:       925.13   17.349920  ( -3.241527   0.918214  -2.449348)
  22:       939.67    6.774118  ( -0.214835  -0.609995   2.521085)
  23:      1002.26    3.387813  ( -0.486560   1.730527   0.395409)
  24:      1018.62   34.140380  ( -2.600986   1.415267  -5.037090)
  25:      1057.25   10.670929  (  3.117149   0.234055   0.948434)
  26:      1084.26    4.397811  (  0.537610   0.536663   1.954681)
  27:      1086.36   18.255408  ( -1.986727   1.794138  -3.330074)
  28:      1130.29   36.449631  ( -1.340512  -0.864050   5.822893)
  29:      1166.45    6.702509  ( -2.136752   1.440030  -0.251228)
  30:      1197.47    1.342768  (  1.056961  -0.338628  -0.333066)
  31:      1246.26   43.926251  ( -4.527533  -0.339102  -4.828323)
  32:      1296.29    1.230420  (  1.102567   0.081930  -0.089741)
  33:      1312.17   11.890622  (  3.089983   0.365871   1.486191)
  34:      1334.73   11.670672  ( -3.176931   0.382692  -1.196382)
  35:      1362.30   26.075215  (  4.691705  -0.731118  -1.878452)
  36:      1386.61   11.399250  (  3.316054  -0.374563  -0.512581)
  37:      1403.86   16.674137  (  2.684394  -0.380600  -3.053410)
  38:      1418.80   15.802529  (  3.845636   0.608696   0.801939)
  39:      1422.72   47.929561  ( -6.873848   0.759892   0.319902)
  40:      1432.89   34.756559  ( -5.073956   1.322922   2.694699)
  41:      1461.08    1.615547  (  1.243321   0.030793  -0.262207)
  42:      1466.68    3.791835  ( -0.532191   0.539407   1.793780)
  43:      1487.56   29.848484  (  4.624055   0.983586  -2.738460)
  44:      1490.54    9.685318  (  1.346164   0.554557   2.750569)
  45:      1494.36   29.895735  (  3.739936  -0.356953   3.972556)
  46:      1498.74   22.713317  ( -1.187110   4.543861   0.810813)
  47:      1503.62   17.991349  (  1.861903  -3.810965   0.034806)
  48:      1662.89   39.620558  ( -1.557515  -5.572571   2.478136)
  49:      3020.37   23.947898  ( -3.481505   1.100556   3.258190)
  50:      3042.87   15.519590  (  2.819367  -2.701296  -0.523219)
  51:      3054.08   12.574613  ( -1.690073  -0.018064   3.117361)
  52:      3081.52    8.008943  ( -1.590425   1.998488  -1.218825)
  53:      3091.38    0.527138  ( -0.505579  -0.189422   0.485435)
  54:      3107.59    1.928259  (  0.496809   1.037280  -0.778132)
  55:      3125.47   19.611729  (  2.889293  -2.813748   1.829354)
  56:      3147.41    5.179500  ( -0.564910  -1.691338  -1.414126)
  57:      3170.91    0.576614  (  0.510588   0.138521   0.544725)
  58:      3190.27    0.056226  (  0.055176   0.138242   0.184583)
  59:      3193.68    0.189198  ( -0.291287  -0.223902   0.232848)
  60:      3349.28  126.817344  ( -3.153536  -4.045410  10.025329)
  61:      3487.10   55.959251  (  1.467946   4.983517   5.382281)
  62:      3863.12   90.621655  (  4.405305   3.166977  -7.822097)

--------------------------
THERMOCHEMISTRY AT 298.15K
--------------------------

Temperature         ... 298.15 K
Pressure            ... 1.00 atm
Total Mass          ... 104.17 AMU

Throughout the following assumptions are being made:
  (1) The electronic state is orbitally nondegenerate
  (2) There are no thermally accessible electronically excited states
  (3) Hindered rotations indicated by low frequency modes) are not
      treated as such but are treated as vibrations and this may
      case some error
  (4) All equations used are the standard statistical mechanics
      equations for an ideal gas
  (5) All vibrations are strinctly harmonic

------------
INNER ENERGY
------------

The inner energy is: U= E(el) + E(ZPE) + E(vib) + E(rot) + E(trans)
    E(el)   - is the total energy from the electronic structure calculation
              = E(kin-el) + E(nuc-el) + E(el-el) + E(nuc-nuc)
    E(ZPE)  - the the zero temperature vibrational energy from the frequency calculation
    E(vib)  - the the finite temperature correction to E(ZPE) due to population
              of excietd vibrational states
    E(rot)  - is the rotational thermal energy
    E(trans)- is the translational thermal energy

Summary of contributions to the inner energy U:
Electronic energy                ...   -328.44171954 Eh
Zero point energy                ...      0.19821976 Eh     124.38 kcal/mol
Thermal vibrational correction   ...      0.00644978 Eh       4.05 kcal/mol
Thermal rotational correction    ...      0.00141627 Eh       0.89 kcal/mol
Thermal translational correction ...      0.00141627 Eh       0.89 kcal/mol
-----------------------------------------------------------------------
Total thermal energy                   -328.23421745 Eh

Summary of corrections to the electronic energy:
(perhaps to be used in another calculation)
Total thermal correction                  0.00928233 Eh       5.82 kcal/mol
Non-thermal (ZPE) correction              0.19821976 Eh     124.38 kcal/mol
-----------------------------------------------------------------------
Total correction                          0.20750209 Eh     130.21 kcal/mol

--------
ENTHALPY
--------

The enthalpy is H = U + kB*T
                kB is Boltzmann's constant
Total free energy                 ...   -328.23421745 Eh
Thermal Enthalpy correction       ...      0.00094421 Eh       0.59 kcal/mol
-----------------------------------------------------------------------
Total Enthalpy                    ...   -328.23327324 Eh

-------
ENTROPY
-------

The entropy contributions are T*S = T*(S(el)+S(vib)+S(rot)+S(trans)
     S(el)   - electronic entropy
     S(vib)  - vibrational entropy
     S(rot)  - rotational entropy
     S(trans)- translational entropy
The entropies will be listed as mutliplied by the temperature to get
units of energy

Electronic entropy                ...      0.00000000 Eh      0.00 kcal/mol
Vibrational entropy               ...      0.01177219 Eh      7.39 kcal/mol
Rotational entropy                ...      0.01228533 Eh      7.71 kcal/mol
Translational entropy             ...      0.01892914 Eh     11.88 kcal/mol
-----------------------------------------------------------------------
Final entropy term                ...      0.04298666 Eh     26.97 kcal/mol

CAUTION: The rotational entropy is not quite correctly treated here
         because it includes a symmetry number that is not yet correctly
         implemented in ORCA!
For a nonlinear molecule the correct rotational entropy is:
    S(rot) = R*(ln(qrot/sn)+1.5)
    R    = 8.31441 J/mol/K = 1.987191683e-3 kcal/mol/K
    qrot = 299609.0925580
    sn is the rotational symmetry number. We have assumed 3 here
       if it is different for your molecule then you should correct
       the printed rotational entropy by manually evaluating the equation
       as given above

For convenience we print out the resulting values for sn=1 - 12:
 sn= 1  qrot/sn=  299609.0926 T*S(rot)=     8.36 kcal/mol T*S(tot)=    27.63 kcal/mol
 sn= 2  qrot/sn=  149804.5463 T*S(rot)=     7.95 kcal/mol T*S(tot)=    27.21 kcal/mol
 sn= 3  qrot/sn=   99869.6975 T*S(rot)=     7.71 kcal/mol T*S(tot)=    26.97 kcal/mol
 sn= 4  qrot/sn=   74902.2731 T*S(rot)=     7.54 kcal/mol T*S(tot)=    26.80 kcal/mol
 sn= 5  qrot/sn=   59921.8185 T*S(rot)=     7.41 kcal/mol T*S(tot)=    26.67 kcal/mol
 sn= 6  qrot/sn=   49934.8488 T*S(rot)=     7.30 kcal/mol T*S(tot)=    26.56 kcal/mol
 sn= 7  qrot/sn=   42801.2989 T*S(rot)=     7.21 kcal/mol T*S(tot)=    26.47 kcal/mol
 sn= 8  qrot/sn=   37451.1366 T*S(rot)=     7.13 kcal/mol T*S(tot)=    26.39 kcal/mol
 sn= 9  qrot/sn=   33289.8992 T*S(rot)=     7.06 kcal/mol T*S(tot)=    26.32 kcal/mol
 sn=10  qrot/sn=   29960.9093 T*S(rot)=     7.00 kcal/mol T*S(tot)=    26.26 kcal/mol
 sn=11  qrot/sn=   27237.1902 T*S(rot)=     6.94 kcal/mol T*S(tot)=    26.20 kcal/mol
 sn=12  qrot/sn=   24967.4244 T*S(rot)=     6.89 kcal/mol T*S(tot)=    26.15 kcal/mol

-------------------
GIBBS FREE ENTHALPY
-------------------

The Gibbs free enthalpy is G = H - T*S

Total enthalpy                    ...   -328.23327324 Eh
Total entropy correction          ...     -0.04298666 Eh    -26.97 kcal/mol
-----------------------------------------------------------------------
Final Gibbs free enthalpy         ...   -328.27625990 Eh

For completeness - the Gibbs free enthalpy minus the electronic energy
G-E(el)                           ...      0.16545964 Eh    103.83 kcal/mol

                             ****ORCA TERMINATED NORMALLY****
TOTAL RUN TIME: 0 days 0 hours 58 minutes 37 seconds 476 msec
