                         Program Version 3.0.3 - RELEASE   -
|  1> ! NORI PBE0 def2-TZVP UseSym TightOPT Freq TightSCF Grid3 FinalGrid5 XYZFile
|  2> % pal
|  3>     nprocs 8
|  4> end
|  5> %method
|  6>     SymThresh 5.0e-2
|  7> end
|  8> % geom
|  9>     MaxIter 10
| 10> end
| 11> % maxcore 2000
| 12> % output
| 13>     printlevel mini
| 14>     print[ P_Basis ] 0
| 15>     print[ P_SCFInfo ] 1
| 16>     print[ P_SCFIterInfo ] 1
| 17>     print[ P_OrbEn ] 0
| 18>     print[ P_Cartesian ] 0
| 19> end
| 20> % elprop
| 21>     Dipole false
| 22> end
| 23> *xyz 1 1
| 24>  C        1.1818823753    -0.0162278690     0.5110505074
| 25>  C        2.4835976826     0.2117692329    -0.1909901333
| 26>  C        2.9178394654    -0.8298781617    -1.2137623173
| 27>  O        2.4528330220    -1.9233252274    -1.2116496733
| 28>  C        3.5187820437     1.0297356307     0.4438949387
| 29>  N        2.9529869739     1.5940226387    -0.5642777701
| 30>  N        4.3477919852     1.2245289403     1.4109385793
| 31>  H        1.1887064037    -1.0128964389     0.9545823738
| 32>  H        0.3674187473     0.0079033813    -0.2158929444
| 33>  H        0.9958729886     0.7255557020     1.2879772025
| 34>  H        3.6814381313    -0.4803047763    -1.9371958474
| 35>  H        2.5292576148     2.4969785526    -0.7459193613
| 36>  H        4.5840270613     0.4687305060     2.0392186600
| 37>  H        4.8013655050     2.1187478888     1.5510157854
| 38> *
| 39>
| 40>                          ****END OF INPUT****
 Total Charge           Charge          ....    1
 Multiplicity           Mult            ....    1
 Number of Electrons    NEL             ....   52
FINAL SINGLE POINT ENERGY      -340.790970974845

CARTESIAN COORDINATES (ANGSTROEM)
---------------------------------
  C     -0.555330   -1.678744    0.152528
  C      0.110595   -0.341174    0.069937
  C      0.497959    0.328801    1.381747
  O      0.000707   -0.000612    2.409437
  C     -0.108214    0.509071   -1.101751
  N      1.071795    0.000387   -1.039010
  N     -0.904788    1.191749   -1.849885
  H     -1.417747   -1.604303    0.816637
  H      0.132668   -2.400896    0.596744
  H     -0.879040   -2.040408   -0.823720
  H      1.265465    1.122854    1.288668
  H      1.678440   -0.503986   -1.675990
  H     -1.826128    1.441645   -1.517745
  H     -0.625677    1.516546   -2.767314

FINAL SINGLE POINT ENERGY      -340.790971118568
                    ***********************HURRAY********************
 Multiplicity           Mult            ....    1
 Number of Electrons    NEL             ....   52
 Basis Dimension        Dim             ....  259
FINAL SINGLE POINT ENERGY      -340.790971013489

VIBRATIONAL FREQUENCIES
-----------------------

   0:         0.00 cm**-1
   1:         0.00 cm**-1
   2:         0.00 cm**-1
   3:         0.00 cm**-1
   4:         0.00 cm**-1
   5:         0.00 cm**-1
   6:        71.87 cm**-1
   7:       158.93 cm**-1
   8:       179.08 cm**-1
   9:       248.76 cm**-1
  10:       263.87 cm**-1
  11:       343.33 cm**-1
  12:       443.43 cm**-1
  13:       484.47 cm**-1
  14:       529.64 cm**-1
  15:       587.22 cm**-1
  16:       633.83 cm**-1
  17:       675.35 cm**-1
  18:       712.16 cm**-1
  19:       772.03 cm**-1
  20:       967.60 cm**-1
  21:      1002.65 cm**-1
  22:      1033.36 cm**-1
  23:      1071.27 cm**-1
  24:      1116.79 cm**-1
  25:      1210.26 cm**-1
  26:      1266.85 cm**-1
  27:      1379.97 cm**-1
  28:      1409.01 cm**-1
  29:      1414.01 cm**-1
  30:      1463.68 cm**-1
  31:      1477.44 cm**-1
  32:      1637.91 cm**-1
  33:      1873.06 cm**-1
  34:      1922.13 cm**-1
  35:      2962.43 cm**-1
  36:      3070.42 cm**-1
  37:      3151.96 cm**-1
  38:      3163.61 cm**-1
  39:      3545.99 cm**-1
  40:      3568.37 cm**-1
  41:      3660.72 cm**-1

IR SPECTRUM
-----------

 Mode    freq (cm**-1)   T**2         TX         TY         TZ
-------------------------------------------------------------------
   6:        71.87    6.195750  ( -1.508946   1.576247  -1.197614)
   7:       158.93    0.510098  (  0.127390   0.604783   0.357920)
   8:       179.08    6.025428  ( -1.587708  -1.860533   0.207437)
   9:       248.76    7.658069  (  1.356867   1.981727   1.374678)
  10:       263.87    3.971713  (  1.218844  -1.187741  -1.037017)
  11:       343.33    1.406049  ( -1.151169  -0.165487  -0.231243)
  12:       443.43  157.205984  (-11.850766  -3.814295  -1.488788)
  13:       484.47    2.784984  (  1.091544   0.967528  -0.810804)
  14:       529.64   34.716569  (  5.754369   1.243088  -0.241951)
  15:       587.22   14.426171  ( -0.121682  -2.789883  -2.574474)
  16:       633.83  171.333442  ( -4.863750 -10.865493  -5.442283)
  17:       675.35   35.721386  ( -3.656882  -4.357749  -1.832655)
  18:       712.16   26.859605  ( -2.604489   0.754959  -4.416591)
  19:       772.03    8.702981  ( -0.286773  -1.606297  -2.457754)
  20:       967.60   26.125152  ( -2.781498  -2.009281  -3.788299)
  21:      1002.65    3.700319  (  0.153719  -1.344241  -1.367371)
  22:      1033.36   15.327274  (  2.282952  -3.052342  -0.893653)
  23:      1071.27    9.436563  ( -0.287800   1.109708  -2.849962)
  24:      1116.79    5.071140  (  1.442184  -1.727666  -0.080111)
  25:      1210.26   27.806663  (  0.395649  -3.777403   3.658053)
  26:      1266.85   53.756481  (  0.968154  -2.861448   6.680664)
  27:      1379.97    2.782340  (  0.623424   1.429916  -0.590783)
  28:      1409.01   13.697824  ( -1.389426   2.609334   2.226812)
  29:      1414.01   21.837446  ( -3.212384  -2.402995   2.396592)
  30:      1463.68    9.261532  (  2.507307  -1.361915   1.058363)
  31:      1477.44   13.933819  ( -0.311334   1.682020   3.317785)
  32:      1637.91   51.044555  ( -3.687487   4.030925  -4.604198)
  33:      1873.06  154.962640  (  1.774420   2.301708 -12.104388)
  34:      1922.13  279.125699  ( 13.267882  -8.178802   6.016328)
  35:      2962.43   29.108781  ( -3.564553  -4.048687   0.104271)
  36:      3070.42    4.064642  ( -0.342669  -0.919701   1.761071)
  37:      3151.96    1.027565  ( -0.684633   0.590259   0.458734)
  38:      3163.61    1.192652  (  0.861536   0.667963   0.065058)
  39:      3545.99  242.107719  (  9.913845  -9.230880   7.655993)
  40:      3568.37  197.852161  (  9.346703  -4.691884  -9.406249)
  41:      3660.72  145.576011  (  9.490178  -0.566858  -7.429079)

--------------------------
THERMOCHEMISTRY AT 298.15K
--------------------------

Temperature         ... 298.15 K
Pressure            ... 1.00 atm
Total Mass          ... 99.11 AMU

Throughout the following assumptions are being made:
  (1) The electronic state is orbitally nondegenerate
  (2) There are no thermally accessible electronically excited states
  (3) Hindered rotations indicated by low frequency modes) are not
      treated as such but are treated as vibrations and this may
      case some error
  (4) All equations used are the standard statistical mechanics
      equations for an ideal gas
  (5) All vibrations are strinctly harmonic

------------
INNER ENERGY
------------

The inner energy is: U= E(el) + E(ZPE) + E(vib) + E(rot) + E(trans)
    E(el)   - is the total energy from the electronic structure calculation
              = E(kin-el) + E(nuc-el) + E(el-el) + E(nuc-nuc)
    E(ZPE)  - the the zero temperature vibrational energy from the frequency calculation
    E(vib)  - the the finite temperature correction to E(ZPE) due to population
              of excietd vibrational states
    E(rot)  - is the rotational thermal energy
    E(trans)- is the translational thermal energy

Summary of contributions to the inner energy U:
Electronic energy                ...   -340.79097101 Eh
Zero point energy                ...      0.11270883 Eh      70.73 kcal/mol
Thermal vibrational correction   ...      0.00490078 Eh       3.08 kcal/mol
Thermal rotational correction    ...      0.00141627 Eh       0.89 kcal/mol
Thermal translational correction ...      0.00141627 Eh       0.89 kcal/mol
-----------------------------------------------------------------------
Total thermal energy                   -340.67052887 Eh

Summary of corrections to the electronic energy:
(perhaps to be used in another calculation)
Total thermal correction                  0.00773332 Eh       4.85 kcal/mol
Non-thermal (ZPE) correction              0.11270883 Eh      70.73 kcal/mol
-----------------------------------------------------------------------
Total correction                          0.12044215 Eh      75.58 kcal/mol

--------
ENTHALPY
--------

The enthalpy is H = U + kB*T
                kB is Boltzmann's constant
Total free energy                 ...   -340.67052887 Eh
Thermal Enthalpy correction       ...      0.00094421 Eh       0.59 kcal/mol
-----------------------------------------------------------------------
Total Enthalpy                    ...   -340.66958466 Eh

-------
ENTROPY
-------

The entropy contributions are T*S = T*(S(el)+S(vib)+S(rot)+S(trans)
     S(el)   - electronic entropy
     S(vib)  - vibrational entropy
     S(rot)  - rotational entropy
     S(trans)- translational entropy
The entropies will be listed as mutliplied by the temperature to get
units of energy

Electronic entropy                ...      0.00000000 Eh      0.00 kcal/mol
Vibrational entropy               ...      0.00854046 Eh      5.36 kcal/mol
Rotational entropy                ...      0.01200674 Eh      7.53 kcal/mol
Translational entropy             ...      0.01885862 Eh     11.83 kcal/mol
-----------------------------------------------------------------------
Final entropy term                ...      0.03940582 Eh     24.73 kcal/mol

CAUTION: The rotational entropy is not quite correctly treated here
         because it includes a symmetry number that is not yet correctly
         implemented in ORCA!
For a nonlinear molecule the correct rotational entropy is:
    S(rot) = R*(ln(qrot/sn)+1.5)
    R    = 8.31441 J/mol/K = 1.987191683e-3 kcal/mol/K
    qrot = 223055.7602402
    sn is the rotational symmetry number. We have assumed 3 here
       if it is different for your molecule then you should correct
       the printed rotational entropy by manually evaluating the equation
       as given above

For convenience we print out the resulting values for sn=1 - 12:
 sn= 1  qrot/sn=  223055.7602 T*S(rot)=     8.19 kcal/mol T*S(tot)=    25.38 kcal/mol
 sn= 2  qrot/sn=  111527.8801 T*S(rot)=     7.77 kcal/mol T*S(tot)=    24.97 kcal/mol
 sn= 3  qrot/sn=   74351.9201 T*S(rot)=     7.53 kcal/mol T*S(tot)=    24.73 kcal/mol
 sn= 4  qrot/sn=   55763.9401 T*S(rot)=     7.36 kcal/mol T*S(tot)=    24.56 kcal/mol
 sn= 5  qrot/sn=   44611.1520 T*S(rot)=     7.23 kcal/mol T*S(tot)=    24.42 kcal/mol
 sn= 6  qrot/sn=   37175.9600 T*S(rot)=     7.12 kcal/mol T*S(tot)=    24.32 kcal/mol
 sn= 7  qrot/sn=   31865.1086 T*S(rot)=     7.03 kcal/mol T*S(tot)=    24.23 kcal/mol
 sn= 8  qrot/sn=   27881.9700 T*S(rot)=     6.95 kcal/mol T*S(tot)=    24.15 kcal/mol
 sn= 9  qrot/sn=   24783.9734 T*S(rot)=     6.88 kcal/mol T*S(tot)=    24.08 kcal/mol
 sn=10  qrot/sn=   22305.5760 T*S(rot)=     6.82 kcal/mol T*S(tot)=    24.01 kcal/mol
 sn=11  qrot/sn=   20277.7964 T*S(rot)=     6.76 kcal/mol T*S(tot)=    23.96 kcal/mol
 sn=12  qrot/sn=   18587.9800 T*S(rot)=     6.71 kcal/mol T*S(tot)=    23.91 kcal/mol

-------------------
GIBBS FREE ENTHALPY
-------------------

The Gibbs free enthalpy is G = H - T*S

Total enthalpy                    ...   -340.66958466 Eh
Total entropy correction          ...     -0.03940582 Eh    -24.73 kcal/mol
-----------------------------------------------------------------------
Final Gibbs free enthalpy         ...   -340.70899048 Eh

For completeness - the Gibbs free enthalpy minus the electronic energy
G-E(el)                           ...      0.08198053 Eh     51.44 kcal/mol

                             ****ORCA TERMINATED NORMALLY****
TOTAL RUN TIME: 0 days 0 hours 32 minutes 37 seconds 106 msec
