                         Program Version 3.0.3 - RELEASE   -
|  1> ! NORI PBE0 def2-TZVP UseSym TightOPT Freq TightSCF Grid3 FinalGrid5 XYZFile
|  2> % pal
|  3>     nprocs 8
|  4> end
|  5> %method
|  6>     SymThresh 5.0e-2
|  7> end
|  8> % geom
|  9>     MaxIter 10
| 10> end
| 11> % maxcore 2000
| 12> % output
| 13>     printlevel mini
| 14>     print[ P_Basis ] 0
| 15>     print[ P_SCFInfo ] 1
| 16>     print[ P_SCFIterInfo ] 1
| 17>     print[ P_OrbEn ] 0
| 18>     print[ P_Cartesian ] 0
| 19> end
| 20> % elprop
| 21>     Dipole false
| 22> end
| 23> *xyz 1 1
| 24>  C        0.9271020557     0.2486963760     0.0514691744
| 25>  C        2.4178691852    -0.0128710789     0.0031721464
| 26>  C        3.2683784949     1.3742857664    -0.0747260895
| 27>  O        2.6869823939     2.3916637620    -0.1118862939
| 28>  C        2.9543433663    -0.7039631433     1.1221918968
| 29>  N        2.7588120037    -0.9923913505     2.4007360763
| 30>  N        4.0427426208    -1.3146742821     1.6002832220
| 31>  H        0.6528455638     0.9144715319    -0.7659617915
| 32>  H        0.6428135795     0.7364377057     0.9847702487
| 33>  H        0.3677294557    -0.6806313995    -0.0556096887
| 34>  H        2.7682807924    -0.5035448040    -0.9170532284
| 35>  H        4.3608289501     1.2442301750    -0.1462953774
| 36>  H        2.0933665040    -1.7406482313     2.6209107834
| 37>  H        4.1848750340    -2.2795310275     1.2812489214
| 38> *
| 39>
| 40>                          ****END OF INPUT****
 Total Charge           Charge          ....    1
 Multiplicity           Mult            ....    1
 Number of Electrons    NEL             ....   52
FINAL SINGLE POINT ENERGY      -340.693814249161

CARTESIAN COORDINATES (ANGSTROEM)
---------------------------------
  C     -0.638994   -1.758913    0.338634
  C     -0.728355   -0.266609    0.097094
  C     -0.297598    0.582806    1.419063
  O      0.001467    0.000474    2.391599
  C      0.100188    0.235537   -0.941720
  N      1.194460   -0.000057   -1.651106
  N      0.371924    1.309441   -1.689354
  H     -1.186207   -2.009010    1.246511
  H      0.395717   -2.073777    0.478852
  H     -1.075878   -2.312034   -0.493031
  H     -1.750009    0.114114   -0.050011
  H     -0.376167    1.676994    1.312245
  H      1.122646   -0.670449   -2.423519
  H     -0.255331    1.463921   -2.486643

FINAL SINGLE POINT ENERGY      -340.693814709355
                    ***********************HURRAY********************
 Multiplicity           Mult            ....    1
 Number of Electrons    NEL             ....   52
 Basis Dimension        Dim             ....  259
FINAL SINGLE POINT ENERGY      -340.693811450504

VIBRATIONAL FREQUENCIES
-----------------------

   0:         0.00 cm**-1
   1:         0.00 cm**-1
   2:         0.00 cm**-1
   3:         0.00 cm**-1
   4:         0.00 cm**-1
   5:         0.00 cm**-1
   6:        67.17 cm**-1
   7:       107.09 cm**-1
   8:       145.57 cm**-1
   9:       170.68 cm**-1
  10:       244.65 cm**-1
  11:       270.69 cm**-1
  12:       436.17 cm**-1
  13:       467.57 cm**-1
  14:       555.39 cm**-1
  15:       613.84 cm**-1
  16:       676.22 cm**-1
  17:       714.02 cm**-1
  18:       860.75 cm**-1
  19:       920.86 cm**-1
  20:       981.11 cm**-1
  21:      1004.89 cm**-1
  22:      1040.87 cm**-1
  23:      1078.00 cm**-1
  24:      1117.16 cm**-1
  25:      1126.54 cm**-1
  26:      1160.40 cm**-1
  27:      1307.00 cm**-1
  28:      1347.62 cm**-1
  29:      1414.53 cm**-1
  30:      1428.24 cm**-1
  31:      1479.80 cm**-1
  32:      1482.59 cm**-1
  33:      1723.12 cm**-1
  34:      1924.50 cm**-1
  35:      3026.72 cm**-1
  36:      3039.39 cm**-1
  37:      3080.54 cm**-1
  38:      3163.13 cm**-1
  39:      3176.22 cm**-1
  40:      3419.86 cm**-1
  41:      3439.75 cm**-1

IR SPECTRUM
-----------

 Mode    freq (cm**-1)   T**2         TX         TY         TZ
-------------------------------------------------------------------
   6:        67.17    3.337104  (  0.866200   1.328789  -0.906157)
   7:       107.09    8.959035  ( -2.481520   1.501762  -0.738785)
   8:       145.57    6.851140  (  2.477051  -0.804899  -0.259797)
   9:       170.68    3.758909  (  1.725028  -0.752306  -0.466073)
  10:       244.65    5.614432  (  1.819625   1.504198  -0.201953)
  11:       270.69    6.181978  ( -0.182096  -2.292628  -0.944816)
  12:       436.17   42.959733  ( -4.528642   4.686404   0.699109)
  13:       467.57  113.859766  ( -4.062716   9.731245   1.630023)
  14:       555.39   88.857622  ( -7.900136   5.107338   0.600475)
  15:       613.84   32.495809  (  0.798330  -4.413876   3.517979)
  16:       676.22  165.630690  (  2.565134  -1.660168 -12.501785)
  17:       714.02  131.902140  (  2.297844  -2.114102 -11.052268)
  18:       860.75  144.477436  ( -4.762911  -1.181909  10.972475)
  19:       920.86   14.274612  (  1.797456   1.371998  -3.026778)
  20:       981.11    9.027772  (  2.050822   2.158474   0.403601)
  21:      1004.89  104.757049  (  7.101761   3.914121  -6.245134)
  22:      1040.87    9.518476  (  0.456614  -3.034733   0.316823)
  23:      1078.00   80.500246  (  2.595245   2.100764  -8.327769)
  24:      1117.16   23.051755  ( -0.074398  -3.789235  -2.947528)
  25:      1126.54   22.110210  ( -3.446838  -2.856099   1.439518)
  26:      1160.40   28.560020  (  1.085906   0.109225   5.231529)
  27:      1307.00   12.127328  (  1.555130  -1.146494  -2.897318)
  28:      1347.62    4.579165  ( -0.204738  -1.403572  -1.602259)
  29:      1414.53    4.978290  (  1.025074  -1.966015   0.249598)
  30:      1428.24    2.814268  (  0.226162  -1.513335  -0.687704)
  31:      1479.80   13.132745  (  0.752543   0.701450   3.474823)
  32:      1482.59   11.371619  (  3.327395   0.273846   0.474412)
  33:      1723.12  401.134400  (  6.919627   3.808344 -18.405154)
  34:      1924.50  175.915704  ( -3.057234   1.089525 -12.860092)
  35:      3026.72    8.683179  ( -2.513657   1.371232   0.696009)
  36:      3039.39   19.334107  (  3.623975   2.352163   0.817463)
  37:      3080.54    0.930680  ( -0.100059  -0.177537  -0.942947)
  38:      3163.13    0.165567  (  0.245822   0.317225   0.067135)
  39:      3176.22    0.943161  ( -0.394190  -0.347689   0.816632)
  40:      3419.86   99.058239  ( -5.040454   7.134559  -4.769709)
  41:      3439.75  188.756734  ( -1.278168   3.824557  13.133765)

--------------------------
THERMOCHEMISTRY AT 298.15K
--------------------------

Temperature         ... 298.15 K
Pressure            ... 1.00 atm
Total Mass          ... 99.11 AMU

Throughout the following assumptions are being made:
  (1) The electronic state is orbitally nondegenerate
  (2) There are no thermally accessible electronically excited states
  (3) Hindered rotations indicated by low frequency modes) are not
      treated as such but are treated as vibrations and this may
      case some error
  (4) All equations used are the standard statistical mechanics
      equations for an ideal gas
  (5) All vibrations are strinctly harmonic

------------
INNER ENERGY
------------

The inner energy is: U= E(el) + E(ZPE) + E(vib) + E(rot) + E(trans)
    E(el)   - is the total energy from the electronic structure calculation
              = E(kin-el) + E(nuc-el) + E(el-el) + E(nuc-nuc)
    E(ZPE)  - the the zero temperature vibrational energy from the frequency calculation
    E(vib)  - the the finite temperature correction to E(ZPE) due to population
              of excietd vibrational states
    E(rot)  - is the rotational thermal energy
    E(trans)- is the translational thermal energy

Summary of contributions to the inner energy U:
Electronic energy                ...   -340.69381145 Eh
Zero point energy                ...      0.10983648 Eh      68.92 kcal/mol
Thermal vibrational correction   ...      0.00518501 Eh       3.25 kcal/mol
Thermal rotational correction    ...      0.00141627 Eh       0.89 kcal/mol
Thermal translational correction ...      0.00141627 Eh       0.89 kcal/mol
-----------------------------------------------------------------------
Total thermal energy                   -340.57595742 Eh

Summary of corrections to the electronic energy:
(perhaps to be used in another calculation)
Total thermal correction                  0.00801755 Eh       5.03 kcal/mol
Non-thermal (ZPE) correction              0.10983648 Eh      68.92 kcal/mol
-----------------------------------------------------------------------
Total correction                          0.11785403 Eh      73.95 kcal/mol

--------
ENTHALPY
--------

The enthalpy is H = U + kB*T
                kB is Boltzmann's constant
Total free energy                 ...   -340.57595742 Eh
Thermal Enthalpy correction       ...      0.00094421 Eh       0.59 kcal/mol
-----------------------------------------------------------------------
Total Enthalpy                    ...   -340.57501321 Eh

-------
ENTROPY
-------

The entropy contributions are T*S = T*(S(el)+S(vib)+S(rot)+S(trans)
     S(el)   - electronic entropy
     S(vib)  - vibrational entropy
     S(rot)  - rotational entropy
     S(trans)- translational entropy
The entropies will be listed as mutliplied by the temperature to get
units of energy

Electronic entropy                ...      0.00000000 Eh      0.00 kcal/mol
Vibrational entropy               ...      0.00957416 Eh      6.01 kcal/mol
Rotational entropy                ...      0.01204549 Eh      7.56 kcal/mol
Translational entropy             ...      0.01885862 Eh     11.83 kcal/mol
-----------------------------------------------------------------------
Final entropy term                ...      0.04047827 Eh     25.40 kcal/mol

CAUTION: The rotational entropy is not quite correctly treated here
         because it includes a symmetry number that is not yet correctly
         implemented in ORCA!
For a nonlinear molecule the correct rotational entropy is:
    S(rot) = R*(ln(qrot/sn)+1.5)
    R    = 8.31441 J/mol/K = 1.987191683e-3 kcal/mol/K
    qrot = 232401.0998287
    sn is the rotational symmetry number. We have assumed 3 here
       if it is different for your molecule then you should correct
       the printed rotational entropy by manually evaluating the equation
       as given above

For convenience we print out the resulting values for sn=1 - 12:
 sn= 1  qrot/sn=  232401.0998 T*S(rot)=     8.21 kcal/mol T*S(tot)=    26.05 kcal/mol
 sn= 2  qrot/sn=  116200.5499 T*S(rot)=     7.80 kcal/mol T*S(tot)=    25.64 kcal/mol
 sn= 3  qrot/sn=   77467.0333 T*S(rot)=     7.56 kcal/mol T*S(tot)=    25.40 kcal/mol
 sn= 4  qrot/sn=   58100.2750 T*S(rot)=     7.39 kcal/mol T*S(tot)=    25.23 kcal/mol
 sn= 5  qrot/sn=   46480.2200 T*S(rot)=     7.26 kcal/mol T*S(tot)=    25.10 kcal/mol
 sn= 6  qrot/sn=   38733.5166 T*S(rot)=     7.15 kcal/mol T*S(tot)=    24.99 kcal/mol
 sn= 7  qrot/sn=   33200.1571 T*S(rot)=     7.06 kcal/mol T*S(tot)=    24.90 kcal/mol
 sn= 8  qrot/sn=   29050.1375 T*S(rot)=     6.98 kcal/mol T*S(tot)=    24.82 kcal/mol
 sn= 9  qrot/sn=   25822.3444 T*S(rot)=     6.91 kcal/mol T*S(tot)=    24.75 kcal/mol
 sn=10  qrot/sn=   23240.1100 T*S(rot)=     6.85 kcal/mol T*S(tot)=    24.69 kcal/mol
 sn=11  qrot/sn=   21127.3727 T*S(rot)=     6.79 kcal/mol T*S(tot)=    24.63 kcal/mol
 sn=12  qrot/sn=   19366.7583 T*S(rot)=     6.74 kcal/mol T*S(tot)=    24.58 kcal/mol

-------------------
GIBBS FREE ENTHALPY
-------------------

The Gibbs free enthalpy is G = H - T*S

Total enthalpy                    ...   -340.57501321 Eh
Total entropy correction          ...     -0.04047827 Eh    -25.40 kcal/mol
-----------------------------------------------------------------------
Final Gibbs free enthalpy         ...   -340.61549148 Eh

For completeness - the Gibbs free enthalpy minus the electronic energy
G-E(el)                           ...      0.07831997 Eh     49.15 kcal/mol

                             ****ORCA TERMINATED NORMALLY****
TOTAL RUN TIME: 0 days 0 hours 32 minutes 58 seconds 585 msec
