                         Program Version 3.0.3 - RELEASE   -
|  1> ! NORI PBE0 def2-TZVP UseSym TightOPT Freq TightSCF Grid3 FinalGrid5 XYZFile
|  2> % pal
|  3>     nprocs 8
|  4> end
|  5> %method
|  6>     SymThresh 5.0e-2
|  7> end
|  8> % geom
|  9>     MaxIter 10
| 10> end
| 11> % maxcore 2000
| 12> % output
| 13>     printlevel mini
| 14>     print[ P_Basis ] 0
| 15>     print[ P_SCFInfo ] 1
| 16>     print[ P_SCFIterInfo ] 1
| 17>     print[ P_OrbEn ] 0
| 18>     print[ P_Cartesian ] 0
| 19> end
| 20> % elprop
| 21>     Dipole false
| 22> end
| 23> *xyz 1 1
| 24>  C        0.8192650805     0.8952681848    -0.6257874783
| 25>  C        2.1244895883     0.4681365350    -0.0269750393
| 26>  C        2.9775631017     1.5577895161     0.5458550875
| 27>  O        1.7454605980    -0.4307969174     1.1819847901
| 28>  C        2.0820742009    -1.6121494431     1.2087770321
| 29>  N        1.9327883294    -2.7250213737     1.9151726264
| 30>  N        2.8205517947    -2.5652734122     0.6369467851
| 31>  H        1.0390960800     1.5200496115    -1.4948240441
| 32>  H        0.2373551256     1.4889766143     0.0806977476
| 33>  H        0.2236369941     0.0477949066    -0.9672060392
| 34>  H        2.6906822135    -0.1956662279    -0.6847008514
| 35>  H        2.4215501138     2.1538463172     1.2710023357
| 36>  H        3.2770535656     2.2137465446    -0.2749056417
| 37>  H        3.8849495892     1.1686688329     1.0086398023
| 38>  H        2.5204922689    -2.8537462846     2.7409261721
| 39>  H        2.4040913557    -3.1013834042    -0.1262532851
| 40> *
| 41>
| 42>                          ****END OF INPUT****
 Total Charge           Charge          ....    1
 Multiplicity           Mult            ....    1
 Number of Electrons    NEL             ....   54
FINAL SINGLE POINT ENERGY      -341.945260886018
FINAL SINGLE POINT ENERGY      -341.945262353229
FINAL SINGLE POINT ENERGY      -341.945265060150
FINAL SINGLE POINT ENERGY      -341.945265944351

CARTESIAN COORDINATES (ANGSTROEM)
---------------------------------
  C     -1.914216   -1.346064    0.062460
  C     -1.276019   -0.030377   -0.264660
  C     -2.066183    1.191808    0.088975
  O     -0.002111    0.041413    0.620716
  C      1.114195    0.041242    0.107565
  N      2.404293   -0.002854    0.413794
  N      1.811080    0.129843   -1.027294
  H     -2.815778   -1.440574   -0.547463
  H     -2.208666   -1.390838    1.111813
  H     -1.265123   -2.191223   -0.170038
  H     -0.891958    0.008290   -1.286668
  H     -2.361120    1.180016    1.139128
  H     -2.974419    1.189650   -0.518383
  H     -1.521483    2.110748   -0.129477
  H      2.863502    0.867351    0.689592
  H      1.997304   -0.731519   -1.543745

FINAL SINGLE POINT ENERGY      -341.945266610362
                    ***********************HURRAY********************
 Multiplicity           Mult            ....    1
 Number of Electrons    NEL             ....   54
 Basis Dimension        Dim             ....  271
FINAL SINGLE POINT ENERGY      -341.945266869899

VIBRATIONAL FREQUENCIES
-----------------------

   0:         0.00 cm**-1
   1:         0.00 cm**-1
   2:         0.00 cm**-1
   3:         0.00 cm**-1
   4:         0.00 cm**-1
   5:         0.00 cm**-1
   6:        26.87 cm**-1
   7:       132.31 cm**-1
   8:       158.35 cm**-1
   9:       212.64 cm**-1
  10:       256.01 cm**-1
  11:       319.58 cm**-1
  12:       390.53 cm**-1
  13:       433.66 cm**-1
  14:       487.74 cm**-1
  15:       521.74 cm**-1
  16:       661.29 cm**-1
  17:       711.92 cm**-1
  18:       831.27 cm**-1
  19:       893.17 cm**-1
  20:       935.98 cm**-1
  21:       944.03 cm**-1
  22:       998.03 cm**-1
  23:      1067.06 cm**-1
  24:      1079.36 cm**-1
  25:      1133.92 cm**-1
  26:      1176.65 cm**-1
  27:      1206.40 cm**-1
  28:      1238.62 cm**-1
  29:      1347.13 cm**-1
  30:      1351.64 cm**-1
  31:      1365.68 cm**-1
  32:      1413.75 cm**-1
  33:      1420.23 cm**-1
  34:      1465.77 cm**-1
  35:      1469.08 cm**-1
  36:      1481.42 cm**-1
  37:      1498.47 cm**-1
  38:      1934.14 cm**-1
  39:      3066.07 cm**-1
  40:      3069.52 cm**-1
  41:      3102.13 cm**-1
  42:      3144.97 cm**-1
  43:      3149.54 cm**-1
  44:      3159.67 cm**-1
  45:      3164.66 cm**-1
  46:      3476.55 cm**-1
  47:      3479.73 cm**-1

IR SPECTRUM
-----------

 Mode    freq (cm**-1)   T**2         TX         TY         TZ
-------------------------------------------------------------------
   7:       132.31    0.276662  (  0.340164  -0.400467  -0.024016)
   8:       158.35    0.343960  (  0.502434   0.097104  -0.286514)
   9:       212.64    0.089719  ( -0.036132   0.296589   0.021185)
  10:       256.01    0.757627  ( -0.561219  -0.074644  -0.661127)
  11:       319.58    3.588501  (  1.827925  -0.001937   0.497179)
  12:       390.53    2.145992  ( -0.265502   1.415859   0.266166)
  13:       433.66   19.381916  (  4.271477   0.113397   1.059974)
  14:       487.74   37.344659  ( -5.742460   1.632987  -1.304673)
  15:       521.74   13.611484  (  2.744148   2.389189   0.610665)
  16:       661.29   17.208574  (  2.926081   1.290512  -2.642196)
  17:       711.92   27.387510  (  4.972618   1.051911  -1.246623)
  18:       831.27  311.615864  (  8.863862  -3.919617  14.754132)
  19:       893.17   26.087374  ( -5.030275  -0.414598  -0.782186)
  20:       935.98    0.495817  ( -0.608002   0.167126   0.313400)
  21:       944.03    1.409105  (  0.257276  -1.157484   0.056088)
  22:       998.03  286.390332  ( 15.927056   0.219173  -5.715872)
  23:      1067.06   83.288096  ( -8.546311  -0.269535  -3.189986)
  24:      1079.36    2.398759  (  0.504289   1.343018   0.583741)
  25:      1133.92    7.541183  ( -2.217673  -0.110973   1.615795)
  26:      1176.65    8.740147  ( -0.528177  -2.882943   0.387061)
  27:      1206.40   10.555385  ( -2.765963  -0.304513   1.676934)
  28:      1238.62    8.832526  (  2.960032   0.224008  -0.143385)
  29:      1347.13   57.558872  (  6.857210   0.075680  -3.245277)
  30:      1351.64   13.924058  (  3.198635   1.291110   1.423315)
  31:      1365.68    3.674173  (  1.689134  -0.818424  -0.388822)
  32:      1413.75   30.750432  (  0.509847  -5.521066  -0.091224)
  33:      1420.23   14.349434  (  3.663939  -0.016344  -0.961624)
  34:      1465.77    2.592382  ( -0.054770   1.609136   0.007975)
  35:      1469.08    0.350036  (  0.010591  -0.561834   0.185112)
  36:      1481.42   15.246010  (  0.952170   0.108268  -3.785190)
  37:      1498.47    9.848687  ( -0.421420   0.023302  -3.109751)
  38:      1934.14  660.631705  (-25.127406  -0.486414   5.385960)
  39:      3066.07    0.158964  (  0.391782  -0.063021  -0.038722)
  40:      3069.52    2.347846  (  1.522386  -0.074617   0.156908)
  41:      3102.13    3.748154  (  1.096227   0.004880  -1.595749)
  42:      3144.97    3.577082  (  0.165987  -1.878524  -0.143799)
  43:      3149.54    0.085531  ( -0.288334  -0.037167   0.031838)
  44:      3159.67    2.881181  ( -0.594377   1.555498   0.329123)
  45:      3164.66    3.440455  ( -1.375766  -0.422105   1.170278)
  46:      3476.55  185.186634  ( -4.219019 -10.310681  -7.815137)
  47:      3479.73   89.054878  (  8.834183  -0.629592  -3.258174)

--------------------------
THERMOCHEMISTRY AT 298.15K
--------------------------

Temperature         ... 298.15 K
Pressure            ... 1.00 atm
Total Mass          ... 101.13 AMU

Throughout the following assumptions are being made:
  (1) The electronic state is orbitally nondegenerate
  (2) There are no thermally accessible electronically excited states
  (3) Hindered rotations indicated by low frequency modes) are not
      treated as such but are treated as vibrations and this may
      case some error
  (4) All equations used are the standard statistical mechanics
      equations for an ideal gas
  (5) All vibrations are strinctly harmonic

------------
INNER ENERGY
------------

The inner energy is: U= E(el) + E(ZPE) + E(vib) + E(rot) + E(trans)
    E(el)   - is the total energy from the electronic structure calculation
              = E(kin-el) + E(nuc-el) + E(el-el) + E(nuc-nuc)
    E(ZPE)  - the the zero temperature vibrational energy from the frequency calculation
    E(vib)  - the the finite temperature correction to E(ZPE) due to population
              of excietd vibrational states
    E(rot)  - is the rotational thermal energy
    E(trans)- is the translational thermal energy

Summary of contributions to the inner energy U:
Electronic energy                ...   -341.94526687 Eh
Zero point energy                ...      0.13521018 Eh      84.85 kcal/mol
Thermal vibrational correction   ...      0.00443957 Eh       2.79 kcal/mol
Thermal rotational correction    ...      0.00141627 Eh       0.89 kcal/mol
Thermal translational correction ...      0.00141627 Eh       0.89 kcal/mol
-----------------------------------------------------------------------
Total thermal energy                   -341.80278458 Eh

Summary of corrections to the electronic energy:
(perhaps to be used in another calculation)
Total thermal correction                  0.00727212 Eh       4.56 kcal/mol
Non-thermal (ZPE) correction              0.13521018 Eh      84.85 kcal/mol
-----------------------------------------------------------------------
Total correction                          0.14248229 Eh      89.41 kcal/mol

--------
ENTHALPY
--------

The enthalpy is H = U + kB*T
                kB is Boltzmann's constant
Total free energy                 ...   -341.80278458 Eh
Thermal Enthalpy correction       ...      0.00094421 Eh       0.59 kcal/mol
-----------------------------------------------------------------------
Total Enthalpy                    ...   -341.80184037 Eh

-------
ENTROPY
-------

The entropy contributions are T*S = T*(S(el)+S(vib)+S(rot)+S(trans)
     S(el)   - electronic entropy
     S(vib)  - vibrational entropy
     S(rot)  - rotational entropy
     S(trans)- translational entropy
The entropies will be listed as mutliplied by the temperature to get
units of energy

Electronic entropy                ...      0.00000000 Eh      0.00 kcal/mol
Vibrational entropy               ...      0.00732547 Eh      4.60 kcal/mol
Rotational entropy                ...      0.01210618 Eh      7.60 kcal/mol
Translational entropy             ...      0.01888714 Eh     11.85 kcal/mol
-----------------------------------------------------------------------
Final entropy term                ...      0.03831879 Eh     24.05 kcal/mol

CAUTION: The rotational entropy is not quite correctly treated here
         because it includes a symmetry number that is not yet correctly
         implemented in ORCA!
For a nonlinear molecule the correct rotational entropy is:
    S(rot) = R*(ln(qrot/sn)+1.5)
    R    = 8.31441 J/mol/K = 1.987191683e-3 kcal/mol/K
    qrot = 247829.5480171
    sn is the rotational symmetry number. We have assumed 3 here
       if it is different for your molecule then you should correct
       the printed rotational entropy by manually evaluating the equation
       as given above

For convenience we print out the resulting values for sn=1 - 12:
 sn= 1  qrot/sn=  247829.5480 T*S(rot)=     8.25 kcal/mol T*S(tot)=    24.70 kcal/mol
 sn= 2  qrot/sn=  123914.7740 T*S(rot)=     7.84 kcal/mol T*S(tot)=    24.29 kcal/mol
 sn= 3  qrot/sn=   82609.8493 T*S(rot)=     7.60 kcal/mol T*S(tot)=    24.05 kcal/mol
 sn= 4  qrot/sn=   61957.3870 T*S(rot)=     7.43 kcal/mol T*S(tot)=    23.87 kcal/mol
 sn= 5  qrot/sn=   49565.9096 T*S(rot)=     7.29 kcal/mol T*S(tot)=    23.74 kcal/mol
 sn= 6  qrot/sn=   41304.9247 T*S(rot)=     7.19 kcal/mol T*S(tot)=    23.63 kcal/mol
 sn= 7  qrot/sn=   35404.2211 T*S(rot)=     7.09 kcal/mol T*S(tot)=    23.54 kcal/mol
 sn= 8  qrot/sn=   30978.6935 T*S(rot)=     7.02 kcal/mol T*S(tot)=    23.46 kcal/mol
 sn= 9  qrot/sn=   27536.6164 T*S(rot)=     6.95 kcal/mol T*S(tot)=    23.39 kcal/mol
 sn=10  qrot/sn=   24782.9548 T*S(rot)=     6.88 kcal/mol T*S(tot)=    23.33 kcal/mol
 sn=11  qrot/sn=   22529.9589 T*S(rot)=     6.83 kcal/mol T*S(tot)=    23.28 kcal/mol
 sn=12  qrot/sn=   20652.4623 T*S(rot)=     6.78 kcal/mol T*S(tot)=    23.22 kcal/mol

-------------------
GIBBS FREE ENTHALPY
-------------------

The Gibbs free enthalpy is G = H - T*S

Total enthalpy                    ...   -341.80184037 Eh
Total entropy correction          ...     -0.03831879 Eh    -24.05 kcal/mol
-----------------------------------------------------------------------
Final Gibbs free enthalpy         ...   -341.84015916 Eh

For completeness - the Gibbs free enthalpy minus the electronic energy
G-E(el)                           ...      0.10510771 Eh     65.96 kcal/mol

                             ****ORCA TERMINATED NORMALLY****
TOTAL RUN TIME: 0 days 0 hours 40 minutes 6 seconds 55 msec
