                         Program Version 3.0.3 - RELEASE   -
|  1> ! NORI PBE0 def2-TZVP UseSym TightOPT Freq TightSCF Grid3 FinalGrid5 XYZFile
|  2> % pal
|  3>     nprocs 8
|  4> end
|  5> %method
|  6>     SymThresh 5.0e-2
|  7> end
|  8> % geom
|  9>     MaxIter 10
| 10> end
| 11> % maxcore 2000
| 12> % output
| 13>     printlevel mini
| 14>     print[ P_Basis ] 0
| 15>     print[ P_SCFInfo ] 1
| 16>     print[ P_SCFIterInfo ] 1
| 17>     print[ P_OrbEn ] 0
| 18>     print[ P_Cartesian ] 0
| 19> end
| 20> % elprop
| 21>     Dipole false
| 22> end
| 23> *xyz 1 1
| 24>  C        0.3228851769    -0.3133064698    -0.3426501684
| 25>  C        1.5611592449     0.3585706985     0.2416486791
| 26>  C        2.7683329751    -0.4831723117    -0.0448367366
| 27>  O        3.9885377483     0.2498584617     0.4706706642
| 28>  C        4.7593421352    -0.2984767997     1.2610267430
| 29>  N        5.8337018329    -0.0546449396     2.0006513808
| 30>  N        5.0383221828    -1.4150391823     1.9399617913
| 31>  H       -0.5546486493     0.2995872228    -0.1375456702
| 32>  H        0.1484278361    -1.2970465226     0.0981478336
| 33>  H        0.4007422467    -0.4300289032    -1.4256150739
| 34>  H        1.4489862703     0.4865385821     1.3214924626
| 35>  H        1.6999820303     1.3487117359    -0.1990396109
| 36>  H        2.9783684482    -0.5925131451    -1.1082128619
| 37>  H        2.7525842758    -1.4560678420     0.4491069943
| 38>  H        6.7289269122    -0.0174140917     1.5029877448
| 39>  H        5.4712693336    -2.1649264931     1.3905158282
| 40> *
| 41>
| 42>                          ****END OF INPUT****
 Total Charge           Charge          ....    1
 Multiplicity           Mult            ....    1
 Number of Electrons    NEL             ....   54
FINAL SINGLE POINT ENERGY      -341.926998317973

CARTESIAN COORDINATES (ANGSTROEM)
---------------------------------
  C     -2.859966   -0.511652   -1.634060
  C     -1.794168   -0.863983   -0.601884
  C     -0.991209    0.359302   -0.275916
  O      0.000601   -0.001460    0.809370
  C      1.205119    0.205865    0.648963
  N      2.379886    0.000251    1.230751
  N      2.145074    0.693490   -0.166056
  H     -3.446186   -1.399484   -1.869843
  H     -2.419133   -0.150126   -2.565540
  H     -3.547093    0.249924   -1.259695
  H     -1.134738   -1.645067   -0.989416
  H     -2.259674   -1.242966    0.311220
  H     -1.578637    1.154180    0.182101
  H     -0.411969    0.741459   -1.118421
  H      2.609072    0.612379    2.020277
  H      2.225046    1.715805   -0.179617

FINAL SINGLE POINT ENERGY      -341.926999073857
                    ***********************HURRAY********************
 Multiplicity           Mult            ....    1
 Number of Electrons    NEL             ....   54
 Basis Dimension        Dim             ....  271
FINAL SINGLE POINT ENERGY      -341.926999722387

VIBRATIONAL FREQUENCIES
-----------------------

   0:         0.00 cm**-1
   1:         0.00 cm**-1
   2:         0.00 cm**-1
   3:         0.00 cm**-1
   4:         0.00 cm**-1
   5:         0.00 cm**-1
   6:        31.92 cm**-1
   7:        83.71 cm**-1
   8:       122.16 cm**-1
   9:       216.69 cm**-1
  10:       229.69 cm**-1
  11:       283.15 cm**-1
  12:       362.40 cm**-1
  13:       493.75 cm**-1
  14:       551.60 cm**-1
  15:       642.30 cm**-1
  16:       692.14 cm**-1
  17:       767.87 cm**-1
  18:       802.20 cm**-1
  19:       897.42 cm**-1
  20:       925.13 cm**-1
  21:       967.62 cm**-1
  22:      1046.77 cm**-1
  23:      1092.68 cm**-1
  24:      1096.85 cm**-1
  25:      1116.57 cm**-1
  26:      1151.00 cm**-1
  27:      1191.26 cm**-1
  28:      1273.68 cm**-1
  29:      1324.39 cm**-1
  30:      1329.24 cm**-1
  31:      1391.67 cm**-1
  32:      1418.90 cm**-1
  33:      1429.39 cm**-1
  34:      1481.47 cm**-1
  35:      1485.74 cm**-1
  36:      1492.53 cm**-1
  37:      1505.78 cm**-1
  38:      1921.61 cm**-1
  39:      3062.46 cm**-1
  40:      3070.55 cm**-1
  41:      3095.24 cm**-1
  42:      3114.10 cm**-1
  43:      3140.66 cm**-1
  44:      3157.24 cm**-1
  45:      3175.59 cm**-1
  46:      3432.15 cm**-1
  47:      3451.11 cm**-1

IR SPECTRUM
-----------

 Mode    freq (cm**-1)   T**2         TX         TY         TZ
-------------------------------------------------------------------
   7:        83.71    1.153234  (  0.055384  -0.367915   1.007375)
   8:       122.16    9.248982  ( -1.283935   1.023580  -2.559839)
   9:       216.69    7.442600  ( -2.297528   1.169793  -0.891936)
  10:       229.69    0.496387  (  0.601639  -0.362337   0.055945)
  11:       283.15    1.421666  (  0.200576  -1.171775  -0.091532)
  12:       362.40    1.623597  ( -0.044630   0.451106   1.190844)
  13:       493.75   77.694650  ( -7.552686  -4.542288  -0.138555)
  14:       551.60   41.476169  (  3.974652  -2.094683   4.614175)
  15:       642.30   30.559956  ( -0.339294  -2.980963   4.643134)
  16:       692.14  123.904349  ( -1.888006   4.823297  -9.852695)
  17:       767.87    3.788421  ( -0.331643   0.252959   1.901169)
  18:       802.20  123.894286  ( -9.059718   1.522584  -6.284707)
  19:       897.42    6.415354  (  1.471538   0.201091   2.051705)
  20:       925.13   20.168201  (  3.482706   2.391324   1.523328)
  21:       967.62   38.529823  (  5.593217  -2.437353  -1.142392)
  22:      1046.77   17.534953  ( -3.623062  -0.586590  -2.016007)
  23:      1092.68   91.023341  (  9.007843   0.321193  -3.127130)
  24:      1096.85   42.200579  ( -2.076134   2.319429  -5.701797)
  25:      1116.57  122.109704  ( 10.887876   1.196604   1.460137)
  26:      1151.00    1.683097  ( -1.054673  -0.620196   0.431415)
  27:      1191.26   10.053596  ( -3.089538  -0.458090   0.546357)
  28:      1273.68    2.787035  ( -1.546962   0.066916   0.624071)
  29:      1324.39    1.186876  (  0.510895   0.957449   0.095672)
  30:      1329.24    7.216273  ( -2.495994  -0.796282   0.593484)
  31:      1391.67   35.895855  (  5.760788   1.336867   0.960191)
  32:      1418.90    9.895811  (  2.798931  -0.172961   1.425440)
  33:      1429.39    6.144160  ( -0.896786  -1.431119   1.814341)
  34:      1481.47   12.884851  ( -2.863287  -2.149782  -0.254712)
  35:      1485.74    1.140694  ( -0.354152   0.026443  -1.007259)
  36:      1492.53   12.869097  (  2.162093  -0.813494  -2.744573)
  37:      1505.78   16.768873  ( -1.265099  -3.852410   0.572132)
  38:      1921.61  634.082560  (-24.729919  -3.644832  -3.037902)
  39:      3062.46    3.296514  (  0.712593  -1.092039   1.263399)
  40:      3070.55    9.016539  ( -2.027664   1.614540  -1.516040)
  41:      3095.24    5.283434  (  0.744116   1.964296  -0.933416)
  42:      3114.10    0.053504  (  0.183670   0.045657  -0.132984)
  43:      3140.66   11.482084  (  2.193444  -0.754639  -2.470102)
  44:      3157.24    2.639696  ( -0.035055   1.587519  -0.343876)
  45:      3175.59    0.794294  (  0.616999   0.011365  -0.643022)
  46:      3432.15   80.796690  ( -0.761757  -6.344840   6.321347)
  47:      3451.11  178.338261  (  7.737216   7.927483   7.458469)

--------------------------
THERMOCHEMISTRY AT 298.15K
--------------------------

Temperature         ... 298.15 K
Pressure            ... 1.00 atm
Total Mass          ... 101.13 AMU

Throughout the following assumptions are being made:
  (1) The electronic state is orbitally nondegenerate
  (2) There are no thermally accessible electronically excited states
  (3) Hindered rotations indicated by low frequency modes) are not
      treated as such but are treated as vibrations and this may
      case some error
  (4) All equations used are the standard statistical mechanics
      equations for an ideal gas
  (5) All vibrations are strinctly harmonic

------------
INNER ENERGY
------------

The inner energy is: U= E(el) + E(ZPE) + E(vib) + E(rot) + E(trans)
    E(el)   - is the total energy from the electronic structure calculation
              = E(kin-el) + E(nuc-el) + E(el-el) + E(nuc-nuc)
    E(ZPE)  - the the zero temperature vibrational energy from the frequency calculation
    E(vib)  - the the finite temperature correction to E(ZPE) due to population
              of excietd vibrational states
    E(rot)  - is the rotational thermal energy
    E(trans)- is the translational thermal energy

Summary of contributions to the inner energy U:
Electronic energy                ...   -341.92699972 Eh
Zero point energy                ...      0.13552012 Eh      85.04 kcal/mol
Thermal vibrational correction   ...      0.00450006 Eh       2.82 kcal/mol
Thermal rotational correction    ...      0.00141627 Eh       0.89 kcal/mol
Thermal translational correction ...      0.00141627 Eh       0.89 kcal/mol
-----------------------------------------------------------------------
Total thermal energy                   -341.78414700 Eh

Summary of corrections to the electronic energy:
(perhaps to be used in another calculation)
Total thermal correction                  0.00733260 Eh       4.60 kcal/mol
Non-thermal (ZPE) correction              0.13552012 Eh      85.04 kcal/mol
-----------------------------------------------------------------------
Total correction                          0.14285273 Eh      89.64 kcal/mol

--------
ENTHALPY
--------

The enthalpy is H = U + kB*T
                kB is Boltzmann's constant
Total free energy                 ...   -341.78414700 Eh
Thermal Enthalpy correction       ...      0.00094421 Eh       0.59 kcal/mol
-----------------------------------------------------------------------
Total Enthalpy                    ...   -341.78320279 Eh

-------
ENTROPY
-------

The entropy contributions are T*S = T*(S(el)+S(vib)+S(rot)+S(trans)
     S(el)   - electronic entropy
     S(vib)  - vibrational entropy
     S(rot)  - rotational entropy
     S(trans)- translational entropy
The entropies will be listed as mutliplied by the temperature to get
units of energy

Electronic entropy                ...      0.00000000 Eh      0.00 kcal/mol
Vibrational entropy               ...      0.00790028 Eh      4.96 kcal/mol
Rotational entropy                ...      0.01213516 Eh      7.61 kcal/mol
Translational entropy             ...      0.01888714 Eh     11.85 kcal/mol
-----------------------------------------------------------------------
Final entropy term                ...      0.03892258 Eh     24.42 kcal/mol

CAUTION: The rotational entropy is not quite correctly treated here
         because it includes a symmetry number that is not yet correctly
         implemented in ORCA!
For a nonlinear molecule the correct rotational entropy is:
    S(rot) = R*(ln(qrot/sn)+1.5)
    R    = 8.31441 J/mol/K = 1.987191683e-3 kcal/mol/K
    qrot = 255553.1873326
    sn is the rotational symmetry number. We have assumed 3 here
       if it is different for your molecule then you should correct
       the printed rotational entropy by manually evaluating the equation
       as given above

For convenience we print out the resulting values for sn=1 - 12:
 sn= 1  qrot/sn=  255553.1873 T*S(rot)=     8.27 kcal/mol T*S(tot)=    25.08 kcal/mol
 sn= 2  qrot/sn=  127776.5937 T*S(rot)=     7.86 kcal/mol T*S(tot)=    24.66 kcal/mol
 sn= 3  qrot/sn=   85184.3958 T*S(rot)=     7.61 kcal/mol T*S(tot)=    24.42 kcal/mol
 sn= 4  qrot/sn=   63888.2968 T*S(rot)=     7.44 kcal/mol T*S(tot)=    24.25 kcal/mol
 sn= 5  qrot/sn=   51110.6375 T*S(rot)=     7.31 kcal/mol T*S(tot)=    24.12 kcal/mol
 sn= 6  qrot/sn=   42592.1979 T*S(rot)=     7.20 kcal/mol T*S(tot)=    24.01 kcal/mol
 sn= 7  qrot/sn=   36507.5982 T*S(rot)=     7.11 kcal/mol T*S(tot)=    23.92 kcal/mol
 sn= 8  qrot/sn=   31944.1484 T*S(rot)=     7.03 kcal/mol T*S(tot)=    23.84 kcal/mol
 sn= 9  qrot/sn=   28394.7986 T*S(rot)=     6.96 kcal/mol T*S(tot)=    23.77 kcal/mol
 sn=10  qrot/sn=   25555.3187 T*S(rot)=     6.90 kcal/mol T*S(tot)=    23.71 kcal/mol
 sn=11  qrot/sn=   23232.1079 T*S(rot)=     6.85 kcal/mol T*S(tot)=    23.65 kcal/mol
 sn=12  qrot/sn=   21296.0989 T*S(rot)=     6.79 kcal/mol T*S(tot)=    23.60 kcal/mol

-------------------
GIBBS FREE ENTHALPY
-------------------

The Gibbs free enthalpy is G = H - T*S

Total enthalpy                    ...   -341.78320279 Eh
Total entropy correction          ...     -0.03892258 Eh    -24.42 kcal/mol
-----------------------------------------------------------------------
Final Gibbs free enthalpy         ...   -341.82212537 Eh

For completeness - the Gibbs free enthalpy minus the electronic energy
G-E(el)                           ...      0.10487435 Eh     65.81 kcal/mol

                             ****ORCA TERMINATED NORMALLY****
TOTAL RUN TIME: 0 days 0 hours 31 minutes 7 seconds 617 msec
