                         Program Version 3.0.3 - RELEASE   -
|  1> ! NORI PBE0 def2-TZVP UseSym TightOPT Freq TightSCF Grid3 FinalGrid5 XYZFile
|  2> % pal
|  3>     nprocs 8
|  4> end
|  5> %method
|  6>     SymThresh 5.0e-2
|  7> end
|  8> % geom
|  9>     MaxIter 10
| 10> end
| 11> % maxcore 2000
| 12> % output
| 13>     printlevel mini
| 14>     print[ P_Basis ] 0
| 15>     print[ P_SCFInfo ] 1
| 16>     print[ P_SCFIterInfo ] 1
| 17>     print[ P_OrbEn ] 0
| 18>     print[ P_Cartesian ] 0
| 19> end
| 20> % elprop
| 21>     Dipole false
| 22> end
| 23> *xyz 1 1
| 24>  C        0.4229931899     0.5277079642     0.6111842272
| 25>  C        1.6820126598    -0.0522972548     0.0060033793
| 26>  C        2.8968215031     0.8320567535     0.2031348112
| 27>  O        4.0015293323     0.1823661568    -0.3688955196
| 28>  N        1.9548941091    -1.3896451342     0.6031670469
| 29>  C        1.2750868749    -2.6080460870     0.1140280612
| 30>  C        2.7165909018    -2.4300722912    -0.1164247384
| 31>  H        0.1938611173     1.4801581696     0.1322894360
| 32>  H        0.5396380413     0.7139787455     1.6817723067
| 33>  H       -0.4343729598    -0.1306719590     0.4629167685
| 34>  H        1.5539334303    -0.2410566094    -1.0637656188
| 35>  H        2.6814487156     1.7932795320    -0.2771763725
| 36>  H        3.0472151625     1.0256646937     1.2758334545
| 37>  H        4.7617464857     0.7704497739    -0.3756883749
| 38>  H        2.1125979438    -1.3590817748     1.6064279364
| 39>  H        0.9301545919    -3.2806429863     0.8887218494
| 40>  H        0.5842589989    -2.4220459750    -0.6983371274
| 41>  H        3.0709691616    -2.1103748373    -1.0858312385
| 42>  H        3.4282607401    -2.9695468801     0.4943297127
| 43> *
| 44>
| 45>                          ****END OF INPUT****
 Total Charge           Charge          ....    1
 Multiplicity           Mult            ....    1
 Number of Electrons    NEL             ....   56
FINAL SINGLE POINT ENERGY      -327.197525558398
FINAL SINGLE POINT ENERGY      -327.197527068474

CARTESIAN COORDINATES (ANGSTROEM)
---------------------------------
  C     -1.508726   -1.032370   -1.164092
  C     -0.759051   -0.205711   -0.143389
  C     -0.741743   -0.838383    1.233431
  O      0.000745   -0.005104    2.084102
  N      0.644243    0.000682   -0.598323
  C      0.994367    1.054208   -1.574320
  C      1.440776    1.170843   -0.178124
  H     -2.549607   -1.135836   -0.855473
  H     -1.088018   -2.037140   -1.255206
  H     -1.501918   -0.560666   -2.147897
  H     -1.181167    0.800264   -0.063906
  H     -1.783948   -0.943823    1.556403
  H     -0.311272   -1.849431    1.173586
  H     -0.076418   -0.309895    2.992380
  H      1.168841   -0.864115   -0.693619
  H      1.694094    0.750877   -2.341964
  H      0.144707    1.636775   -1.907272
  H      0.915669    1.827032    0.501419
  H      2.468214    0.947996    0.077096

FINAL SINGLE POINT ENERGY      -327.197527875944
                    ***********************HURRAY********************
 Multiplicity           Mult            ....    1
 Number of Electrons    NEL             ....   56
 Basis Dimension        Dim             ....  289
FINAL SINGLE POINT ENERGY      -327.197528191536

VIBRATIONAL FREQUENCIES
-----------------------

   0:         0.00 cm**-1
   1:         0.00 cm**-1
   2:         0.00 cm**-1
   3:         0.00 cm**-1
   4:         0.00 cm**-1
   5:         0.00 cm**-1
   6:        82.43 cm**-1
   7:       134.06 cm**-1
   8:       199.33 cm**-1
   9:       211.66 cm**-1
  10:       253.75 cm**-1
  11:       289.49 cm**-1
  12:       306.34 cm**-1
  13:       380.16 cm**-1
  14:       454.12 cm**-1
  15:       538.44 cm**-1
  16:       742.59 cm**-1
  17:       806.97 cm**-1
  18:       870.82 cm**-1
  19:       905.24 cm**-1
  20:       929.44 cm**-1
  21:       965.38 cm**-1
  22:       986.68 cm**-1
  23:      1067.46 cm**-1
  24:      1103.04 cm**-1
  25:      1132.74 cm**-1
  26:      1147.14 cm**-1
  27:      1151.70 cm**-1
  28:      1159.93 cm**-1
  29:      1176.07 cm**-1
  30:      1208.76 cm**-1
  31:      1214.94 cm**-1
  32:      1257.68 cm**-1
  33:      1277.84 cm**-1
  34:      1289.73 cm**-1
  35:      1332.02 cm**-1
  36:      1378.60 cm**-1
  37:      1421.77 cm**-1
  38:      1456.76 cm**-1
  39:      1461.33 cm**-1
  40:      1481.05 cm**-1
  41:      1486.64 cm**-1
  42:      1491.71 cm**-1
  43:      1511.97 cm**-1
  44:      1520.27 cm**-1
  45:      2999.91 cm**-1
  46:      3062.03 cm**-1
  47:      3066.33 cm**-1
  48:      3090.70 cm**-1
  49:      3141.49 cm**-1
  50:      3155.58 cm**-1
  51:      3172.30 cm**-1
  52:      3185.75 cm**-1
  53:      3271.69 cm**-1
  54:      3289.01 cm**-1
  55:      3532.30 cm**-1
  56:      3867.38 cm**-1

IR SPECTRUM
-----------

 Mode    freq (cm**-1)   T**2         TX         TY         TZ
-------------------------------------------------------------------
   6:        82.43    2.382598  ( -0.721212   0.951744   0.978077)
   7:       134.06    7.026381  ( -1.945149   1.057732   1.457387)
   8:       199.33    4.267944  (  1.113843  -0.960956   1.450470)
   9:       211.66    1.003722  (  0.577943  -0.722961   0.383448)
  10:       253.75    4.382291  (  0.742592   0.251286  -1.941057)
  11:       289.49   89.865190  (  7.500954  -5.727849  -0.890294)
  12:       306.34   40.554394  ( -5.215735   3.239173   1.690640)
  13:       380.16    6.637101  ( -1.142626  -1.415007  -1.824627)
  14:       454.12    2.709577  (  1.130468   1.196059  -0.032591)
  15:       538.44    8.380581  ( -1.046614  -0.988910  -2.511421)
  16:       742.59    0.564566  ( -0.415264  -0.202171  -0.592662)
  17:       806.97    1.654104  (  0.616536  -1.028500  -0.464945)
  18:       870.82    1.404805  (  0.032316  -0.057089   1.183428)
  19:       905.24    7.689653  ( -0.079583  -2.082498   1.829351)
  20:       929.44    8.347569  ( -1.663852   0.705921  -2.254072)
  21:       965.38   22.659943  (  1.413161   1.659548   4.231881)
  22:       986.68   48.020063  (  3.594552   5.213172  -2.814622)
  23:      1067.46   35.184499  (  4.667559   3.646438   0.319190)
  24:      1103.04   62.562757  ( -4.505325  -4.596088  -4.597910)
  25:      1132.74    8.594795  (  0.274331   1.517717   2.493206)
  26:      1147.14   21.317104  ( -0.855572  -0.178822  -4.533555)
  27:      1151.70    0.810527  (  0.729192  -0.406113  -0.337458)
  28:      1159.93   10.557496  ( -2.401099  -2.186222  -0.112491)
  29:      1176.07    1.766041  (  0.946100   0.685713   0.633035)
  30:      1208.76    4.087899  ( -0.953260  -1.115304   1.391148)
  31:      1214.94   11.230406  (  2.002846   1.334101   2.332207)
  32:      1257.68   27.811746  (  1.236369   3.250080   3.964860)
  33:      1277.84   20.607405  (  1.877680   4.103616   0.491999)
  34:      1289.73    4.801389  ( -1.999615  -0.661762  -0.604153)
  35:      1332.02   12.699585  ( -2.186541  -2.384286  -1.494592)
  36:      1378.60    5.757733  ( -0.953393   2.195336   0.171089)
  37:      1421.77   10.344467  (  1.928088   1.833464   1.807028)
  38:      1456.76   36.956443  ( -3.720348  -4.261010   2.226935)
  39:      1461.33   16.337682  (  2.742601   2.043533  -2.154018)
  40:      1481.05   15.851210  (  1.866618   0.405438   3.493217)
  41:      1486.64   12.401317  ( -2.313756   2.625033   0.396298)
  42:      1491.71    2.150384  ( -0.897156   0.362856  -1.101739)
  43:      1511.97    4.663556  (  0.167135   0.942326  -1.935883)
  44:      1520.27    7.038714  ( -2.606017   0.455801  -0.199084)
  45:      2999.91   27.695454  ( -0.272591  -4.899105  -1.902609)
  46:      3062.03    4.467191  (  1.742877  -0.760412  -0.922684)
  47:      3066.33    8.739356  ( -2.868844  -0.489285  -0.519315)
  48:      3090.70    3.006302  ( -0.435097   1.621272   0.434129)
  49:      3141.49    5.445858  ( -0.692618   2.031238  -0.916630)
  50:      3155.58    1.982853  (  0.397760   0.210288  -1.334323)
  51:      3172.30    2.145247  (  0.232822   0.531720  -1.344736)
  52:      3185.75    3.249115  ( -0.799383  -0.826747  -1.388017)
  53:      3271.69    1.397127  (  1.049566  -0.538552  -0.074155)
  54:      3289.01    9.677464  ( -2.342627   1.527471   1.362497)
  55:      3532.30   64.227928  (  3.486749  -7.200279  -0.475914)
  56:      3867.38  107.141541  (  0.549360  -1.204783  10.265878)

--------------------------
THERMOCHEMISTRY AT 298.15K
--------------------------

Temperature         ... 298.15 K
Pressure            ... 1.00 atm
Total Mass          ... 102.16 AMU

Throughout the following assumptions are being made:
  (1) The electronic state is orbitally nondegenerate
  (2) There are no thermally accessible electronically excited states
  (3) Hindered rotations indicated by low frequency modes) are not
      treated as such but are treated as vibrations and this may
      case some error
  (4) All equations used are the standard statistical mechanics
      equations for an ideal gas
  (5) All vibrations are strinctly harmonic

------------
INNER ENERGY
------------

The inner energy is: U= E(el) + E(ZPE) + E(vib) + E(rot) + E(trans)
    E(el)   - is the total energy from the electronic structure calculation
              = E(kin-el) + E(nuc-el) + E(el-el) + E(nuc-nuc)
    E(ZPE)  - the the zero temperature vibrational energy from the frequency calculation
    E(vib)  - the the finite temperature correction to E(ZPE) due to population
              of excietd vibrational states
    E(rot)  - is the rotational thermal energy
    E(trans)- is the translational thermal energy

Summary of contributions to the inner energy U:
Electronic energy                ...   -327.19752819 Eh
Zero point energy                ...      0.17455429 Eh     109.53 kcal/mol
Thermal vibrational correction   ...      0.00535856 Eh       3.36 kcal/mol
Thermal rotational correction    ...      0.00141627 Eh       0.89 kcal/mol
Thermal translational correction ...      0.00141627 Eh       0.89 kcal/mol
-----------------------------------------------------------------------
Total thermal energy                   -327.01478280 Eh

Summary of corrections to the electronic energy:
(perhaps to be used in another calculation)
Total thermal correction                  0.00819110 Eh       5.14 kcal/mol
Non-thermal (ZPE) correction              0.17455429 Eh     109.53 kcal/mol
-----------------------------------------------------------------------
Total correction                          0.18274539 Eh     114.67 kcal/mol

--------
ENTHALPY
--------

The enthalpy is H = U + kB*T
                kB is Boltzmann's constant
Total free energy                 ...   -327.01478280 Eh
Thermal Enthalpy correction       ...      0.00094421 Eh       0.59 kcal/mol
-----------------------------------------------------------------------
Total Enthalpy                    ...   -327.01383859 Eh

-------
ENTROPY
-------

The entropy contributions are T*S = T*(S(el)+S(vib)+S(rot)+S(trans)
     S(el)   - electronic entropy
     S(vib)  - vibrational entropy
     S(rot)  - rotational entropy
     S(trans)- translational entropy
The entropies will be listed as mutliplied by the temperature to get
units of energy

Electronic entropy                ...      0.00000000 Eh      0.00 kcal/mol
Vibrational entropy               ...      0.00932593 Eh      5.85 kcal/mol
Rotational entropy                ...      0.01211971 Eh      7.61 kcal/mol
Translational entropy             ...      0.01890147 Eh     11.86 kcal/mol
-----------------------------------------------------------------------
Final entropy term                ...      0.04034711 Eh     25.32 kcal/mol

CAUTION: The rotational entropy is not quite correctly treated here
         because it includes a symmetry number that is not yet correctly
         implemented in ORCA!
For a nonlinear molecule the correct rotational entropy is:
    S(rot) = R*(ln(qrot/sn)+1.5)
    R    = 8.31441 J/mol/K = 1.987191683e-3 kcal/mol/K
    qrot = 251407.8951351
    sn is the rotational symmetry number. We have assumed 3 here
       if it is different for your molecule then you should correct
       the printed rotational entropy by manually evaluating the equation
       as given above

For convenience we print out the resulting values for sn=1 - 12:
 sn= 1  qrot/sn=  251407.8951 T*S(rot)=     8.26 kcal/mol T*S(tot)=    25.97 kcal/mol
 sn= 2  qrot/sn=  125703.9476 T*S(rot)=     7.85 kcal/mol T*S(tot)=    25.56 kcal/mol
 sn= 3  qrot/sn=   83802.6317 T*S(rot)=     7.61 kcal/mol T*S(tot)=    25.32 kcal/mol
 sn= 4  qrot/sn=   62851.9738 T*S(rot)=     7.43 kcal/mol T*S(tot)=    25.15 kcal/mol
 sn= 5  qrot/sn=   50281.5790 T*S(rot)=     7.30 kcal/mol T*S(tot)=    25.02 kcal/mol
 sn= 6  qrot/sn=   41901.3159 T*S(rot)=     7.19 kcal/mol T*S(tot)=    24.91 kcal/mol
 sn= 7  qrot/sn=   35915.4136 T*S(rot)=     7.10 kcal/mol T*S(tot)=    24.82 kcal/mol
 sn= 8  qrot/sn=   31425.9869 T*S(rot)=     7.02 kcal/mol T*S(tot)=    24.74 kcal/mol
 sn= 9  qrot/sn=   27934.2106 T*S(rot)=     6.95 kcal/mol T*S(tot)=    24.67 kcal/mol
 sn=10  qrot/sn=   25140.7895 T*S(rot)=     6.89 kcal/mol T*S(tot)=    24.60 kcal/mol
 sn=11  qrot/sn=   22855.2632 T*S(rot)=     6.84 kcal/mol T*S(tot)=    24.55 kcal/mol
 sn=12  qrot/sn=   20950.6579 T*S(rot)=     6.78 kcal/mol T*S(tot)=    24.50 kcal/mol

-------------------
GIBBS FREE ENTHALPY
-------------------

The Gibbs free enthalpy is G = H - T*S

Total enthalpy                    ...   -327.01383859 Eh
Total entropy correction          ...     -0.04034711 Eh    -25.32 kcal/mol
-----------------------------------------------------------------------
Final Gibbs free enthalpy         ...   -327.05418570 Eh

For completeness - the Gibbs free enthalpy minus the electronic energy
G-E(el)                           ...      0.14334249 Eh     89.95 kcal/mol

                             ****ORCA TERMINATED NORMALLY****
TOTAL RUN TIME: 0 days 0 hours 54 minutes 51 seconds 77 msec
