                         Program Version 3.0.3 - RELEASE   -
|  1> ! NORI PBE0 def2-TZVP UseSym TightOPT Freq TightSCF Grid3 FinalGrid5 XYZFile
|  2> % pal
|  3>     nprocs 8
|  4> end
|  5> %method
|  6>     SymThresh 5.0e-2
|  7> end
|  8> % geom
|  9>     MaxIter 10
| 10> end
| 11> % maxcore 2000
| 12> % output
| 13>     printlevel mini
| 14>     print[ P_Basis ] 0
| 15>     print[ P_SCFInfo ] 1
| 16>     print[ P_SCFIterInfo ] 1
| 17>     print[ P_OrbEn ] 0
| 18>     print[ P_Cartesian ] 0
| 19> end
| 20> % elprop
| 21>     Dipole false
| 22> end
| 23> *xyz 1 1
| 24>  C        1.0487760180     0.1050629404    -0.2829541663
| 25>  C        2.5429032271     0.1539331716    -0.0245926404
| 26>  C        2.9342370207     1.5961099047     0.2851867536
| 27>  O        3.3916191031     2.3215507538    -0.5390858517
| 28>  N        2.9638217395    -0.7238946608     1.1302013705
| 29>  C        2.5190223606    -2.1379242792     0.9888223003
| 30>  C        4.4379995398    -0.6577221000     1.3419842853
| 31>  H        0.8178626111     0.8229081349    -1.0718344500
| 32>  H        0.4708921594     0.3882692844     0.6019545212
| 33>  H        0.7179307370    -0.8737157851    -0.6294239854
| 34>  H        3.1132615102    -0.1833187163    -0.8924411110
| 35>  H        2.7065082675     1.9462472506     1.3189684788
| 36>  H        2.5143238654    -0.3484936703     1.9694645462
| 37>  H        2.9088929685    -2.5312602630     0.0512043340
| 38>  H        1.4334600965    -2.1849617467     0.9947898189
| 39>  H        2.9172626899    -2.7106951972     1.8242957494
| 40>  H        4.9296984361    -1.0759839874     0.4650230335
| 41>  H        4.6957373171    -1.2363798230     2.2271895947
| 42>  H        4.7445403327     0.3785087888     1.4760474185
| 43> *
| 44>
| 45>                          ****END OF INPUT****
 Total Charge           Charge          ....    1
 Multiplicity           Mult            ....    1
 Number of Electrons    NEL             ....   56
FINAL SINGLE POINT ENERGY      -327.199822343745

CARTESIAN COORDINATES (ANGSTROEM)
---------------------------------
  C     -1.752187   -0.790063   -0.099266
  C     -0.512048    0.039768    0.175053
  C      0.161815   -0.498192    1.434258
  O      0.001314   -0.001014    2.502838
  N      0.480595    0.000176   -0.963092
  C     -0.109427    0.386606   -2.274897
  C      1.675335    0.838821   -0.659391
  H     -2.374582   -0.775342    0.796962
  H     -1.506506   -1.834104   -0.314548
  H     -2.351003   -0.386554   -0.915345
  H     -0.758030    1.091643    0.333611
  H      0.765151   -1.426245    1.299507
  H      0.797628   -0.969198   -1.048660
  H     -0.539355    1.382744   -2.180875
  H     -0.875410   -0.329295   -2.559401
  H      0.682920    0.394348   -3.021385
  H      1.356195    1.877454   -0.588321
  H      2.402015    0.724633   -1.461610
  H      2.115732    0.524124    0.285489

FINAL SINGLE POINT ENERGY      -327.199823176275
                    ***********************HURRAY********************
 Multiplicity           Mult            ....    1
 Number of Electrons    NEL             ....   56
 Basis Dimension        Dim             ....  289
FINAL SINGLE POINT ENERGY      -327.199822981145

VIBRATIONAL FREQUENCIES
-----------------------

   0:         0.00 cm**-1
   1:         0.00 cm**-1
   2:         0.00 cm**-1
   3:         0.00 cm**-1
   4:         0.00 cm**-1
   5:         0.00 cm**-1
   6:        55.11 cm**-1
   7:        82.10 cm**-1
   8:       198.15 cm**-1
   9:       212.22 cm**-1
  10:       226.77 cm**-1
  11:       270.26 cm**-1
  12:       293.55 cm**-1
  13:       343.44 cm**-1
  14:       380.02 cm**-1
  15:       423.92 cm**-1
  16:       484.04 cm**-1
  17:       531.90 cm**-1
  18:       824.20 cm**-1
  19:       889.82 cm**-1
  20:       933.04 cm**-1
  21:       963.25 cm**-1
  22:      1019.00 cm**-1
  23:      1040.36 cm**-1
  24:      1047.41 cm**-1
  25:      1095.78 cm**-1
  26:      1136.56 cm**-1
  27:      1188.30 cm**-1
  28:      1217.52 cm**-1
  29:      1250.44 cm**-1
  30:      1303.12 cm**-1
  31:      1346.79 cm**-1
  32:      1405.23 cm**-1
  33:      1410.59 cm**-1
  34:      1417.07 cm**-1
  35:      1425.35 cm**-1
  36:      1442.48 cm**-1
  37:      1470.28 cm**-1
  38:      1473.55 cm**-1
  39:      1484.12 cm**-1
  40:      1485.76 cm**-1
  41:      1495.90 cm**-1
  42:      1499.16 cm**-1
  43:      1511.74 cm**-1
  44:      1876.89 cm**-1
  45:      2875.23 cm**-1
  46:      3060.05 cm**-1
  47:      3087.18 cm**-1
  48:      3093.29 cm**-1
  49:      3116.53 cm**-1
  50:      3143.68 cm**-1
  51:      3160.01 cm**-1
  52:      3185.72 cm**-1
  53:      3187.00 cm**-1
  54:      3191.99 cm**-1
  55:      3207.81 cm**-1
  56:      3431.52 cm**-1

IR SPECTRUM
-----------

 Mode    freq (cm**-1)   T**2         TX         TY         TZ
-------------------------------------------------------------------
   6:        55.11    6.466349  ( -1.673641  -1.860137   0.452951)
   7:        82.10    5.252788  (  2.045417   0.431296  -0.939702)
   8:       198.15    0.559660  (  0.180735  -0.695758  -0.207163)
   9:       212.22    1.319743  ( -0.405298   1.046248  -0.246663)
  10:       226.77    1.107601  ( -0.731498   0.740885  -0.153625)
  11:       270.26    0.479669  (  0.111770   0.669098   0.139588)
  12:       293.55    5.502073  ( -1.881759   1.346410  -0.385016)
  13:       343.44    0.290212  (  0.380633   0.212124   0.316755)
  14:       380.02    1.308848  (  0.169562   0.231018   1.107577)
  15:       423.92    1.112303  ( -0.159801  -0.629635  -0.830859)
  16:       484.04    2.973000  ( -1.329526   0.786728  -0.765781)
  17:       531.90    5.911547  ( -0.932202   1.218945  -1.885927)
  18:       824.20    1.205839  (  0.309879   0.312452  -1.006075)
  19:       889.82   38.759769  ( -1.560568   3.123687  -5.154316)
  20:       933.04    6.965759  (  2.304051   1.287030  -0.025742)
  21:       963.25    6.564423  ( -2.449576  -0.350932   0.663964)
  22:      1019.00   18.711534  (  3.912647   0.858637   1.632626)
  23:      1040.36   41.846499  ( -1.707181  -0.958712   6.165461)
  24:      1047.41    1.330048  ( -1.075651  -0.332310  -0.250185)
  25:      1095.78    3.707901  (  0.670697  -0.928645   1.547800)
  26:      1136.56    2.841107  (  1.672857  -0.187304  -0.087026)
  27:      1188.30    1.791711  ( -0.126464  -1.329066   0.096446)
  28:      1217.52    1.813012  ( -0.655222   0.428046  -1.095661)
  29:      1250.44    0.075118  (  0.035855   0.203409   0.180160)
  30:      1303.12    0.394039  (  0.509205   0.173199   0.323653)
  31:      1346.79    2.133643  (  0.913170  -0.677972   0.916580)
  32:      1405.23    1.953324  ( -0.739882  -1.185706   0.000048)
  33:      1410.59   18.395830  (  3.935723   1.694993   0.181433)
  34:      1417.07    7.779734  ( -1.821481  -0.978876   1.871828)
  35:      1425.35   16.472832  ( -1.161413  -1.186364   3.703578)
  36:      1442.48    6.282889  ( -1.466545  -0.701047  -1.908054)
  37:      1470.28   11.799329  ( -0.031463   1.697753  -2.985963)
  38:      1473.55    3.845235  (  1.467567   1.067384   0.743083)
  39:      1484.12   15.906630  ( -0.842839  -3.072943  -2.398598)
  40:      1485.76    3.525706  (  0.650408   0.989448   1.457282)
  41:      1495.90   46.162695  ( -6.063893   2.661453   1.519395)
  42:      1499.16   26.563135  (  0.020968   4.081077  -3.147619)
  43:      1511.74   19.892440  ( -1.973274   2.075427   3.419244)
  44:      1876.89  142.347639  (  0.123437   3.759076  11.322621)
  45:      2875.23   53.243745  (  4.338487  -5.574137  -1.830374)
  46:      3060.05    3.955327  (  0.985006  -0.880621  -1.486471)
  47:      3087.18    0.265334  (  0.265579   0.279790  -0.341350)
  48:      3093.29    0.036977  ( -0.068385  -0.172486  -0.050483)
  49:      3116.53    0.585586  (  0.733382  -0.179639   0.124363)
  50:      3143.68    1.526577  (  0.416216   1.086362  -0.416124)
  51:      3160.01    0.829372  (  0.711722  -0.453292   0.342565)
  52:      3185.72    0.108303  ( -0.318268   0.083661   0.002942)
  53:      3187.00    0.148758  ( -0.092817   0.011337   0.374185)
  54:      3191.99    0.209707  (  0.101628   0.446188  -0.017176)
  55:      3207.81    0.088317  (  0.013814  -0.193852   0.224828)
  56:      3431.52   39.654676  (  2.050114  -5.940147  -0.407877)

--------------------------
THERMOCHEMISTRY AT 298.15K
--------------------------

Temperature         ... 298.15 K
Pressure            ... 1.00 atm
Total Mass          ... 102.16 AMU

Throughout the following assumptions are being made:
  (1) The electronic state is orbitally nondegenerate
  (2) There are no thermally accessible electronically excited states
  (3) Hindered rotations indicated by low frequency modes) are not
      treated as such but are treated as vibrations and this may
      case some error
  (4) All equations used are the standard statistical mechanics
      equations for an ideal gas
  (5) All vibrations are strinctly harmonic

------------
INNER ENERGY
------------

The inner energy is: U= E(el) + E(ZPE) + E(vib) + E(rot) + E(trans)
    E(el)   - is the total energy from the electronic structure calculation
              = E(kin-el) + E(nuc-el) + E(el-el) + E(nuc-nuc)
    E(ZPE)  - the the zero temperature vibrational energy from the frequency calculation
    E(vib)  - the the finite temperature correction to E(ZPE) due to population
              of excietd vibrational states
    E(rot)  - is the rotational thermal energy
    E(trans)- is the translational thermal energy

Summary of contributions to the inner energy U:
Electronic energy                ...   -327.19982298 Eh
Zero point energy                ...      0.17290197 Eh     108.50 kcal/mol
Thermal vibrational correction   ...      0.00602857 Eh       3.78 kcal/mol
Thermal rotational correction    ...      0.00141627 Eh       0.89 kcal/mol
Thermal translational correction ...      0.00141627 Eh       0.89 kcal/mol
-----------------------------------------------------------------------
Total thermal energy                   -327.01805990 Eh

Summary of corrections to the electronic energy:
(perhaps to be used in another calculation)
Total thermal correction                  0.00886111 Eh       5.56 kcal/mol
Non-thermal (ZPE) correction              0.17290197 Eh     108.50 kcal/mol
-----------------------------------------------------------------------
Total correction                          0.18176308 Eh     114.06 kcal/mol

--------
ENTHALPY
--------

The enthalpy is H = U + kB*T
                kB is Boltzmann's constant
Total free energy                 ...   -327.01805990 Eh
Thermal Enthalpy correction       ...      0.00094421 Eh       0.59 kcal/mol
-----------------------------------------------------------------------
Total Enthalpy                    ...   -327.01711569 Eh

-------
ENTROPY
-------

The entropy contributions are T*S = T*(S(el)+S(vib)+S(rot)+S(trans)
     S(el)   - electronic entropy
     S(vib)  - vibrational entropy
     S(rot)  - rotational entropy
     S(trans)- translational entropy
The entropies will be listed as mutliplied by the temperature to get
units of energy

Electronic entropy                ...      0.00000000 Eh      0.00 kcal/mol
Vibrational entropy               ...      0.01104708 Eh      6.93 kcal/mol
Rotational entropy                ...      0.01218464 Eh      7.65 kcal/mol
Translational entropy             ...      0.01890147 Eh     11.86 kcal/mol
-----------------------------------------------------------------------
Final entropy term                ...      0.04213318 Eh     26.44 kcal/mol

CAUTION: The rotational entropy is not quite correctly treated here
         because it includes a symmetry number that is not yet correctly
         implemented in ORCA!
For a nonlinear molecule the correct rotational entropy is:
    S(rot) = R*(ln(qrot/sn)+1.5)
    R    = 8.31441 J/mol/K = 1.987191683e-3 kcal/mol/K
    qrot = 269302.6296879
    sn is the rotational symmetry number. We have assumed 3 here
       if it is different for your molecule then you should correct
       the printed rotational entropy by manually evaluating the equation
       as given above

For convenience we print out the resulting values for sn=1 - 12:
 sn= 1  qrot/sn=  269302.6297 T*S(rot)=     8.30 kcal/mol T*S(tot)=    27.09 kcal/mol
 sn= 2  qrot/sn=  134651.3148 T*S(rot)=     7.89 kcal/mol T*S(tot)=    26.68 kcal/mol
 sn= 3  qrot/sn=   89767.5432 T*S(rot)=     7.65 kcal/mol T*S(tot)=    26.44 kcal/mol
 sn= 4  qrot/sn=   67325.6574 T*S(rot)=     7.48 kcal/mol T*S(tot)=    26.27 kcal/mol
 sn= 5  qrot/sn=   53860.5259 T*S(rot)=     7.34 kcal/mol T*S(tot)=    26.14 kcal/mol
 sn= 6  qrot/sn=   44883.7716 T*S(rot)=     7.24 kcal/mol T*S(tot)=    26.03 kcal/mol
 sn= 7  qrot/sn=   38471.8042 T*S(rot)=     7.14 kcal/mol T*S(tot)=    25.94 kcal/mol
 sn= 8  qrot/sn=   33662.8287 T*S(rot)=     7.06 kcal/mol T*S(tot)=    25.86 kcal/mol
 sn= 9  qrot/sn=   29922.5144 T*S(rot)=     7.00 kcal/mol T*S(tot)=    25.79 kcal/mol
 sn=10  qrot/sn=   26930.2630 T*S(rot)=     6.93 kcal/mol T*S(tot)=    25.73 kcal/mol
 sn=11  qrot/sn=   24482.0572 T*S(rot)=     6.88 kcal/mol T*S(tot)=    25.67 kcal/mol
 sn=12  qrot/sn=   22441.8858 T*S(rot)=     6.82 kcal/mol T*S(tot)=    25.62 kcal/mol

-------------------
GIBBS FREE ENTHALPY
-------------------

The Gibbs free enthalpy is G = H - T*S

Total enthalpy                    ...   -327.01711569 Eh
Total entropy correction          ...     -0.04213318 Eh    -26.44 kcal/mol
-----------------------------------------------------------------------
Final Gibbs free enthalpy         ...   -327.05924887 Eh

For completeness - the Gibbs free enthalpy minus the electronic energy
G-E(el)                           ...      0.14057411 Eh     88.21 kcal/mol

                             ****ORCA TERMINATED NORMALLY****
TOTAL RUN TIME: 0 days 0 hours 56 minutes 6 seconds 600 msec
