                         Program Version 3.0.3 - RELEASE   -
|  1> ! NORI PBE0 def2-TZVP UseSym TightOPT Freq TightSCF Grid3 FinalGrid5 XYZFile
|  2> % pal
|  3>     nprocs 8
|  4> end
|  5> %method
|  6>     SymThresh 5.0e-2
|  7> end
|  8> % geom
|  9>     MaxIter 10
| 10> end
| 11> % maxcore 2000
| 12> % output
| 13>     printlevel mini
| 14>     print[ P_Basis ] 0
| 15>     print[ P_SCFInfo ] 1
| 16>     print[ P_SCFIterInfo ] 1
| 17>     print[ P_OrbEn ] 0
| 18>     print[ P_Cartesian ] 0
| 19> end
| 20> % elprop
| 21>     Dipole false
| 22> end
| 23> *xyz 1 1
| 24>  C        1.4802874109     0.9892974632     0.4217832774
| 25>  C        2.1779931523    -0.3393025055     0.2611932346
| 26>  C        2.4758523979    -1.0296034698     1.5806788988
| 27>  O        2.9288434348    -2.3235803785     1.2487739973
| 28>  N        1.4182807070    -1.3305948238    -0.6038654058
| 29>  C       -0.0138604212    -1.4844175641    -0.2495973912
| 30>  C        1.5916250536    -1.0755799665    -2.0535174072
| 31>  H        1.2564004680     1.4606923944    -0.5359847761
| 32>  H        2.1482074066     1.6660036080     0.9577977724
| 33>  H        0.5601734920     0.9099186707     1.0026208523
| 34>  H        3.1252497576    -0.2096380719    -0.2683480749
| 35>  H        1.5838657700    -1.0665393517     2.2184172233
| 36>  H        3.2403101417    -0.4455641961     2.1028257186
| 37>  H        3.2040189983    -2.8071394318     2.0324458227
| 38>  H        1.8842489312    -2.2189779257    -0.3725615971
| 39>  H       -0.5546463955    -0.5842879751    -0.5334018534
| 40>  H       -0.1109097534    -1.6591112908     0.8198719137
| 41>  H       -0.4146425729    -2.3382528047    -0.7932104268
| 42>  H        1.1519759901    -0.1124009403    -2.3052499271
| 43>  H        1.0886287536    -1.8626279398    -2.6128389854
| 44>  H        2.6535172773    -1.0753635001    -2.2916128662
| 45> *
| 46>
| 47>                          ****END OF INPUT****
 Total Charge           Charge          ....    1
 Multiplicity           Mult            ....    1
 Number of Electrons    NEL             ....   58
FINAL SINGLE POINT ENERGY      -328.436597170930
FINAL SINGLE POINT ENERGY      -328.436600473669
FINAL SINGLE POINT ENERGY      -328.436602086601

CARTESIAN COORDINATES (ANGSTROEM)
---------------------------------
  C     -1.586201    0.207914   -1.208495
  C     -0.638632    0.465965   -0.063108
  C     -1.082808   -0.164403    1.246232
  O     -0.002055   -0.008552    2.138542
  N      0.783386    0.002163   -0.328376
  C      0.891943   -1.387847   -0.834902
  C      1.543880    0.949016   -1.178348
  H     -1.240264    0.652599   -2.142737
  H     -2.545080    0.673188   -0.974053
  H     -1.768815   -0.855880   -1.367173
  H     -0.530902    1.540484    0.105412
  H     -1.344384   -1.221237    1.109047
  H     -1.979695    0.362581    1.586880
  H     -0.225977   -0.330465    3.015966
  H      1.192502    0.011744    0.616107
  H      0.519262   -1.430053   -1.855815
  H      0.317250   -2.055721   -0.197084
  H      1.940083   -1.681688   -0.815414
  H      1.086299    0.994883   -2.164629
  H      2.570106    0.596452   -1.268908
  H      1.532079    1.933603   -0.714572

FINAL SINGLE POINT ENERGY      -328.436602307446
                    ***********************HURRAY********************
 Multiplicity           Mult            ....    1
 Number of Electrons    NEL             ....   58
 Basis Dimension        Dim             ....  301
FINAL SINGLE POINT ENERGY      -328.436602473738

VIBRATIONAL FREQUENCIES
-----------------------

   0:         0.00 cm**-1
   1:         0.00 cm**-1
   2:         0.00 cm**-1
   3:         0.00 cm**-1
   4:         0.00 cm**-1
   5:         0.00 cm**-1
   6:        75.34 cm**-1
   7:       153.35 cm**-1
   8:       202.87 cm**-1
   9:       210.11 cm**-1
  10:       243.70 cm**-1
  11:       254.37 cm**-1
  12:       272.10 cm**-1
  13:       293.83 cm**-1
  14:       297.01 cm**-1
  15:       404.86 cm**-1
  16:       460.50 cm**-1
  17:       531.90 cm**-1
  18:       556.53 cm**-1
  19:       737.55 cm**-1
  20:       905.45 cm**-1
  21:       937.19 cm**-1
  22:       956.62 cm**-1
  23:      1025.67 cm**-1
  24:      1058.30 cm**-1
  25:      1079.41 cm**-1
  26:      1095.52 cm**-1
  27:      1117.00 cm**-1
  28:      1125.24 cm**-1
  29:      1192.92 cm**-1
  30:      1221.23 cm**-1
  31:      1246.77 cm**-1
  32:      1261.02 cm**-1
  33:      1276.03 cm**-1
  34:      1332.00 cm**-1
  35:      1392.83 cm**-1
  36:      1413.55 cm**-1
  37:      1436.24 cm**-1
  38:      1441.64 cm**-1
  39:      1450.04 cm**-1
  40:      1467.27 cm**-1
  41:      1471.20 cm**-1
  42:      1478.42 cm**-1
  43:      1489.43 cm**-1
  44:      1493.80 cm**-1
  45:      1502.95 cm**-1
  46:      1506.77 cm**-1
  47:      1510.55 cm**-1
  48:      1521.45 cm**-1
  49:      3030.78 cm**-1
  50:      3071.33 cm**-1
  51:      3083.43 cm**-1
  52:      3089.62 cm**-1
  53:      3095.33 cm**-1
  54:      3099.11 cm**-1
  55:      3148.67 cm**-1
  56:      3153.94 cm**-1
  57:      3185.36 cm**-1
  58:      3188.34 cm**-1
  59:      3191.59 cm**-1
  60:      3198.78 cm**-1
  61:      3340.05 cm**-1
  62:      3871.03 cm**-1

IR SPECTRUM
-----------

 Mode    freq (cm**-1)   T**2         TX         TY         TZ
-------------------------------------------------------------------
   6:        75.34    2.490402  ( -0.120774   1.571806   0.072405)
   7:       153.35   13.459877  (  1.325232  -2.644575  -2.170222)
   8:       202.87    0.432940  ( -0.229325   0.286178   0.546308)
   9:       210.11    3.723971  ( -0.045521   1.517275  -1.191543)
  10:       243.70    7.191752  ( -0.316984  -1.552436   2.163612)
  11:       254.37    3.759151  ( -0.747958   1.133479   1.383812)
  12:       272.10   86.342349  ( -2.839959   8.254543   3.184259)
  13:       293.83    7.049716  (  0.301073  -2.556664  -0.650031)
  14:       297.01   27.319816  ( -1.400129   4.936270   0.996340)
  15:       404.86    1.025965  ( -0.316818   0.208614   0.939187)
  16:       460.50    6.147782  (  0.072560   0.605216  -2.403379)
  17:       531.90    7.017412  (  1.684611   0.546666   1.969937)
  18:       556.53    8.460007  (  2.259807  -0.488084   1.764951)
  19:       737.55    2.617617  ( -1.569038  -0.113905   0.377841)
  20:       905.45    7.098940  (  0.489510  -0.958321   2.437405)
  21:       937.19    5.700668  ( -2.333619   0.152870   0.481169)
  22:       956.62    8.818907  (  0.220352  -1.886672  -2.282722)
  23:      1025.67   16.409735  (  2.025548   3.340800  -1.070489)
  24:      1058.30    2.087637  ( -1.338902  -0.219370   0.496844)
  25:      1079.41   51.185835  (  6.959751  -0.712769   1.496549)
  26:      1095.52    3.296041  ( -1.343020   0.065570  -1.219853)
  27:      1117.00   60.254755  (  5.089221   0.494411   5.840389)
  28:      1125.24    5.340435  (  1.868545  -0.577781  -1.230912)
  29:      1192.92    2.500156  (  0.419756   1.311681   0.776822)
  30:      1221.23   12.970904  (  0.686577  -1.265407  -3.301251)
  31:      1246.77   26.908041  (  3.789224   1.693290   3.111686)
  32:      1261.02    1.380584  ( -0.641245  -0.921279  -0.347326)
  33:      1276.03    6.469568  ( -2.176840   0.136009  -1.308602)
  34:      1332.00   14.404298  (  1.127097  -0.774134  -3.540433)
  35:      1392.83   11.699406  (  3.241297   0.043091  -1.091579)
  36:      1413.55   32.285615  (  5.634672   0.086908  -0.727004)
  37:      1436.24    7.647779  ( -1.195115   0.636978   2.411169)
  38:      1441.64   29.162746  (  2.540571   2.161964  -4.246664)
  39:      1450.04    0.847543  ( -0.512236  -0.761527   0.072348)
  40:      1467.27    7.996444  (  1.666219   0.516393  -2.225645)
  41:      1471.20   19.640642  (  1.502395  -1.119603  -4.016209)
  42:      1478.42    2.667340  (  0.693198   1.284774   0.732238)
  43:      1489.43    4.779535  (  0.381441  -2.108720   0.432824)
  44:      1493.80   17.576893  ( -3.587936  -2.097474   0.551559)
  45:      1502.95   17.347407  (  1.842283   0.386970   3.715327)
  46:      1506.77   15.035480  (  3.458013   1.680137  -0.504746)
  47:      1510.55   43.673835  (  4.357613  -4.944706  -0.484687)
  48:      1521.45   17.750292  (  1.516456   1.975868  -3.398029)
  49:      3030.78   20.852974  ( -2.876181  -3.083302  -1.753227)
  50:      3071.33    1.932008  (  0.473402  -0.906237  -0.941612)
  51:      3083.43    4.679596  ( -1.860116   1.011647  -0.442871)
  52:      3089.62    1.002194  ( -0.565066  -0.109023   0.819151)
  53:      3095.33    1.620920  (  0.137984  -1.012208  -0.759813)
  54:      3099.11    4.942900  (  0.258497  -2.128216  -0.588878)
  55:      3148.67    1.734935  (  0.526543  -0.244215  -1.182390)
  56:      3153.94    5.537568  (  0.676805   2.162892  -0.633562)
  57:      3185.36    0.153080  (  0.184858  -0.248951   0.238602)
  58:      3188.34    0.527384  (  0.569412   0.158642   0.421884)
  59:      3191.59    1.027777  (  0.090889   0.092457   1.005469)
  60:      3198.78    0.789945  ( -0.114975  -0.407203   0.781609)
  61:      3340.05  156.828328  ( -0.993286   0.045864 -12.483573)
  62:      3871.03  133.325435  (  0.461110   2.722628 -11.211606)

--------------------------
THERMOCHEMISTRY AT 298.15K
--------------------------

Temperature         ... 298.15 K
Pressure            ... 1.00 atm
Total Mass          ... 104.17 AMU

Throughout the following assumptions are being made:
  (1) The electronic state is orbitally nondegenerate
  (2) There are no thermally accessible electronically excited states
  (3) Hindered rotations indicated by low frequency modes) are not
      treated as such but are treated as vibrations and this may
      case some error
  (4) All equations used are the standard statistical mechanics
      equations for an ideal gas
  (5) All vibrations are strinctly harmonic

------------
INNER ENERGY
------------

The inner energy is: U= E(el) + E(ZPE) + E(vib) + E(rot) + E(trans)
    E(el)   - is the total energy from the electronic structure calculation
              = E(kin-el) + E(nuc-el) + E(el-el) + E(nuc-nuc)
    E(ZPE)  - the the zero temperature vibrational energy from the frequency calculation
    E(vib)  - the the finite temperature correction to E(ZPE) due to population
              of excietd vibrational states
    E(rot)  - is the rotational thermal energy
    E(trans)- is the translational thermal energy

Summary of contributions to the inner energy U:
Electronic energy                ...   -328.43660247 Eh
Zero point energy                ...      0.19785398 Eh     124.15 kcal/mol
Thermal vibrational correction   ...      0.00631622 Eh       3.96 kcal/mol
Thermal rotational correction    ...      0.00141627 Eh       0.89 kcal/mol
Thermal translational correction ...      0.00141627 Eh       0.89 kcal/mol
-----------------------------------------------------------------------
Total thermal energy                   -328.22959973 Eh

Summary of corrections to the electronic energy:
(perhaps to be used in another calculation)
Total thermal correction                  0.00914876 Eh       5.74 kcal/mol
Non-thermal (ZPE) correction              0.19785398 Eh     124.15 kcal/mol
-----------------------------------------------------------------------
Total correction                          0.20700274 Eh     129.90 kcal/mol

--------
ENTHALPY
--------

The enthalpy is H = U + kB*T
                kB is Boltzmann's constant
Total free energy                 ...   -328.22959973 Eh
Thermal Enthalpy correction       ...      0.00094421 Eh       0.59 kcal/mol
-----------------------------------------------------------------------
Total Enthalpy                    ...   -328.22865552 Eh

-------
ENTROPY
-------

The entropy contributions are T*S = T*(S(el)+S(vib)+S(rot)+S(trans)
     S(el)   - electronic entropy
     S(vib)  - vibrational entropy
     S(rot)  - rotational entropy
     S(trans)- translational entropy
The entropies will be listed as mutliplied by the temperature to get
units of energy

Electronic entropy                ...      0.00000000 Eh      0.00 kcal/mol
Vibrational entropy               ...      0.01092056 Eh      6.85 kcal/mol
Rotational entropy                ...      0.01217337 Eh      7.64 kcal/mol
Translational entropy             ...      0.01892914 Eh     11.88 kcal/mol
-----------------------------------------------------------------------
Final entropy term                ...      0.04202307 Eh     26.37 kcal/mol

CAUTION: The rotational entropy is not quite correctly treated here
         because it includes a symmetry number that is not yet correctly
         implemented in ORCA!
For a nonlinear molecule the correct rotational entropy is:
    S(rot) = R*(ln(qrot/sn)+1.5)
    R    = 8.31441 J/mol/K = 1.987191683e-3 kcal/mol/K
    qrot = 266107.6303594
    sn is the rotational symmetry number. We have assumed 3 here
       if it is different for your molecule then you should correct
       the printed rotational entropy by manually evaluating the equation
       as given above

For convenience we print out the resulting values for sn=1 - 12:
 sn= 1  qrot/sn=  266107.6304 T*S(rot)=     8.29 kcal/mol T*S(tot)=    27.02 kcal/mol
 sn= 2  qrot/sn=  133053.8152 T*S(rot)=     7.88 kcal/mol T*S(tot)=    26.61 kcal/mol
 sn= 3  qrot/sn=   88702.5435 T*S(rot)=     7.64 kcal/mol T*S(tot)=    26.37 kcal/mol
 sn= 4  qrot/sn=   66526.9076 T*S(rot)=     7.47 kcal/mol T*S(tot)=    26.20 kcal/mol
 sn= 5  qrot/sn=   53221.5261 T*S(rot)=     7.34 kcal/mol T*S(tot)=    26.07 kcal/mol
 sn= 6  qrot/sn=   44351.2717 T*S(rot)=     7.23 kcal/mol T*S(tot)=    25.96 kcal/mol
 sn= 7  qrot/sn=   38015.3758 T*S(rot)=     7.14 kcal/mol T*S(tot)=    25.87 kcal/mol
 sn= 8  qrot/sn=   33263.4538 T*S(rot)=     7.06 kcal/mol T*S(tot)=    25.79 kcal/mol
 sn= 9  qrot/sn=   29567.5145 T*S(rot)=     6.99 kcal/mol T*S(tot)=    25.72 kcal/mol
 sn=10  qrot/sn=   26610.7630 T*S(rot)=     6.93 kcal/mol T*S(tot)=    25.66 kcal/mol
 sn=11  qrot/sn=   24191.6028 T*S(rot)=     6.87 kcal/mol T*S(tot)=    25.60 kcal/mol
 sn=12  qrot/sn=   22175.6359 T*S(rot)=     6.82 kcal/mol T*S(tot)=    25.55 kcal/mol

-------------------
GIBBS FREE ENTHALPY
-------------------

The Gibbs free enthalpy is G = H - T*S

Total enthalpy                    ...   -328.22865552 Eh
Total entropy correction          ...     -0.04202307 Eh    -26.37 kcal/mol
-----------------------------------------------------------------------
Final Gibbs free enthalpy         ...   -328.27067860 Eh

For completeness - the Gibbs free enthalpy minus the electronic energy
G-E(el)                           ...      0.16592388 Eh    104.12 kcal/mol

                             ****ORCA TERMINATED NORMALLY****
TOTAL RUN TIME: 0 days 1 hours 5 minutes 16 seconds 492 msec
