                         Program Version 3.0.3 - RELEASE   -
|  1> ! NORI PBE0 def2-TZVP UseSym TightOPT Freq TightSCF Grid3 FinalGrid5 XYZFile
|  2> % pal
|  3>     nprocs 8
|  4> end
|  5> %method
|  6>     SymThresh 5.0e-2
|  7> end
|  8> % geom
|  9>     MaxIter 10
| 10> end
| 11> % maxcore 2000
| 12> % output
| 13>     printlevel mini
| 14>     print[ P_Basis ] 0
| 15>     print[ P_SCFInfo ] 1
| 16>     print[ P_SCFIterInfo ] 1
| 17>     print[ P_OrbEn ] 0
| 18>     print[ P_Cartesian ] 0
| 19> end
| 20> % elprop
| 21>     Dipole false
| 22> end
| 23> *xyz 1 1
| 24>  C        1.7536284477     1.1069221430     0.1981716832
| 25>  C        2.0241652365    -0.3542692245    -0.0677732735
| 26>  N        2.7018129350    -0.5458628432    -1.3663111623
| 27>  C        2.6745815094    -1.8254017536    -2.1013332213
| 28>  C        1.9729281426    -0.6516265783    -2.6504455482
| 29>  C        2.5631749229     0.1463488476    -3.7799928109
| 30>  O        3.9515880357     0.1713382117    -3.5610679295
| 31>  H        1.2586503713     1.2075560405     1.1648019438
| 32>  H        1.0972485308     1.5421886894    -0.5582316418
| 33>  H        2.6776447584     1.6870750107     0.2403982593
| 34>  H        2.6734325286    -0.7943621029     0.6918834056
| 35>  H        1.1034213479    -0.9394322042    -0.1033366964
| 36>  H        3.5809216174    -0.0410537556    -1.4873178434
| 37>  H        3.6285954139    -2.1108092539    -2.5246333874
| 38>  H        2.1007410104    -2.6019539218    -1.6122481090
| 39>  H        0.8953530765    -0.6087490741    -2.5375045252
| 40>  H        2.2953537667    -0.3442544563    -4.7231693932
| 41>  H        2.1315984754     1.1540399848    -3.7807469565
| 42>  H        4.3976998729     0.6548862405    -4.2615327935
| 43> *
| 44>
| 45>                          ****END OF INPUT****
 Total Charge           Charge          ....    1
 Multiplicity           Mult            ....    1
 Number of Electrons    NEL             ....   56
FINAL SINGLE POINT ENERGY      -327.205027816099
FINAL SINGLE POINT ENERGY      -327.205028890124

CARTESIAN COORDINATES (ANGSTROEM)
---------------------------------
  C     -0.073311   -1.895346   -1.841980
  C      0.618510   -0.556772   -1.746400
  N      0.526225   -0.001084   -0.380810
  C      0.677871    1.438791   -0.094198
  C     -0.631415    0.789549    0.093633
  C     -1.126778    0.425511    1.465947
  O     -0.000026   -0.000889    2.190814
  H      0.023864   -2.275225   -2.859610
  H     -1.138477   -1.818661   -1.615864
  H      0.377913   -2.630722   -1.172384
  H      1.681985   -0.629291   -1.983045
  H      0.174339    0.181329   -2.417203
  H      0.894882   -0.591727    0.366060
  H      1.286079    1.653538    0.774774
  H      0.843155    2.047348   -0.973712
  H     -1.385969    0.946041   -0.668790
  H     -1.599015    1.311437    1.906280
  H     -1.882787   -0.364236    1.384387
  H     -0.243048   -0.235733    3.090464

FINAL SINGLE POINT ENERGY      -327.205029486138
                    ***********************HURRAY********************
 Multiplicity           Mult            ....    1
 Number of Electrons    NEL             ....   56
 Basis Dimension        Dim             ....  289
FINAL SINGLE POINT ENERGY      -327.205029569245

VIBRATIONAL FREQUENCIES
-----------------------

   0:         0.00 cm**-1
   1:         0.00 cm**-1
   2:         0.00 cm**-1
   3:         0.00 cm**-1
   4:         0.00 cm**-1
   5:         0.00 cm**-1
   6:        84.93 cm**-1
   7:       102.31 cm**-1
   8:       165.79 cm**-1
   9:       219.87 cm**-1
  10:       255.97 cm**-1
  11:       270.12 cm**-1
  12:       344.38 cm**-1
  13:       388.81 cm**-1
  14:       445.05 cm**-1
  15:       600.25 cm**-1
  16:       770.65 cm**-1
  17:       808.90 cm**-1
  18:       821.47 cm**-1
  19:       900.89 cm**-1
  20:       932.12 cm**-1
  21:       995.27 cm**-1
  22:      1033.41 cm**-1
  23:      1072.18 cm**-1
  24:      1092.40 cm**-1
  25:      1119.86 cm**-1
  26:      1147.47 cm**-1
  27:      1158.21 cm**-1
  28:      1166.07 cm**-1
  29:      1169.93 cm**-1
  30:      1219.06 cm**-1
  31:      1229.44 cm**-1
  32:      1257.04 cm**-1
  33:      1282.83 cm**-1
  34:      1334.76 cm**-1
  35:      1381.92 cm**-1
  36:      1401.21 cm**-1
  37:      1423.62 cm**-1
  38:      1451.61 cm**-1
  39:      1463.98 cm**-1
  40:      1483.37 cm**-1
  41:      1486.30 cm**-1
  42:      1498.27 cm**-1
  43:      1511.03 cm**-1
  44:      1517.06 cm**-1
  45:      3036.61 cm**-1
  46:      3064.39 cm**-1
  47:      3080.76 cm**-1
  48:      3086.93 cm**-1
  49:      3128.87 cm**-1
  50:      3151.64 cm**-1
  51:      3155.03 cm**-1
  52:      3173.94 cm**-1
  53:      3205.36 cm**-1
  54:      3278.68 cm**-1
  55:      3465.05 cm**-1
  56:      3873.33 cm**-1

IR SPECTRUM
-----------

 Mode    freq (cm**-1)   T**2         TX         TY         TZ
-------------------------------------------------------------------
   6:        84.93    2.416952  ( -0.331664   1.475152   0.361770)
   7:       102.31    2.640275  ( -0.431147  -1.348439  -0.797559)
   8:       165.79    8.978355  ( -0.200846  -2.186465  -2.038967)
   9:       219.87   21.635871  (  1.340521   4.358640   0.917132)
  10:       255.97   43.026639  ( -1.796850  -6.305552   0.194888)
  11:       270.12   63.426428  ( -1.189047  -6.500308  -4.445064)
  12:       344.38    9.743925  ( -0.116623  -3.119144  -0.035537)
  13:       388.81    1.966884  (  0.203103  -0.158326   1.378610)
  14:       445.05    0.101802  (  0.178264   0.259544   0.051575)
  15:       600.25   15.080339  (  2.609319  -1.149624   2.636316)
  16:       770.65    9.847909  (  2.585533  -1.549816  -0.872352)
  17:       808.90    9.733857  (  1.357570  -2.672902   0.863975)
  18:       821.47    0.624962  (  0.654688  -0.291343   0.333863)
  19:       900.89   10.556982  ( -1.873564   2.621228   0.419411)
  20:       932.12   12.630588  (  3.468859  -0.030823   0.772435)
  21:       995.27    0.313993  (  0.188175   0.256396  -0.461350)
  22:      1033.41   25.598845  ( -1.273235   4.839913   0.743609)
  23:      1072.18   10.333545  ( -1.447667   0.109761  -2.868058)
  24:      1092.40   36.312858  (  1.065203   2.833506   5.210513)
  25:      1119.86   24.317444  ( -1.659474   1.202994  -4.485131)
  26:      1147.47    8.285087  (  1.378438   0.129320  -2.523543)
  27:      1158.21    1.723856  (  0.668748   0.078775   1.127132)
  28:      1166.07   19.312345  ( -4.064124  -0.837372   1.447082)
  29:      1169.93    2.841857  (  1.361904  -0.820968  -0.559541)
  30:      1219.06   42.692705  ( -5.633995   2.851856  -1.678607)
  31:      1229.44   52.304900  (  6.604639  -1.874383   2.273836)
  32:      1257.04   12.603687  (  2.359078   2.420862   1.085295)
  33:      1282.83    1.969234  ( -1.156984  -0.788104   0.097540)
  34:      1334.76    4.130285  ( -0.239242  -0.661806   1.906584)
  35:      1381.92    0.230724  ( -0.189809   0.221928  -0.381372)
  36:      1401.21   12.799032  (  2.386473  -2.055195  -1.697042)
  37:      1423.62   12.145024  ( -1.261589  -3.072569  -1.054863)
  38:      1451.61   47.216248  (  2.039387  -5.237845  -3.952484)
  39:      1463.98   10.297572  (  2.358648   1.805921   1.213673)
  40:      1483.37    4.060898  ( -0.306744   1.263024   1.539993)
  41:      1486.30   16.754810  (  3.683977  -1.482688   0.992350)
  42:      1498.27    6.811323  (  0.211246   2.600495   0.064220)
  43:      1511.03   25.538751  (  2.717182   0.355028  -4.246131)
  44:      1517.06   18.034319  (  1.717846   0.002593  -3.883725)
  45:      3036.61   17.047833  ( -4.016221   0.254785  -0.923520)
  46:      3064.39    2.261617  ( -0.858810  -0.513124   1.122838)
  47:      3080.76    6.718697  (  0.564749   2.490448   0.444323)
  48:      3086.93    4.188898  (  0.891124   1.411294  -1.184502)
  49:      3128.87    0.724117  (  0.807292   0.006073   0.268996)
  50:      3151.64    5.515230  (  1.791139  -1.392330   0.607017)
  51:      3155.03    2.152949  ( -1.277921  -0.051759   0.719158)
  52:      3173.94    2.651345  ( -1.060730  -0.975264  -0.758325)
  53:      3205.36    0.872791  (  0.817078  -0.312750   0.327662)
  54:      3278.68    5.795790  (  0.704327  -0.327361   2.278717)
  55:      3465.05  103.754589  (  2.893686  -5.499102   8.071000)
  56:      3873.33  139.146492  (  0.440674   3.018304 -11.394830)

--------------------------
THERMOCHEMISTRY AT 298.15K
--------------------------

Temperature         ... 298.15 K
Pressure            ... 1.00 atm
Total Mass          ... 102.16 AMU

Throughout the following assumptions are being made:
  (1) The electronic state is orbitally nondegenerate
  (2) There are no thermally accessible electronically excited states
  (3) Hindered rotations indicated by low frequency modes) are not
      treated as such but are treated as vibrations and this may
      case some error
  (4) All equations used are the standard statistical mechanics
      equations for an ideal gas
  (5) All vibrations are strinctly harmonic

------------
INNER ENERGY
------------

The inner energy is: U= E(el) + E(ZPE) + E(vib) + E(rot) + E(trans)
    E(el)   - is the total energy from the electronic structure calculation
              = E(kin-el) + E(nuc-el) + E(el-el) + E(nuc-nuc)
    E(ZPE)  - the the zero temperature vibrational energy from the frequency calculation
    E(vib)  - the the finite temperature correction to E(ZPE) due to population
              of excietd vibrational states
    E(rot)  - is the rotational thermal energy
    E(trans)- is the translational thermal energy

Summary of contributions to the inner energy U:
Electronic energy                ...   -327.20502957 Eh
Zero point energy                ...      0.17475463 Eh     109.66 kcal/mol
Thermal vibrational correction   ...      0.00538004 Eh       3.38 kcal/mol
Thermal rotational correction    ...      0.00141627 Eh       0.89 kcal/mol
Thermal translational correction ...      0.00141627 Eh       0.89 kcal/mol
-----------------------------------------------------------------------
Total thermal energy                   -327.02206236 Eh

Summary of corrections to the electronic energy:
(perhaps to be used in another calculation)
Total thermal correction                  0.00821258 Eh       5.15 kcal/mol
Non-thermal (ZPE) correction              0.17475463 Eh     109.66 kcal/mol
-----------------------------------------------------------------------
Total correction                          0.18296721 Eh     114.81 kcal/mol

--------
ENTHALPY
--------

The enthalpy is H = U + kB*T
                kB is Boltzmann's constant
Total free energy                 ...   -327.02206236 Eh
Thermal Enthalpy correction       ...      0.00094421 Eh       0.59 kcal/mol
-----------------------------------------------------------------------
Total Enthalpy                    ...   -327.02111815 Eh

-------
ENTROPY
-------

The entropy contributions are T*S = T*(S(el)+S(vib)+S(rot)+S(trans)
     S(el)   - electronic entropy
     S(vib)  - vibrational entropy
     S(rot)  - rotational entropy
     S(trans)- translational entropy
The entropies will be listed as mutliplied by the temperature to get
units of energy

Electronic entropy                ...      0.00000000 Eh      0.00 kcal/mol
Vibrational entropy               ...      0.00955876 Eh      6.00 kcal/mol
Rotational entropy                ...      0.01215885 Eh      7.63 kcal/mol
Translational entropy             ...      0.01890147 Eh     11.86 kcal/mol
-----------------------------------------------------------------------
Final entropy term                ...      0.04061908 Eh     25.49 kcal/mol

CAUTION: The rotational entropy is not quite correctly treated here
         because it includes a symmetry number that is not yet correctly
         implemented in ORCA!
For a nonlinear molecule the correct rotational entropy is:
    S(rot) = R*(ln(qrot/sn)+1.5)
    R    = 8.31441 J/mol/K = 1.987191683e-3 kcal/mol/K
    qrot = 262048.1635992
    sn is the rotational symmetry number. We have assumed 3 here
       if it is different for your molecule then you should correct
       the printed rotational entropy by manually evaluating the equation
       as given above

For convenience we print out the resulting values for sn=1 - 12:
 sn= 1  qrot/sn=  262048.1636 T*S(rot)=     8.28 kcal/mol T*S(tot)=    26.14 kcal/mol
 sn= 2  qrot/sn=  131024.0818 T*S(rot)=     7.87 kcal/mol T*S(tot)=    25.73 kcal/mol
 sn= 3  qrot/sn=   87349.3879 T*S(rot)=     7.63 kcal/mol T*S(tot)=    25.49 kcal/mol
 sn= 4  qrot/sn=   65512.0409 T*S(rot)=     7.46 kcal/mol T*S(tot)=    25.32 kcal/mol
 sn= 5  qrot/sn=   52409.6327 T*S(rot)=     7.33 kcal/mol T*S(tot)=    25.19 kcal/mol
 sn= 6  qrot/sn=   43674.6939 T*S(rot)=     7.22 kcal/mol T*S(tot)=    25.08 kcal/mol
 sn= 7  qrot/sn=   37435.4519 T*S(rot)=     7.13 kcal/mol T*S(tot)=    24.99 kcal/mol
 sn= 8  qrot/sn=   32756.0204 T*S(rot)=     7.05 kcal/mol T*S(tot)=    24.91 kcal/mol
 sn= 9  qrot/sn=   29116.4626 T*S(rot)=     6.98 kcal/mol T*S(tot)=    24.84 kcal/mol
 sn=10  qrot/sn=   26204.8164 T*S(rot)=     6.92 kcal/mol T*S(tot)=    24.78 kcal/mol
 sn=11  qrot/sn=   23822.5603 T*S(rot)=     6.86 kcal/mol T*S(tot)=    24.72 kcal/mol
 sn=12  qrot/sn=   21837.3470 T*S(rot)=     6.81 kcal/mol T*S(tot)=    24.67 kcal/mol

-------------------
GIBBS FREE ENTHALPY
-------------------

The Gibbs free enthalpy is G = H - T*S

Total enthalpy                    ...   -327.02111815 Eh
Total entropy correction          ...     -0.04061908 Eh    -25.49 kcal/mol
-----------------------------------------------------------------------
Final Gibbs free enthalpy         ...   -327.06173723 Eh

For completeness - the Gibbs free enthalpy minus the electronic energy
G-E(el)                           ...      0.14329234 Eh     89.92 kcal/mol

                             ****ORCA TERMINATED NORMALLY****
TOTAL RUN TIME: 0 days 0 hours 51 minutes 21 seconds 717 msec
