                         Program Version 3.0.3 - RELEASE   -
|  1> ! NORI PBE0 def2-TZVP UseSym TightOPT Freq TightSCF Grid3 FinalGrid5 XYZFile
|  2> % pal
|  3>     nprocs 8
|  4> end
|  5> %method
|  6>     SymThresh 5.0e-2
|  7> end
|  8> % geom
|  9>     MaxIter 10
| 10> end
| 11> % maxcore 2000
| 12> % output
| 13>     printlevel mini
| 14>     print[ P_Basis ] 0
| 15>     print[ P_SCFInfo ] 1
| 16>     print[ P_SCFIterInfo ] 1
| 17>     print[ P_OrbEn ] 0
| 18>     print[ P_Cartesian ] 0
| 19> end
| 20> % elprop
| 21>     Dipole false
| 22> end
| 23> *xyz 1 1
| 24>  C        0.8821708653     1.1930816618     0.2838061638
| 25>  C        1.5447404649     2.0941161323    -0.7272744711
| 26>  N        3.0241061518     1.9550693247    -0.6812357004
| 27>  C        3.9315105313     3.0061640234    -1.1546479746
| 28>  C        3.8372320970     2.7204611002     0.2948750362
| 29>  C        4.9500991403     1.9757174586     0.9836062642
| 30>  O        5.3149419821     2.2767878723     2.0732641791
| 31>  H       -0.1992353658     1.3203553804     0.2128258261
| 32>  H        1.1788060827     1.4378283804     1.3056357903
| 33>  H        1.0990658406     0.1392930518     0.0929007225
| 34>  H        1.2480812042     1.8572721535    -1.7511911461
| 35>  H        1.3290090087     3.1487722326    -0.5456942472
| 36>  H        3.3466825363     1.0029448847    -0.8443396478
| 37>  H        3.4357067826     3.8846043140    -1.5477286223
| 38>  H        4.7923292988     2.6503970226    -1.7092864338
| 39>  H        3.2577732311     3.3869685822     0.9235890346
| 40>  H        5.4097801482     1.1479864246     0.3987852264
| 41> *
| 42>
| 43>                          ****END OF INPUT****
 Total Charge           Charge          ....    1
 Multiplicity           Mult            ....    1
 Number of Electrons    NEL             ....   54
FINAL SINGLE POINT ENERGY      -325.967115167095
FINAL SINGLE POINT ENERGY      -325.967104976649
FINAL SINGLE POINT ENERGY      -325.967117416480

CARTESIAN COORDINATES (ANGSTROEM)
---------------------------------
  C     -1.302320   -1.522316   -1.722120
  C     -0.567078   -0.218759   -1.910159
  N      0.421791    0.000068   -0.821720
  C      0.907672    1.334209   -0.452084
  C      0.017085    0.598106    0.473585
  C      0.586970   -0.029016    1.718326
  O     -0.001078   -0.002110    2.750121
  H     -2.011047   -1.647395   -2.541737
  H     -1.867336   -1.541179   -0.788260
  H     -0.623907   -2.378065   -1.745228
  H     -0.002861   -0.191825   -2.844598
  H     -1.238781    0.641334   -1.893137
  H      1.111374   -0.745436   -0.745130
  H      0.495198    2.142080   -1.043030
  H      1.968260    1.389534   -0.234526
  H     -1.030416    0.873113    0.522779
  H      1.593456   -0.490682    1.607783

FINAL SINGLE POINT ENERGY      -325.967117560146
                    ***********************HURRAY********************
 Multiplicity           Mult            ....    1
 Number of Electrons    NEL             ....   54
 Basis Dimension        Dim             ....  277
FINAL SINGLE POINT ENERGY      -325.967117731188

VIBRATIONAL FREQUENCIES
-----------------------

   0:         0.00 cm**-1
   1:         0.00 cm**-1
   2:         0.00 cm**-1
   3:         0.00 cm**-1
   4:         0.00 cm**-1
   5:         0.00 cm**-1
   6:        65.42 cm**-1
   7:       108.05 cm**-1
   8:       158.83 cm**-1
   9:       199.46 cm**-1
  10:       254.64 cm**-1
  11:       330.05 cm**-1
  12:       390.46 cm**-1
  13:       436.61 cm**-1
  14:       496.89 cm**-1
  15:       771.58 cm**-1
  16:       818.93 cm**-1
  17:       855.29 cm**-1
  18:       886.31 cm**-1
  19:       955.18 cm**-1
  20:       973.39 cm**-1
  21:      1030.98 cm**-1
  22:      1053.26 cm**-1
  23:      1092.47 cm**-1
  24:      1142.81 cm**-1
  25:      1148.50 cm**-1
  26:      1163.56 cm**-1
  27:      1177.00 cm**-1
  28:      1221.58 cm**-1
  29:      1254.77 cm**-1
  30:      1318.01 cm**-1
  31:      1346.80 cm**-1
  32:      1383.41 cm**-1
  33:      1419.69 cm**-1
  34:      1424.02 cm**-1
  35:      1458.52 cm**-1
  36:      1481.90 cm**-1
  37:      1485.66 cm**-1
  38:      1493.76 cm**-1
  39:      1505.27 cm**-1
  40:      1877.03 cm**-1
  41:      2904.26 cm**-1
  42:      3063.99 cm**-1
  43:      3090.12 cm**-1
  44:      3132.60 cm**-1
  45:      3153.32 cm**-1
  46:      3156.36 cm**-1
  47:      3162.69 cm**-1
  48:      3211.04 cm**-1
  49:      3267.07 cm**-1
  50:      3498.20 cm**-1

IR SPECTRUM
-----------

 Mode    freq (cm**-1)   T**2         TX         TY         TZ
-------------------------------------------------------------------
   6:        65.42    7.733552  (  1.599962   2.209862   0.538687)
   7:       108.05    1.172633  ( -0.486613  -0.718755  -0.647482)
   8:       158.83    2.021468  (  0.121074   1.303547   0.554595)
   9:       199.46    5.541577  (  2.263550  -0.630728   0.141784)
  10:       254.64    4.722772  ( -1.989499   0.873992   0.028372)
  11:       330.05    1.536443  ( -1.113608   0.046796  -0.542337)
  12:       390.46    0.422848  ( -0.312292  -0.272032   0.501318)
  13:       436.61    0.844331  (  0.073393  -0.755229  -0.518241)
  14:       496.89    8.434855  ( -1.111968   1.046134  -2.470625)
  15:       771.58    9.894169  (  1.286596  -1.006036  -2.688258)
  16:       818.93    2.293818  ( -0.473062   1.411505   0.278717)
  17:       855.29   21.456626  ( -1.773449   2.741973  -3.285283)
  18:       886.31    4.426764  (  0.012930   2.102107   0.088006)
  19:       955.18   14.295055  (  1.654705   2.526335  -2.274782)
  20:       973.39   11.153735  (  0.457720  -1.363360  -3.014213)
  21:      1030.98   58.609842  (  3.603601   3.246580   5.923143)
  22:      1053.26   41.833125  ( -1.658632  -0.857024  -6.192542)
  23:      1092.47    5.882447  ( -0.158393   1.359726  -2.002124)
  24:      1142.81    8.837705  (  0.923490   0.472929  -2.785895)
  25:      1148.50    3.268198  (  1.118706   0.841676  -1.143799)
  26:      1163.56    8.241274  (  2.771956  -0.456579  -0.590824)
  27:      1177.00    9.400041  ( -1.346042   1.793291  -2.091009)
  28:      1221.58   11.464492  (  3.220122   0.803570   0.670508)
  29:      1254.77   11.253267  ( -1.918111  -2.714443  -0.453781)
  30:      1318.01    3.898701  (  0.942028  -1.407510   1.014988)
  31:      1346.80    1.203403  (  1.080674  -0.181611  -0.050640)
  32:      1383.41    2.633489  ( -0.066787  -0.321760  -1.589182)
  33:      1419.69   11.644244  ( -0.248084  -0.469801   3.370754)
  34:      1424.02   13.740564  (  2.004576   3.045191   0.670113)
  35:      1458.52   42.557102  (  1.567061   5.019032   3.861443)
  36:      1481.90    2.228379  (  1.045221   0.797044   0.707540)
  37:      1485.66   17.450342  ( -3.591603   1.234991   1.739405)
  38:      1493.76    3.528689  ( -0.263958  -1.859291   0.045291)
  39:      1505.27   15.048943  (  0.482751  -2.224305   3.141395)
  40:      1877.03  165.210792  ( -4.416928  -0.504630  12.060136)
  41:      2904.26   41.991780  ( -5.789514   2.654448   1.194660)
  42:      3063.99    2.435022  ( -0.733404   0.499771  -1.283499)
  43:      3090.12    2.318759  ( -0.271381  -1.432961   0.437875)
  44:      3132.60    1.214846  (  0.947007  -0.312846  -0.469203)
  45:      3153.32    1.875148  (  0.327981  -1.277532  -0.368088)
  46:      3156.36    1.750025  (  0.878194  -0.351641  -0.924743)
  47:      3162.69    3.943771  ( -1.103113  -1.616531   0.337252)
  48:      3211.04    6.392492  (  2.313892  -0.816793  -0.609298)
  49:      3267.07    9.281202  ( -2.026762   1.549784  -1.664815)
  50:      3498.20   61.882606  ( -4.836866   6.203812   0.006404)

--------------------------
THERMOCHEMISTRY AT 298.15K
--------------------------

Temperature         ... 298.15 K
Pressure            ... 1.00 atm
Total Mass          ... 100.14 AMU

Throughout the following assumptions are being made:
  (1) The electronic state is orbitally nondegenerate
  (2) There are no thermally accessible electronically excited states
  (3) Hindered rotations indicated by low frequency modes) are not
      treated as such but are treated as vibrations and this may
      case some error
  (4) All equations used are the standard statistical mechanics
      equations for an ideal gas
  (5) All vibrations are strinctly harmonic

------------
INNER ENERGY
------------

The inner energy is: U= E(el) + E(ZPE) + E(vib) + E(rot) + E(trans)
    E(el)   - is the total energy from the electronic structure calculation
              = E(kin-el) + E(nuc-el) + E(el-el) + E(nuc-nuc)
    E(ZPE)  - the the zero temperature vibrational energy from the frequency calculation
    E(vib)  - the the finite temperature correction to E(ZPE) due to population
              of excietd vibrational states
    E(rot)  - is the rotational thermal energy
    E(trans)- is the translational thermal energy

Summary of contributions to the inner energy U:
Electronic energy                ...   -325.96711773 Eh
Zero point energy                ...      0.14994841 Eh      94.09 kcal/mol
Thermal vibrational correction   ...      0.00502712 Eh       3.15 kcal/mol
Thermal rotational correction    ...      0.00141627 Eh       0.89 kcal/mol
Thermal translational correction ...      0.00141627 Eh       0.89 kcal/mol
-----------------------------------------------------------------------
Total thermal energy                   -325.80930965 Eh

Summary of corrections to the electronic energy:
(perhaps to be used in another calculation)
Total thermal correction                  0.00785967 Eh       4.93 kcal/mol
Non-thermal (ZPE) correction              0.14994841 Eh      94.09 kcal/mol
-----------------------------------------------------------------------
Total correction                          0.15780808 Eh      99.03 kcal/mol

--------
ENTHALPY
--------

The enthalpy is H = U + kB*T
                kB is Boltzmann's constant
Total free energy                 ...   -325.80930965 Eh
Thermal Enthalpy correction       ...      0.00094421 Eh       0.59 kcal/mol
-----------------------------------------------------------------------
Total Enthalpy                    ...   -325.80836544 Eh

-------
ENTROPY
-------

The entropy contributions are T*S = T*(S(el)+S(vib)+S(rot)+S(trans)
     S(el)   - electronic entropy
     S(vib)  - vibrational entropy
     S(rot)  - rotational entropy
     S(trans)- translational entropy
The entropies will be listed as mutliplied by the temperature to get
units of energy

Electronic entropy                ...      0.00000000 Eh      0.00 kcal/mol
Vibrational entropy               ...      0.00919929 Eh      5.77 kcal/mol
Rotational entropy                ...      0.01223100 Eh      7.68 kcal/mol
Translational entropy             ...      0.01887324 Eh     11.84 kcal/mol
-----------------------------------------------------------------------
Final entropy term                ...      0.04030353 Eh     25.29 kcal/mol

CAUTION: The rotational entropy is not quite correctly treated here
         because it includes a symmetry number that is not yet correctly
         implemented in ORCA!
For a nonlinear molecule the correct rotational entropy is:
    S(rot) = R*(ln(qrot/sn)+1.5)
    R    = 8.31441 J/mol/K = 1.987191683e-3 kcal/mol/K
    qrot = 282855.6796181
    sn is the rotational symmetry number. We have assumed 3 here
       if it is different for your molecule then you should correct
       the printed rotational entropy by manually evaluating the equation
       as given above

For convenience we print out the resulting values for sn=1 - 12:
 sn= 1  qrot/sn=  282855.6796 T*S(rot)=     8.33 kcal/mol T*S(tot)=    25.94 kcal/mol
 sn= 2  qrot/sn=  141427.8398 T*S(rot)=     7.92 kcal/mol T*S(tot)=    25.53 kcal/mol
 sn= 3  qrot/sn=   94285.2265 T*S(rot)=     7.68 kcal/mol T*S(tot)=    25.29 kcal/mol
 sn= 4  qrot/sn=   70713.9199 T*S(rot)=     7.50 kcal/mol T*S(tot)=    25.12 kcal/mol
 sn= 5  qrot/sn=   56571.1359 T*S(rot)=     7.37 kcal/mol T*S(tot)=    24.99 kcal/mol
 sn= 6  qrot/sn=   47142.6133 T*S(rot)=     7.26 kcal/mol T*S(tot)=    24.88 kcal/mol
 sn= 7  qrot/sn=   40407.9542 T*S(rot)=     7.17 kcal/mol T*S(tot)=    24.79 kcal/mol
 sn= 8  qrot/sn=   35356.9600 T*S(rot)=     7.09 kcal/mol T*S(tot)=    24.71 kcal/mol
 sn= 9  qrot/sn=   31428.4088 T*S(rot)=     7.02 kcal/mol T*S(tot)=    24.64 kcal/mol
 sn=10  qrot/sn=   28285.5680 T*S(rot)=     6.96 kcal/mol T*S(tot)=    24.58 kcal/mol
 sn=11  qrot/sn=   25714.1527 T*S(rot)=     6.91 kcal/mol T*S(tot)=    24.52 kcal/mol
 sn=12  qrot/sn=   23571.3066 T*S(rot)=     6.85 kcal/mol T*S(tot)=    24.47 kcal/mol

-------------------
GIBBS FREE ENTHALPY
-------------------

The Gibbs free enthalpy is G = H - T*S

Total enthalpy                    ...   -325.80836544 Eh
Total entropy correction          ...     -0.04030353 Eh    -25.29 kcal/mol
-----------------------------------------------------------------------
Final Gibbs free enthalpy         ...   -325.84866897 Eh

For completeness - the Gibbs free enthalpy minus the electronic energy
G-E(el)                           ...      0.11844876 Eh     74.33 kcal/mol

                             ****ORCA TERMINATED NORMALLY****
TOTAL RUN TIME: 0 days 0 hours 45 minutes 58 seconds 359 msec
