                         Program Version 3.0.3 - RELEASE   -
|  1> ! NORI PBE0 def2-TZVP UseSym TightOPT Freq TightSCF Grid3 FinalGrid5 XYZFile
|  2> % pal
|  3>     nprocs 8
|  4> end
|  5> %method
|  6>     SymThresh 5.0e-2
|  7> end
|  8> % geom
|  9>     MaxIter 10
| 10> end
| 11> % maxcore 2000
| 12> % output
| 13>     printlevel mini
| 14>     print[ P_Basis ] 0
| 15>     print[ P_SCFInfo ] 1
| 16>     print[ P_SCFIterInfo ] 1
| 17>     print[ P_OrbEn ] 0
| 18>     print[ P_Cartesian ] 0
| 19> end
| 20> % elprop
| 21>     Dipole false
| 22> end
| 23> *xyz 1 1
| 24>  C        2.8000020446    -0.0944163720    -1.3034525376
| 25>  C        2.0705528690    -0.0880356323     0.0169673591
| 26>  N        2.9758430900    -0.4532433760     1.1472350164
| 27>  C        2.3217434826    -0.5114446890     2.5123993870
| 28>  C        2.3399358375    -2.0535221412     2.4467754222
| 29>  O        2.6949477020    -2.7787632394     3.5549521595
| 30>  C        3.3279210761    -1.9233208285     1.2671123014
| 31>  H        2.1014512447     0.1787648483    -2.0951666754
| 32>  H        3.2043090615    -1.0778516336    -1.5506346966
| 33>  H        3.6134688156     0.6353399191    -1.3188697530
| 34>  H        1.2422926750    -0.7994958937     0.0348139521
| 35>  H        1.6726165582     0.9013824014     0.2514312261
| 36>  H        3.7916870450     0.1557429426     1.1096224263
| 37>  H        1.3681220343     0.0120461577     2.5438044374
| 38>  H        3.0013853579    -0.1058793461     3.2623899026
| 39>  H        1.3779831051    -2.4501271406     2.1198638950
| 40>  H        3.5416092265    -2.4931201535     3.9140057259
| 41>  H        4.3711603401    -2.0289954829     1.5665473032
| 42>  H        3.1428684344    -2.4807203402     0.3512131484
| 43> *
| 44>
| 45>                          ****END OF INPUT****
 Total Charge           Charge          ....    1
 Multiplicity           Mult            ....    1
 Number of Electrons    NEL             ....   56
FINAL SINGLE POINT ENERGY      -327.200190332531

CARTESIAN COORDINATES (ANGSTROEM)
---------------------------------
  C     -0.513259   -0.634498   -2.780212
  C     -0.353540    0.447509   -1.741466
  N      0.511783    0.000284   -0.609515
  C      0.697903    1.008669    0.505459
  C     -0.284629    0.205773    1.384985
  O     -0.001093   -0.000354    2.710641
  C     -0.129320   -0.955022    0.378291
  H     -1.148511   -0.262205   -3.584793
  H     -0.988757   -1.530734   -2.377352
  H      0.445874   -0.913105   -3.223537
  H     -1.309351    0.747196   -1.307019
  H      0.123364    1.337214   -2.157955
  H      1.387270   -0.347214   -0.997604
  H      0.440456    2.022146    0.202968
  H      1.726115    0.970836    0.866357
  H     -1.288554    0.631184    1.351874
  H      0.875748   -0.378594    2.835047
  H      0.599336   -1.702318    0.693422
  H     -1.018348   -1.441768   -0.016931

FINAL SINGLE POINT ENERGY      -327.200191024974
                    ***********************HURRAY********************
 Multiplicity           Mult            ....    1
 Number of Electrons    NEL             ....   56
 Basis Dimension        Dim             ....  289
FINAL SINGLE POINT ENERGY      -327.200191331017

VIBRATIONAL FREQUENCIES
-----------------------

   0:         0.00 cm**-1
   1:         0.00 cm**-1
   2:         0.00 cm**-1
   3:         0.00 cm**-1
   4:         0.00 cm**-1
   5:         0.00 cm**-1
   6:        74.21 cm**-1
   7:       119.54 cm**-1
   8:       200.85 cm**-1
   9:       242.73 cm**-1
  10:       330.40 cm**-1
  11:       340.48 cm**-1
  12:       376.16 cm**-1
  13:       446.06 cm**-1
  14:       466.10 cm**-1
  15:       689.05 cm**-1
  16:       780.04 cm**-1
  17:       822.36 cm**-1
  18:       832.45 cm**-1
  19:       907.30 cm**-1
  20:       928.94 cm**-1
  21:       989.16 cm**-1
  22:      1007.86 cm**-1
  23:      1022.61 cm**-1
  24:      1083.02 cm**-1
  25:      1094.79 cm**-1
  26:      1107.68 cm**-1
  27:      1178.44 cm**-1
  28:      1201.48 cm**-1
  29:      1251.04 cm**-1
  30:      1254.93 cm**-1
  31:      1293.77 cm**-1
  32:      1305.11 cm**-1
  33:      1317.89 cm**-1
  34:      1334.93 cm**-1
  35:      1369.70 cm**-1
  36:      1388.69 cm**-1
  37:      1424.99 cm**-1
  38:      1434.25 cm**-1
  39:      1451.65 cm**-1
  40:      1468.53 cm**-1
  41:      1484.78 cm**-1
  42:      1486.83 cm**-1
  43:      1493.63 cm**-1
  44:      1503.21 cm**-1
  45:      3062.70 cm**-1
  46:      3086.36 cm**-1
  47:      3106.79 cm**-1
  48:      3110.93 cm**-1
  49:      3120.58 cm**-1
  50:      3128.92 cm**-1
  51:      3150.59 cm**-1
  52:      3154.46 cm**-1
  53:      3182.91 cm**-1
  54:      3188.45 cm**-1
  55:      3488.58 cm**-1
  56:      3832.35 cm**-1

IR SPECTRUM
-----------

 Mode    freq (cm**-1)   T**2         TX         TY         TZ
-------------------------------------------------------------------
   6:        74.21    4.173119  ( -1.808128   0.213343  -0.926433)
   7:       119.54    2.309365  (  0.665747   1.330260  -0.310733)
   8:       200.85    0.336300  (  0.459181   0.227670   0.271329)
   9:       242.73    0.373638  (  0.385956   0.351581   0.317910)
  10:       330.40   45.262502  (  2.345175   6.303586   0.165710)
  11:       340.48   13.215626  ( -1.777008  -3.132011  -0.498377)
  12:       376.16   62.708863  (  3.155604   7.242189   0.549289)
  13:       446.06    1.021984  ( -0.069030  -1.008078   0.031571)
  14:       466.10    2.845841  (  0.974619  -0.435978   1.306094)
  15:       689.05    3.575921  ( -0.000884  -0.502903  -1.822912)
  16:       780.04    3.855782  ( -1.449395  -0.651868   1.153302)
  17:       822.36    4.345451  (  0.455179   0.575106  -1.951286)
  18:       832.45    3.349628  (  0.695490   1.643346  -0.406614)
  19:       907.30    4.824713  (  0.562853  -0.385799   2.087838)
  20:       928.94    2.745651  (  0.748195   1.127833   0.955954)
  21:       989.16    2.727410  ( -1.236343  -0.529918   0.958151)
  22:      1007.86   20.158954  ( -1.755841  -3.409153  -2.335305)
  23:      1022.61   42.693416  (  2.153082  -1.768715   5.910102)
  24:      1083.02    2.787417  (  0.486618  -0.622481   1.470760)
  25:      1094.79    0.681192  ( -0.629711  -0.245324   0.473785)
  26:      1107.68    1.159311  ( -0.204096   0.778185   0.715601)
  27:      1178.44    5.305180  (  0.260534   1.969778  -1.165022)
  28:      1201.48  198.608994  ( -1.540291   1.205101 -13.956512)
  29:      1251.04    1.565091  ( -0.008736  -1.101555  -0.592952)
  30:      1254.93    9.370056  ( -1.448004  -2.551751  -0.872874)
  31:      1293.77    0.798514  ( -0.540602  -0.696443  -0.145705)
  32:      1305.11    8.334379  ( -2.030327   0.908086   1.840525)
  33:      1317.89    4.853777  (  0.893311   1.888768  -0.698806)
  34:      1334.93   10.629464  (  2.446049   1.826625   1.144443)
  35:      1369.70    0.279311  ( -0.278282   0.277218   0.353582)
  36:      1388.69    1.338027  (  0.142849   1.107074   0.303328)
  37:      1424.99   12.665934  ( -0.655881  -2.223392  -2.700422)
  38:      1434.25   20.909862  (  0.704398  -0.599035   4.478263)
  39:      1451.65   72.227319  (  0.581988  -0.744075   8.446003)
  40:      1468.53   19.466417  (  1.528352   4.052072   0.843367)
  41:      1484.78    3.798791  (  0.407470   1.430679  -1.259332)
  42:      1486.83   22.218135  (  4.300641   1.325763  -1.401774)
  43:      1493.63   10.581801  ( -1.113618   2.427850   1.856665)
  44:      1503.21    8.468627  (  1.261962  -2.519745   0.725924)
  45:      3062.70    2.628768  ( -0.928622   1.207143  -0.556089)
  46:      3086.36    3.444570  (  0.290983  -1.546237  -0.984403)
  47:      3106.79    0.320652  ( -0.306509  -0.439812  -0.182401)
  48:      3110.93    0.087868  (  0.168669   0.190089   0.152592)
  49:      3120.58    3.922653  ( -1.273802   0.579153  -1.401664)
  50:      3128.92    1.078717  (  0.717391   0.553293  -0.507872)
  51:      3150.59    3.979169  (  1.478798   0.134948  -1.331959)
  52:      3154.46    1.642853  ( -0.595790  -1.038680   0.457198)
  53:      3182.91    0.526246  ( -0.283547  -0.436865   0.504971)
  54:      3188.45    0.747859  ( -0.184944  -0.537273  -0.651915)
  55:      3488.58   48.980859  (  5.961173  -2.191009  -2.940195)
  56:      3832.35   56.936457  (  5.227003  -2.446503   4.861020)

--------------------------
THERMOCHEMISTRY AT 298.15K
--------------------------

Temperature         ... 298.15 K
Pressure            ... 1.00 atm
Total Mass          ... 102.16 AMU

Throughout the following assumptions are being made:
  (1) The electronic state is orbitally nondegenerate
  (2) There are no thermally accessible electronically excited states
  (3) Hindered rotations indicated by low frequency modes) are not
      treated as such but are treated as vibrations and this may
      case some error
  (4) All equations used are the standard statistical mechanics
      equations for an ideal gas
  (5) All vibrations are strinctly harmonic

------------
INNER ENERGY
------------

The inner energy is: U= E(el) + E(ZPE) + E(vib) + E(rot) + E(trans)
    E(el)   - is the total energy from the electronic structure calculation
              = E(kin-el) + E(nuc-el) + E(el-el) + E(nuc-nuc)
    E(ZPE)  - the the zero temperature vibrational energy from the frequency calculation
    E(vib)  - the the finite temperature correction to E(ZPE) due to population
              of excietd vibrational states
    E(rot)  - is the rotational thermal energy
    E(trans)- is the translational thermal energy

Summary of contributions to the inner energy U:
Electronic energy                ...   -327.20019133 Eh
Zero point energy                ...      0.17569061 Eh     110.25 kcal/mol
Thermal vibrational correction   ...      0.00494008 Eh       3.10 kcal/mol
Thermal rotational correction    ...      0.00141627 Eh       0.89 kcal/mol
Thermal translational correction ...      0.00141627 Eh       0.89 kcal/mol
-----------------------------------------------------------------------
Total thermal energy                   -327.01672810 Eh

Summary of corrections to the electronic energy:
(perhaps to be used in another calculation)
Total thermal correction                  0.00777263 Eh       4.88 kcal/mol
Non-thermal (ZPE) correction              0.17569061 Eh     110.25 kcal/mol
-----------------------------------------------------------------------
Total correction                          0.18346324 Eh     115.12 kcal/mol

--------
ENTHALPY
--------

The enthalpy is H = U + kB*T
                kB is Boltzmann's constant
Total free energy                 ...   -327.01672810 Eh
Thermal Enthalpy correction       ...      0.00094421 Eh       0.59 kcal/mol
-----------------------------------------------------------------------
Total Enthalpy                    ...   -327.01578389 Eh

-------
ENTROPY
-------

The entropy contributions are T*S = T*(S(el)+S(vib)+S(rot)+S(trans)
     S(el)   - electronic entropy
     S(vib)  - vibrational entropy
     S(rot)  - rotational entropy
     S(trans)- translational entropy
The entropies will be listed as mutliplied by the temperature to get
units of energy

Electronic entropy                ...      0.00000000 Eh      0.00 kcal/mol
Vibrational entropy               ...      0.00863704 Eh      5.42 kcal/mol
Rotational entropy                ...      0.01206723 Eh      7.57 kcal/mol
Translational entropy             ...      0.01890147 Eh     11.86 kcal/mol
-----------------------------------------------------------------------
Final entropy term                ...      0.03960573 Eh     24.85 kcal/mol

CAUTION: The rotational entropy is not quite correctly treated here
         because it includes a symmetry number that is not yet correctly
         implemented in ORCA!
For a nonlinear molecule the correct rotational entropy is:
    S(rot) = R*(ln(qrot/sn)+1.5)
    R    = 8.31441 J/mol/K = 1.987191683e-3 kcal/mol/K
    qrot = 237814.6661392
    sn is the rotational symmetry number. We have assumed 3 here
       if it is different for your molecule then you should correct
       the printed rotational entropy by manually evaluating the equation
       as given above

For convenience we print out the resulting values for sn=1 - 12:
 sn= 1  qrot/sn=  237814.6661 T*S(rot)=     8.22 kcal/mol T*S(tot)=    25.50 kcal/mol
 sn= 2  qrot/sn=  118907.3331 T*S(rot)=     7.81 kcal/mol T*S(tot)=    25.09 kcal/mol
 sn= 3  qrot/sn=   79271.5554 T*S(rot)=     7.57 kcal/mol T*S(tot)=    24.85 kcal/mol
 sn= 4  qrot/sn=   59453.6665 T*S(rot)=     7.40 kcal/mol T*S(tot)=    24.68 kcal/mol
 sn= 5  qrot/sn=   47562.9332 T*S(rot)=     7.27 kcal/mol T*S(tot)=    24.55 kcal/mol
 sn= 6  qrot/sn=   39635.7777 T*S(rot)=     7.16 kcal/mol T*S(tot)=    24.44 kcal/mol
 sn= 7  qrot/sn=   33973.5237 T*S(rot)=     7.07 kcal/mol T*S(tot)=    24.35 kcal/mol
 sn= 8  qrot/sn=   29726.8333 T*S(rot)=     6.99 kcal/mol T*S(tot)=    24.27 kcal/mol
 sn= 9  qrot/sn=   26423.8518 T*S(rot)=     6.92 kcal/mol T*S(tot)=    24.20 kcal/mol
 sn=10  qrot/sn=   23781.4666 T*S(rot)=     6.86 kcal/mol T*S(tot)=    24.14 kcal/mol
 sn=11  qrot/sn=   21619.5151 T*S(rot)=     6.80 kcal/mol T*S(tot)=    24.08 kcal/mol
 sn=12  qrot/sn=   19817.8888 T*S(rot)=     6.75 kcal/mol T*S(tot)=    24.03 kcal/mol

-------------------
GIBBS FREE ENTHALPY
-------------------

The Gibbs free enthalpy is G = H - T*S

Total enthalpy                    ...   -327.01578389 Eh
Total entropy correction          ...     -0.03960573 Eh    -24.85 kcal/mol
-----------------------------------------------------------------------
Final Gibbs free enthalpy         ...   -327.05538962 Eh

For completeness - the Gibbs free enthalpy minus the electronic energy
G-E(el)                           ...      0.14480171 Eh     90.86 kcal/mol

                             ****ORCA TERMINATED NORMALLY****
TOTAL RUN TIME: 0 days 0 hours 50 minutes 59 seconds 813 msec
