                         Program Version 3.0.3 - RELEASE   -
|  1> ! NORI PBE0 def2-TZVP UseSym TightOPT Freq TightSCF Grid3 FinalGrid5 XYZFile
|  2> % pal
|  3>     nprocs 8
|  4> end
|  5> %method
|  6>     SymThresh 5.0e-2
|  7> end
|  8> % geom
|  9>     MaxIter 10
| 10> end
| 11> % maxcore 2000
| 12> % output
| 13>     printlevel mini
| 14>     print[ P_Basis ] 0
| 15>     print[ P_SCFInfo ] 1
| 16>     print[ P_SCFIterInfo ] 1
| 17>     print[ P_OrbEn ] 0
| 18>     print[ P_Cartesian ] 0
| 19> end
| 20> % elprop
| 21>     Dipole false
| 22> end
| 23> *xyz 1 1
| 24>  C        0.9862357351     0.2363783382    -0.2441639153
| 25>  C        2.4538714172     0.0351127819     0.0629597410
| 26>  N        3.0441452057    -0.8787049925    -0.9921410810
| 27>  C        3.2310753650     1.3207601106     0.1363455693
| 28>  C        4.7048848985     1.4862432024    -0.1191139354
| 29>  C        3.6915795679     2.1098504955    -1.0382351158
| 30>  O        3.4179333790     3.4567939239    -0.9884506129
| 31>  H        0.4369206229    -0.7075629330    -0.2745786149
| 32>  H        0.8481766665     0.7689540228    -1.1886592803
| 33>  H        0.5417110728     0.8479125929     0.5415109094
| 34>  H        2.5781707467    -0.5203062481     0.9975624969
| 35>  H        2.9447119910    -0.4649297020    -1.9220047655
| 36>  H        2.5647467671    -1.7801700692    -0.9998062330
| 37>  H        4.0382495382    -1.0436766098    -0.8221034643
| 38>  H        2.8570083570     1.9479395825     0.9396831551
| 39>  H        5.2406497505     2.1334551395     0.5634981749
| 40>  H        5.3088146356     0.6720954289    -0.5099090853
| 41>  H        3.6100856980     1.6618701835    -2.0326096060
| 42>  H        4.1063485853     3.9470247518    -1.4496443368
| 43> *
| 44>
| 45>                          ****END OF INPUT****
 Total Charge           Charge          ....    1
 Multiplicity           Mult            ....    1
 Number of Electrons    NEL             ....   56
FINAL SINGLE POINT ENERGY      -327.198077012566
FINAL SINGLE POINT ENERGY      -327.198080394580
FINAL SINGLE POINT ENERGY      -327.198082769583

CARTESIAN COORDINATES (ANGSTROEM)
---------------------------------
  C     -0.561321    1.851500   -1.192669
  C     -0.427314    0.345156   -1.238868
  N      0.931471    0.003262   -1.815880
  C     -0.602518   -0.310063    0.103718
  C     -0.034196   -1.637615    0.527556
  C      0.435686   -0.362329    1.169383
  O      0.011822    0.002227    2.425898
  H     -0.448685    2.307323   -2.179611
  H      0.162385    2.293972   -0.503442
  H     -1.556344    2.106364   -0.827219
  H     -1.137981   -0.082619   -1.952096
  H      1.675193    0.388125   -1.228560
  H      1.037911    0.397087   -2.752218
  H      1.063836   -1.008437   -1.873880
  H     -1.595785   -0.118703    0.497052
  H     -0.692376   -2.282287    1.095675
  H      0.670584   -2.179535   -0.097226
  H      1.454862   -0.051849    0.921605
  H      0.504052   -0.488691    3.092105

FINAL SINGLE POINT ENERGY      -327.198083451951
                    ***********************HURRAY********************
 Multiplicity           Mult            ....    1
 Number of Electrons    NEL             ....   56
 Basis Dimension        Dim             ....  289
FINAL SINGLE POINT ENERGY      -327.198083957392

VIBRATIONAL FREQUENCIES
-----------------------

   0:         0.00 cm**-1
   1:         0.00 cm**-1
   2:         0.00 cm**-1
   3:         0.00 cm**-1
   4:         0.00 cm**-1
   5:         0.00 cm**-1
   6:        53.22 cm**-1
   7:       152.56 cm**-1
   8:       207.52 cm**-1
   9:       211.23 cm**-1
  10:       250.94 cm**-1
  11:       336.09 cm**-1
  12:       346.19 cm**-1
  13:       369.94 cm**-1
  14:       415.12 cm**-1
  15:       472.94 cm**-1
  16:       545.48 cm**-1
  17:       738.89 cm**-1
  18:       823.38 cm**-1
  19:       866.24 cm**-1
  20:       920.00 cm**-1
  21:       935.65 cm**-1
  22:       942.93 cm**-1
  23:       969.11 cm**-1
  24:      1041.69 cm**-1
  25:      1047.64 cm**-1
  26:      1066.98 cm**-1
  27:      1101.75 cm**-1
  28:      1147.24 cm**-1
  29:      1155.11 cm**-1
  30:      1208.70 cm**-1
  31:      1234.54 cm**-1
  32:      1248.38 cm**-1
  33:      1290.99 cm**-1
  34:      1350.33 cm**-1
  35:      1383.88 cm**-1
  36:      1404.50 cm**-1
  37:      1421.15 cm**-1
  38:      1442.46 cm**-1
  39:      1478.40 cm**-1
  40:      1485.12 cm**-1
  41:      1488.75 cm**-1
  42:      1525.97 cm**-1
  43:      1647.86 cm**-1
  44:      1656.14 cm**-1
  45:      3056.07 cm**-1
  46:      3057.65 cm**-1
  47:      3083.13 cm**-1
  48:      3133.37 cm**-1
  49:      3135.11 cm**-1
  50:      3156.04 cm**-1
  51:      3181.65 cm**-1
  52:      3236.16 cm**-1
  53:      3417.04 cm**-1
  54:      3499.79 cm**-1
  55:      3514.81 cm**-1
  56:      3837.28 cm**-1

IR SPECTRUM
-----------

 Mode    freq (cm**-1)   T**2         TX         TY         TZ
-------------------------------------------------------------------
   6:        53.22    1.949181  (  0.371383   0.436350   1.273128)
   7:       152.56    2.359964  (  0.391816   0.362715   1.440445)
   8:       207.52    4.537639  (  0.175449   0.940275  -1.903349)
   9:       211.23    2.339728  (  0.013827  -0.249511   1.509066)
  10:       250.94    4.756459  ( -0.620248  -0.613678  -1.998787)
  11:       336.09   76.889349  (  5.021139   6.301045   3.460396)
  12:       346.19   32.204718  (  2.671496   4.323299  -2.525255)
  13:       369.94   45.952923  (  5.565260   3.388746  -1.870081)
  14:       415.12   11.833161  ( -1.342961  -2.857576  -1.365238)
  15:       472.94    1.334577  ( -1.085485  -0.278150   0.280947)
  16:       545.48    3.625879  ( -0.810985   0.162089  -1.715199)
  17:       738.89    4.367465  (  1.021226   0.265804   1.803860)
  18:       823.38    5.259800  ( -1.716166   0.182076  -1.510438)
  19:       866.24    3.191445  ( -1.102611   1.113647   0.857603)
  20:       920.00    8.477165  (  1.148989   1.971819  -1.808015)
  21:       935.65    8.243409  ( -0.546883   2.809248  -0.229025)
  22:       942.93    8.420426  (  0.641285   1.274736  -2.526703)
  23:       969.11   11.972429  (  1.400086   0.659844  -3.094640)
  24:      1041.69    5.838174  ( -0.406461   1.095551  -2.114883)
  25:      1047.64   10.278165  (  2.770325   1.042141  -1.231831)
  26:      1066.98   27.605891  (  0.732662  -0.892291   5.125711)
  27:      1101.75    7.345922  (  0.406348  -1.914799  -1.874659)
  28:      1147.24   14.329626  ( -2.959066   2.282090  -0.604664)
  29:      1155.11    5.557043  ( -1.058000  -0.533787   2.037830)
  30:      1208.70    8.866573  ( -1.344560  -2.655896   0.070325)
  31:      1234.54    9.333419  (  0.855756   2.465152   1.588750)
  32:      1248.38   97.650088  (  1.804165  -3.171490  -9.183503)
  33:      1290.99   58.256123  ( -2.952619   3.960732   5.818141)
  34:      1350.33    0.792030  ( -0.270677   0.794674  -0.295395)
  35:      1383.88    9.871166  ( -0.415571  -1.112144   2.908883)
  36:      1404.50   20.263219  ( -0.299695   0.618650   4.448671)
  37:      1421.15   29.034898  (  2.512834  -4.258333  -2.141766)
  38:      1442.46   19.923365  ( -0.385373  -2.451565   3.710078)
  39:      1478.40    6.264368  (  2.164355   0.018201   1.256823)
  40:      1485.12  116.762056  (  9.990478  -1.307829  -3.904098)
  41:      1488.75   53.009833  ( -4.947136   1.441993   5.143572)
  42:      1525.97   23.023729  (  1.038144   1.188508   4.531383)
  43:      1647.86   57.185257  (  2.738040   5.342165   4.598877)
  44:      1656.14   48.510565  ( -0.377624  -3.651276   5.919134)
  45:      3056.07    4.043980  ( -1.620250  -0.241281   1.166428)
  46:      3057.65   49.482235  ( -5.190908  -1.941452   4.332144)
  47:      3083.13    2.842082  (  0.590112   0.584193   1.467163)
  48:      3133.37   13.776586  (  2.756936  -0.857875  -2.332368)
  49:      3135.11    8.562484  (  0.453982  -0.498455   2.847442)
  50:      3156.04    1.237333  ( -0.218847  -1.040469   0.326900)
  51:      3181.65    2.519101  ( -1.310124  -0.049137   0.894574)
  52:      3236.16    1.662405  ( -0.106046   1.111042   0.645557)
  53:      3417.04   22.443552  (  4.358562  -1.349065  -1.275347)
  54:      3499.79   69.721643  ( -2.775686  -5.563612  -5.573458)
  55:      3514.81   96.583666  (  0.083139   6.109344  -7.697576)
  56:      3837.28   86.813214  (  3.153605  -2.734087   8.330231)

--------------------------
THERMOCHEMISTRY AT 298.15K
--------------------------

Temperature         ... 298.15 K
Pressure            ... 1.00 atm
Total Mass          ... 102.16 AMU

Throughout the following assumptions are being made:
  (1) The electronic state is orbitally nondegenerate
  (2) There are no thermally accessible electronically excited states
  (3) Hindered rotations indicated by low frequency modes) are not
      treated as such but are treated as vibrations and this may
      case some error
  (4) All equations used are the standard statistical mechanics
      equations for an ideal gas
  (5) All vibrations are strinctly harmonic

------------
INNER ENERGY
------------

The inner energy is: U= E(el) + E(ZPE) + E(vib) + E(rot) + E(trans)
    E(el)   - is the total energy from the electronic structure calculation
              = E(kin-el) + E(nuc-el) + E(el-el) + E(nuc-nuc)
    E(ZPE)  - the the zero temperature vibrational energy from the frequency calculation
    E(vib)  - the the finite temperature correction to E(ZPE) due to population
              of excietd vibrational states
    E(rot)  - is the rotational thermal energy
    E(trans)- is the translational thermal energy

Summary of contributions to the inner energy U:
Electronic energy                ...   -327.19808396 Eh
Zero point energy                ...      0.17471982 Eh     109.64 kcal/mol
Thermal vibrational correction   ...      0.00555009 Eh       3.48 kcal/mol
Thermal rotational correction    ...      0.00141627 Eh       0.89 kcal/mol
Thermal translational correction ...      0.00141627 Eh       0.89 kcal/mol
-----------------------------------------------------------------------
Total thermal energy                   -327.01498150 Eh

Summary of corrections to the electronic energy:
(perhaps to be used in another calculation)
Total thermal correction                  0.00838264 Eh       5.26 kcal/mol
Non-thermal (ZPE) correction              0.17471982 Eh     109.64 kcal/mol
-----------------------------------------------------------------------
Total correction                          0.18310246 Eh     114.90 kcal/mol

--------
ENTHALPY
--------

The enthalpy is H = U + kB*T
                kB is Boltzmann's constant
Total free energy                 ...   -327.01498150 Eh
Thermal Enthalpy correction       ...      0.00094421 Eh       0.59 kcal/mol
-----------------------------------------------------------------------
Total Enthalpy                    ...   -327.01403729 Eh

-------
ENTROPY
-------

The entropy contributions are T*S = T*(S(el)+S(vib)+S(rot)+S(trans)
     S(el)   - electronic entropy
     S(vib)  - vibrational entropy
     S(rot)  - rotational entropy
     S(trans)- translational entropy
The entropies will be listed as mutliplied by the temperature to get
units of energy

Electronic entropy                ...      0.00000000 Eh      0.00 kcal/mol
Vibrational entropy               ...      0.00979145 Eh      6.14 kcal/mol
Rotational entropy                ...      0.01215990 Eh      7.63 kcal/mol
Translational entropy             ...      0.01890147 Eh     11.86 kcal/mol
-----------------------------------------------------------------------
Final entropy term                ...      0.04085281 Eh     25.64 kcal/mol

CAUTION: The rotational entropy is not quite correctly treated here
         because it includes a symmetry number that is not yet correctly
         implemented in ORCA!
For a nonlinear molecule the correct rotational entropy is:
    S(rot) = R*(ln(qrot/sn)+1.5)
    R    = 8.31441 J/mol/K = 1.987191683e-3 kcal/mol/K
    qrot = 262338.8702809
    sn is the rotational symmetry number. We have assumed 3 here
       if it is different for your molecule then you should correct
       the printed rotational entropy by manually evaluating the equation
       as given above

For convenience we print out the resulting values for sn=1 - 12:
 sn= 1  qrot/sn=  262338.8703 T*S(rot)=     8.28 kcal/mol T*S(tot)=    26.29 kcal/mol
 sn= 2  qrot/sn=  131169.4351 T*S(rot)=     7.87 kcal/mol T*S(tot)=    25.88 kcal/mol
 sn= 3  qrot/sn=   87446.2901 T*S(rot)=     7.63 kcal/mol T*S(tot)=    25.64 kcal/mol
 sn= 4  qrot/sn=   65584.7176 T*S(rot)=     7.46 kcal/mol T*S(tot)=    25.47 kcal/mol
 sn= 5  qrot/sn=   52467.7741 T*S(rot)=     7.33 kcal/mol T*S(tot)=    25.33 kcal/mol
 sn= 6  qrot/sn=   43723.1450 T*S(rot)=     7.22 kcal/mol T*S(tot)=    25.22 kcal/mol
 sn= 7  qrot/sn=   37476.9815 T*S(rot)=     7.13 kcal/mol T*S(tot)=    25.13 kcal/mol
 sn= 8  qrot/sn=   32792.3588 T*S(rot)=     7.05 kcal/mol T*S(tot)=    25.05 kcal/mol
 sn= 9  qrot/sn=   29148.7634 T*S(rot)=     6.98 kcal/mol T*S(tot)=    24.98 kcal/mol
 sn=10  qrot/sn=   26233.8870 T*S(rot)=     6.92 kcal/mol T*S(tot)=    24.92 kcal/mol
 sn=11  qrot/sn=   23848.9882 T*S(rot)=     6.86 kcal/mol T*S(tot)=    24.87 kcal/mol
 sn=12  qrot/sn=   21861.5725 T*S(rot)=     6.81 kcal/mol T*S(tot)=    24.81 kcal/mol

-------------------
GIBBS FREE ENTHALPY
-------------------

The Gibbs free enthalpy is G = H - T*S

Total enthalpy                    ...   -327.01403729 Eh
Total entropy correction          ...     -0.04085281 Eh    -25.64 kcal/mol
-----------------------------------------------------------------------
Final Gibbs free enthalpy         ...   -327.05489010 Eh

For completeness - the Gibbs free enthalpy minus the electronic energy
G-E(el)                           ...      0.14319385 Eh     89.86 kcal/mol

                             ****ORCA TERMINATED NORMALLY****
TOTAL RUN TIME: 0 days 0 hours 56 minutes 4 seconds 318 msec
