                         Program Version 3.0.3 - RELEASE   -
|  1> ! NORI PBE0 def2-TZVP UseSym TightOPT Freq TightSCF Grid3 FinalGrid5 XYZFile
|  2> % pal
|  3>     nprocs 8
|  4> end
|  5> %method
|  6>     SymThresh 5.0e-2
|  7> end
|  8> % geom
|  9>     MaxIter 10
| 10> end
| 11> % maxcore 2000
| 12> % output
| 13>     printlevel mini
| 14>     print[ P_Basis ] 0
| 15>     print[ P_SCFInfo ] 1
| 16>     print[ P_SCFIterInfo ] 1
| 17>     print[ P_OrbEn ] 0
| 18>     print[ P_Cartesian ] 0
| 19> end
| 20> % elprop
| 21>     Dipole false
| 22> end
| 23> *xyz 1 1
| 24>  C        1.0803966604     0.0972304234     0.0880180371
| 25>  C        2.5932637680     0.0957787207     0.0754904624
| 26>  N        3.0626003816    -0.2810769567    -1.3084477652
| 27>  C        3.1850857499     1.4787771687     0.3354697313
| 28>  C        4.6964612209     1.6958088131     0.4506140921
| 29>  C        4.4805563181     2.7439666790    -0.6433138675
| 30>  O        3.1243434776     2.2613169072    -0.8709520996
| 31>  H        0.6720682920    -0.8856594637    -0.1596941586
| 32>  H        0.6784526322     0.8392167295    -0.6065786582
| 33>  H        0.7292078927     0.3524801656     1.0882567072
| 34>  H        2.9976657487    -0.6363578401     0.7772359541
| 35>  H        3.0715344776     0.6253024422    -1.8188387003
| 36>  H        2.4349690082    -0.9436624971    -1.7625085553
| 37>  H        4.0057081180    -0.6680226204    -1.3180408019
| 38>  H        2.6173461784     1.9493639794     1.1441169900
| 39>  H        5.0613164961     2.0463885964     1.4130973018
| 40>  H        5.3074783434     0.8466797250     0.1351043991
| 41>  H        4.4575489420     3.7742379203    -0.2855910337
| 42>  H        5.0893262942     2.6807611074    -1.5459780348
| 43> *
| 44>
| 45>                          ****END OF INPUT****
 Total Charge           Charge          ....    1
 Multiplicity           Mult            ....    1
 Number of Electrons    NEL             ....   56
FINAL SINGLE POINT ENERGY      -327.204103898348
FINAL SINGLE POINT ENERGY      -327.204106046790
FINAL SINGLE POINT ENERGY      -327.204107433738

CARTESIAN COORDINATES (ANGSTROEM)
---------------------------------
  C      0.275038    2.097117   -1.038045
  C      0.165371    0.588289   -1.083436
  N      1.529915   -0.001998   -0.824222
  C     -0.729369    0.031585    0.020348
  C     -1.045734   -1.463328    0.121875
  C     -0.531392   -1.323002    1.556098
  O      0.000580    0.001426    1.260385
  H      0.965602    2.477486   -1.794498
  H      0.596176    2.441996   -0.051898
  H     -0.703127    2.533597   -1.241387
  H     -0.167817    0.241265   -2.063452
  H      1.585566   -0.049483    0.213263
  H      2.279095    0.579969   -1.196908
  H      1.634274   -0.944601   -1.198247
  H     -1.617111    0.667175    0.096276
  H     -2.087464   -1.746094   -0.010169
  H     -0.427370   -2.107184   -0.507750
  H     -1.313980   -1.252980    2.313103
  H      0.247975   -2.006325    1.894372

FINAL SINGLE POINT ENERGY      -327.204108153795
                    ***********************HURRAY********************
 Multiplicity           Mult            ....    1
 Number of Electrons    NEL             ....   56
 Basis Dimension        Dim             ....  289
FINAL SINGLE POINT ENERGY      -327.204108492879

VIBRATIONAL FREQUENCIES
-----------------------

   0:         0.00 cm**-1
   1:         0.00 cm**-1
   2:         0.00 cm**-1
   3:         0.00 cm**-1
   4:         0.00 cm**-1
   5:         0.00 cm**-1
   6:        87.30 cm**-1
   7:       127.73 cm**-1
   8:       211.61 cm**-1
   9:       251.61 cm**-1
  10:       262.12 cm**-1
  11:       326.58 cm**-1
  12:       358.80 cm**-1
  13:       446.94 cm**-1
  14:       616.80 cm**-1
  15:       685.71 cm**-1
  16:       800.56 cm**-1
  17:       850.59 cm**-1
  18:       899.06 cm**-1
  19:       949.88 cm**-1
  20:       964.37 cm**-1
  21:       983.49 cm**-1
  22:      1005.03 cm**-1
  23:      1008.08 cm**-1
  24:      1036.06 cm**-1
  25:      1100.47 cm**-1
  26:      1125.72 cm**-1
  27:      1144.85 cm**-1
  28:      1181.85 cm**-1
  29:      1216.06 cm**-1
  30:      1224.70 cm**-1
  31:      1262.51 cm**-1
  32:      1282.91 cm**-1
  33:      1330.42 cm**-1
  34:      1351.30 cm**-1
  35:      1373.21 cm**-1
  36:      1404.20 cm**-1
  37:      1420.38 cm**-1
  38:      1454.97 cm**-1
  39:      1485.23 cm**-1
  40:      1489.75 cm**-1
  41:      1492.56 cm**-1
  42:      1528.77 cm**-1
  43:      1631.17 cm**-1
  44:      1672.44 cm**-1
  45:      3058.46 cm**-1
  46:      3073.76 cm**-1
  47:      3085.55 cm**-1
  48:      3088.99 cm**-1
  49:      3111.65 cm**-1
  50:      3138.80 cm**-1
  51:      3146.65 cm**-1
  52:      3156.19 cm**-1
  53:      3170.35 cm**-1
  54:      3195.71 cm**-1
  55:      3483.44 cm**-1
  56:      3542.22 cm**-1

IR SPECTRUM
-----------

 Mode    freq (cm**-1)   T**2         TX         TY         TZ
-------------------------------------------------------------------
   6:        87.30    4.219504  ( -0.597094   1.239876   1.525021)
   7:       127.73    2.950049  (  0.273638  -1.550449   0.686497)
   8:       211.61    2.813292  ( -0.044727  -0.125167   1.672012)
   9:       251.61   10.394008  ( -2.014627  -0.411104   2.483200)
  10:       262.12   14.978983  (  3.475524   1.011546  -1.369851)
  11:       326.58   40.147470  ( -4.312067  -1.026458   4.527685)
  12:       358.80    9.642935  (  1.641852  -1.785847  -1.938558)
  13:       446.94    1.615437  ( -0.610807   1.069817   0.312800)
  14:       616.80    5.355522  (  2.015468   1.079966  -0.356492)
  15:       685.71    3.269266  ( -1.227325  -0.629511  -1.169041)
  16:       800.56    1.516430  (  0.921405  -0.688658  -0.439536)
  17:       850.59    2.409082  ( -1.489377  -0.404811  -0.164217)
  18:       899.06    8.863293  ( -1.644254  -2.012047  -1.453062)
  19:       949.88   12.936309  (  3.459409   0.984190   0.012939)
  20:       964.37   13.452839  ( -1.511856  -2.855094  -1.736539)
  21:       983.49   17.724237  ( -2.342772  -0.351305   3.480265)
  22:      1005.03   59.806189  ( -2.112352  -6.724249   3.182552)
  23:      1008.08  103.093348  (  1.424733   5.448377  -8.448590)
  24:      1036.06    5.412388  (  1.799644  -1.148819   0.924059)
  25:      1100.47   19.437016  ( -1.270713  -2.167746   3.622593)
  26:      1125.72   10.154470  ( -3.172738  -0.232769  -0.184446)
  27:      1144.85    6.013640  (  0.189952   0.945413  -2.254718)
  28:      1181.85    5.654991  ( -2.333230  -0.403064  -0.220378)
  29:      1216.06    0.792699  ( -0.262766   0.491141  -0.694574)
  30:      1224.70    7.478820  (  1.320780   1.442658   1.911307)
  31:      1262.51   10.280893  (  0.532009  -2.092326   2.370661)
  32:      1282.91    3.872676  (  0.626366   1.449100  -1.174926)
  33:      1330.42    2.680781  ( -0.398438  -0.806904   1.367821)
  34:      1351.30    5.152240  ( -2.140257   0.741935  -0.145167)
  35:      1373.21   11.308135  ( -2.105079  -0.190896  -2.615404)
  36:      1404.20    0.811455  (  0.863721   0.070438   0.245926)
  37:      1420.38   31.277989  ( -3.560515   4.233575   0.823142)
  38:      1454.97  180.066565  (-13.355807   1.221699   0.443202)
  39:      1485.23    8.252739  (  2.415857   0.035784   1.554057)
  40:      1489.75   12.082979  ( -0.303829   1.301532   3.208844)
  41:      1492.56    4.175352  ( -0.564576  -1.957627  -0.155888)
  42:      1528.77    3.660173  ( -1.519390  -0.579103   1.008100)
  43:      1631.17   40.823975  (  1.290578  -5.049344  -3.696283)
  44:      1672.44   46.171803  (  3.919318   3.786656  -4.058569)
  45:      3058.46    2.284080  (  1.473974   0.265338  -0.202675)
  46:      3073.76   10.710385  ( -1.400511   1.786438  -2.357455)
  47:      3085.55   14.436073  (  1.913653  -2.520870  -2.102194)
  48:      3088.99   24.233952  ( -0.539732  -2.896932   3.943403)
  49:      3111.65    1.802714  (  0.422994   0.804207   0.988454)
  50:      3138.80    4.068781  ( -0.778039  -0.433333   1.809878)
  51:      3146.65    5.657206  (  1.894584  -1.436940  -0.054420)
  52:      3156.19    0.649036  ( -0.417856  -0.526100  -0.444580)
  53:      3170.35    3.844790  ( -1.925508   0.311311   0.200732)
  54:      3195.71  190.175401  ( -4.343891  -2.742241  12.797895)
  55:      3483.44   87.258078  (  6.724311  -1.459738  -6.317506)
  56:      3542.22   81.011675  (  3.950675   8.086056  -0.139790)

--------------------------
THERMOCHEMISTRY AT 298.15K
--------------------------

Temperature         ... 298.15 K
Pressure            ... 1.00 atm
Total Mass          ... 102.16 AMU

Throughout the following assumptions are being made:
  (1) The electronic state is orbitally nondegenerate
  (2) There are no thermally accessible electronically excited states
  (3) Hindered rotations indicated by low frequency modes) are not
      treated as such but are treated as vibrations and this may
      case some error
  (4) All equations used are the standard statistical mechanics
      equations for an ideal gas
  (5) All vibrations are strinctly harmonic

------------
INNER ENERGY
------------

The inner energy is: U= E(el) + E(ZPE) + E(vib) + E(rot) + E(trans)
    E(el)   - is the total energy from the electronic structure calculation
              = E(kin-el) + E(nuc-el) + E(el-el) + E(nuc-nuc)
    E(ZPE)  - the the zero temperature vibrational energy from the frequency calculation
    E(vib)  - the the finite temperature correction to E(ZPE) due to population
              of excietd vibrational states
    E(rot)  - is the rotational thermal energy
    E(trans)- is the translational thermal energy

Summary of contributions to the inner energy U:
Electronic energy                ...   -327.20410849 Eh
Zero point energy                ...      0.17609681 Eh     110.50 kcal/mol
Thermal vibrational correction   ...      0.00485668 Eh       3.05 kcal/mol
Thermal rotational correction    ...      0.00141627 Eh       0.89 kcal/mol
Thermal translational correction ...      0.00141627 Eh       0.89 kcal/mol
-----------------------------------------------------------------------
Total thermal energy                   -327.02032246 Eh

Summary of corrections to the electronic energy:
(perhaps to be used in another calculation)
Total thermal correction                  0.00768922 Eh       4.83 kcal/mol
Non-thermal (ZPE) correction              0.17609681 Eh     110.50 kcal/mol
-----------------------------------------------------------------------
Total correction                          0.18378603 Eh     115.33 kcal/mol

--------
ENTHALPY
--------

The enthalpy is H = U + kB*T
                kB is Boltzmann's constant
Total free energy                 ...   -327.02032246 Eh
Thermal Enthalpy correction       ...      0.00094421 Eh       0.59 kcal/mol
-----------------------------------------------------------------------
Total Enthalpy                    ...   -327.01937825 Eh

-------
ENTROPY
-------

The entropy contributions are T*S = T*(S(el)+S(vib)+S(rot)+S(trans)
     S(el)   - electronic entropy
     S(vib)  - vibrational entropy
     S(rot)  - rotational entropy
     S(trans)- translational entropy
The entropies will be listed as mutliplied by the temperature to get
units of energy

Electronic entropy                ...      0.00000000 Eh      0.00 kcal/mol
Vibrational entropy               ...      0.00840031 Eh      5.27 kcal/mol
Rotational entropy                ...      0.01197356 Eh      7.51 kcal/mol
Translational entropy             ...      0.01890147 Eh     11.86 kcal/mol
-----------------------------------------------------------------------
Final entropy term                ...      0.03927534 Eh     24.65 kcal/mol

CAUTION: The rotational entropy is not quite correctly treated here
         because it includes a symmetry number that is not yet correctly
         implemented in ORCA!
For a nonlinear molecule the correct rotational entropy is:
    S(rot) = R*(ln(qrot/sn)+1.5)
    R    = 8.31441 J/mol/K = 1.987191683e-3 kcal/mol/K
    qrot = 215352.9456275
    sn is the rotational symmetry number. We have assumed 3 here
       if it is different for your molecule then you should correct
       the printed rotational entropy by manually evaluating the equation
       as given above

For convenience we print out the resulting values for sn=1 - 12:
 sn= 1  qrot/sn=  215352.9456 T*S(rot)=     8.16 kcal/mol T*S(tot)=    25.30 kcal/mol
 sn= 2  qrot/sn=  107676.4728 T*S(rot)=     7.75 kcal/mol T*S(tot)=    24.89 kcal/mol
 sn= 3  qrot/sn=   71784.3152 T*S(rot)=     7.51 kcal/mol T*S(tot)=    24.65 kcal/mol
 sn= 4  qrot/sn=   53838.2364 T*S(rot)=     7.34 kcal/mol T*S(tot)=    24.48 kcal/mol
 sn= 5  qrot/sn=   43070.5891 T*S(rot)=     7.21 kcal/mol T*S(tot)=    24.34 kcal/mol
 sn= 6  qrot/sn=   35892.1576 T*S(rot)=     7.10 kcal/mol T*S(tot)=    24.23 kcal/mol
 sn= 7  qrot/sn=   30764.7065 T*S(rot)=     7.01 kcal/mol T*S(tot)=    24.14 kcal/mol
 sn= 8  qrot/sn=   26919.1182 T*S(rot)=     6.93 kcal/mol T*S(tot)=    24.06 kcal/mol
 sn= 9  qrot/sn=   23928.1051 T*S(rot)=     6.86 kcal/mol T*S(tot)=    23.99 kcal/mol
 sn=10  qrot/sn=   21535.2946 T*S(rot)=     6.80 kcal/mol T*S(tot)=    23.93 kcal/mol
 sn=11  qrot/sn=   19577.5405 T*S(rot)=     6.74 kcal/mol T*S(tot)=    23.88 kcal/mol
 sn=12  qrot/sn=   17946.0788 T*S(rot)=     6.69 kcal/mol T*S(tot)=    23.82 kcal/mol

-------------------
GIBBS FREE ENTHALPY
-------------------

The Gibbs free enthalpy is G = H - T*S

Total enthalpy                    ...   -327.01937825 Eh
Total entropy correction          ...     -0.03927534 Eh    -24.65 kcal/mol
-----------------------------------------------------------------------
Final Gibbs free enthalpy         ...   -327.05865359 Eh

For completeness - the Gibbs free enthalpy minus the electronic energy
G-E(el)                           ...      0.14545490 Eh     91.27 kcal/mol

                             ****ORCA TERMINATED NORMALLY****
TOTAL RUN TIME: 0 days 0 hours 58 minutes 51 seconds 633 msec
