                         Program Version 3.0.3 - RELEASE   -
|  1> ! NORI PBE0 def2-TZVP UseSym TightOPT Freq TightSCF Grid3 FinalGrid5 XYZFile
|  2> % pal
|  3>     nprocs 8
|  4> end
|  5> %method
|  6>     SymThresh 5.0e-2
|  7> end
|  8> % geom
|  9>     MaxIter 10
| 10> end
| 11> % maxcore 2000
| 12> % output
| 13>     printlevel mini
| 14>     print[ P_Basis ] 0
| 15>     print[ P_SCFInfo ] 1
| 16>     print[ P_SCFIterInfo ] 1
| 17>     print[ P_OrbEn ] 0
| 18>     print[ P_Cartesian ] 0
| 19> end
| 20> % elprop
| 21>     Dipole false
| 22> end
| 23> *xyz 1 1
| 24>  C        1.8317611840     0.9595694894    -0.4344849588
| 25>  C        2.8398321490     0.2291714569     0.4199924284
| 26>  N        2.0860256738    -0.7211134062     1.3292640593
| 27>  C        3.8422431336    -0.6683008466    -0.3008445286
| 28>  C        5.1480371293    -0.8876039104     0.4041274734
| 29>  C        3.7165309297    -0.9122859538    -1.7363753278
| 30>  O        3.1831887426    -1.8385192094    -0.7928858521
| 31>  H        2.3493278080     1.6620621909    -1.0875257023
| 32>  H        1.1388225261     1.5390484718     0.1806964305
| 33>  H        1.2538412288     0.2728218630    -1.0578635389
| 34>  H        3.3668230498     0.9255829140     1.0750351951
| 35>  H        1.7725293594    -1.5019570295     0.7359727759
| 36>  H        1.2798904895    -0.2777041242     1.7700437680
| 37>  H        2.6841103743    -1.1093820888     2.0603547585
| 38>  H        5.7322818838    -1.6487069357    -0.1119493540
| 39>  H        5.0096809808    -1.2229208039     1.4377313380
| 40>  H        5.7277183346     0.0381025572     0.4304380950
| 41>  H        2.9827056692    -0.3824111539    -2.3335621307
| 42>  H        4.5917493536    -1.2664534809    -2.2723649290
| 43> *
| 44>
| 45>                          ****END OF INPUT****
 Total Charge           Charge          ....    1
 Multiplicity           Mult            ....    1
 Number of Electrons    NEL             ....   56
FINAL SINGLE POINT ENERGY      -327.201556737451
FINAL SINGLE POINT ENERGY      -327.201559334514
FINAL SINGLE POINT ENERGY      -327.201561134342

CARTESIAN COORDINATES (ANGSTROEM)
---------------------------------
  C      0.122778    1.689098   -1.199329
  C      0.329049    0.213920   -0.953470
  N      1.767095    0.005388   -0.519083
  C     -0.489499   -0.429441    0.163461
  C     -0.765537   -1.895788    0.009139
  C     -1.306226    0.395337    1.051880
  O      0.006002   -0.008846    1.437643
  H     -0.900569    1.863367   -1.531508
  H      0.785528    2.053597   -1.987969
  H      0.297071    2.279762   -0.296951
  H      0.204215   -0.351317   -1.879006
  H      1.825302    0.338852    0.453246
  H      2.426385    0.521593   -1.102027
  H      2.031627   -0.980880   -0.523993
  H     -1.226270   -2.290283    0.914095
  H      0.148071   -2.471340   -0.174159
  H     -1.442965   -2.070669   -0.829863
  H     -1.432897    1.457655    0.875236
  H     -2.107812   -0.087331    1.602638

FINAL SINGLE POINT ENERGY      -327.201561755627
                    ***********************HURRAY********************
 Multiplicity           Mult            ....    1
 Number of Electrons    NEL             ....   56
 Basis Dimension        Dim             ....  289
FINAL SINGLE POINT ENERGY      -327.201562359290

VIBRATIONAL FREQUENCIES
-----------------------

   0:         0.00 cm**-1
   1:         0.00 cm**-1
   2:         0.00 cm**-1
   3:         0.00 cm**-1
   4:         0.00 cm**-1
   5:         0.00 cm**-1
   6:        68.11 cm**-1
   7:       200.80 cm**-1
   8:       233.60 cm**-1
   9:       261.37 cm**-1
  10:       275.03 cm**-1
  11:       304.19 cm**-1
  12:       329.01 cm**-1
  13:       374.93 cm**-1
  14:       408.40 cm**-1
  15:       489.72 cm**-1
  16:       564.57 cm**-1
  17:       695.88 cm**-1
  18:       826.55 cm**-1
  19:       867.55 cm**-1
  20:       918.59 cm**-1
  21:       937.96 cm**-1
  22:       947.83 cm**-1
  23:       976.96 cm**-1
  24:      1020.73 cm**-1
  25:      1080.40 cm**-1
  26:      1098.97 cm**-1
  27:      1134.95 cm**-1
  28:      1140.13 cm**-1
  29:      1195.10 cm**-1
  30:      1206.45 cm**-1
  31:      1253.31 cm**-1
  32:      1379.00 cm**-1
  33:      1383.02 cm**-1
  34:      1404.44 cm**-1
  35:      1418.76 cm**-1
  36:      1438.75 cm**-1
  37:      1468.68 cm**-1
  38:      1476.25 cm**-1
  39:      1483.67 cm**-1
  40:      1487.62 cm**-1
  41:      1495.59 cm**-1
  42:      1538.81 cm**-1
  43:      1635.63 cm**-1
  44:      1664.80 cm**-1
  45:      3046.83 cm**-1
  46:      3060.31 cm**-1
  47:      3111.60 cm**-1
  48:      3118.96 cm**-1
  49:      3136.36 cm**-1
  50:      3138.08 cm**-1
  51:      3160.23 cm**-1
  52:      3163.01 cm**-1
  53:      3232.70 cm**-1
  54:      3352.58 cm**-1
  55:      3478.07 cm**-1
  56:      3528.55 cm**-1

IR SPECTRUM
-----------

 Mode    freq (cm**-1)   T**2         TX         TY         TZ
-------------------------------------------------------------------
   6:        68.11    8.033557  ( -0.076237   2.407414   1.494023)
   7:       200.80    1.316747  ( -0.582631  -0.623167   0.767431)
   8:       233.60    0.338227  (  0.210307  -0.363035  -0.402745)
   9:       261.37   16.754555  (  3.319223   1.097833  -2.128867)
  10:       275.03   20.252151  (  2.959145   0.892948  -3.270819)
  11:       304.19    6.712542  (  1.582162  -0.015928  -2.051597)
  12:       329.01    6.795916  (  0.194594   2.595551  -0.145478)
  13:       374.93    3.733411  ( -0.940438  -1.529148   0.714629)
  14:       408.40    2.170702  (  1.112276  -0.939740   0.224574)
  15:       489.72   10.273255  (  1.829184   1.656526   2.045303)
  16:       564.57    8.679589  (  2.510722  -0.678403   1.384064)
  17:       695.88    1.418901  ( -0.537276   0.948798  -0.479602)
  18:       826.55   13.544865  ( -2.039332   2.206551   2.125352)
  19:       867.55   10.868604  (  0.713724   0.267108   3.207469)
  20:       918.59   18.064850  (  2.848257   0.270307   3.143122)
  21:       937.96    3.773740  (  1.846160  -0.230997  -0.558635)
  22:       947.83    9.026399  ( -1.027885   2.556347   1.197890)
  23:       976.96   14.996430  (  3.461330   1.389076  -1.042158)
  24:      1020.73   18.879292  ( -3.783142   1.182235   1.780295)
  25:      1080.40   20.171997  ( -3.123872   0.455877  -3.194620)
  26:      1098.97   15.307662  ( -0.391916   1.607470  -3.545434)
  27:      1134.95    3.420623  (  1.640863  -0.563466   0.640856)
  28:      1140.13   15.997090  (  1.879447   2.211951  -2.751734)
  29:      1195.10    2.993301  ( -0.283843   0.425132  -1.652875)
  30:      1206.45   22.056697  ( -2.541410  -3.772716   1.168139)
  31:      1253.31    1.882383  (  0.633405   0.203390  -1.199922)
  32:      1379.00    6.656598  ( -0.791272   1.367300   2.039847)
  33:      1383.02    5.833453  (  2.246174  -0.876803  -0.139191)
  34:      1404.44    2.515177  (  0.258547  -0.385524  -1.516477)
  35:      1418.76   27.159857  ( -1.395572   4.994368  -0.518193)
  36:      1438.75   36.960779  ( -5.452386  -0.952652  -2.514900)
  37:      1468.68   96.467016  ( -9.717778  -1.081288  -0.928774)
  38:      1476.25    8.739291  (  0.860280   0.146363  -2.824498)
  39:      1483.67   83.552660  ( -8.822212   1.271477  -2.025977)
  40:      1487.62   21.032433  ( -3.319287  -0.308982  -3.149492)
  41:      1495.59    5.017650  ( -2.156749  -0.429756   0.425904)
  42:      1538.81    6.815341  ( -0.299294   1.719831   1.941120)
  43:      1635.63   39.230406  (  1.638412  -5.426712  -2.663983)
  44:      1664.80   45.736624  (  3.095657   2.883985  -5.275999)
  45:      3046.83   11.165331  ( -2.636223   1.633347   1.244121)
  46:      3060.31    2.427757  ( -1.426531  -0.626454   0.017908)
  47:      3111.60    1.517385  (  0.130378  -1.211653  -0.179677)
  48:      3118.96    6.606595  ( -2.453429   0.756847  -0.120261)
  49:      3136.36    3.657377  (  0.377151  -0.666373   1.752450)
  50:      3138.08    6.160450  (  2.093245  -0.840004  -1.035938)
  51:      3160.23    0.759455  (  0.196701   0.848786  -0.018064)
  52:      3163.01    1.183642  (  0.698406  -0.275143  -0.787507)
  53:      3232.70    1.998888  (  0.163725   1.368014  -0.317206)
  54:      3352.58   61.021015  ( -0.401787  -0.968692  -7.740880)
  55:      3478.07   91.566988  (  6.236685  -4.100718  -5.987893)
  56:      3528.55   86.570904  (  3.373542   7.751366  -3.886701)

--------------------------
THERMOCHEMISTRY AT 298.15K
--------------------------

Temperature         ... 298.15 K
Pressure            ... 1.00 atm
Total Mass          ... 102.16 AMU

Throughout the following assumptions are being made:
  (1) The electronic state is orbitally nondegenerate
  (2) There are no thermally accessible electronically excited states
  (3) Hindered rotations indicated by low frequency modes) are not
      treated as such but are treated as vibrations and this may
      case some error
  (4) All equations used are the standard statistical mechanics
      equations for an ideal gas
  (5) All vibrations are strinctly harmonic

------------
INNER ENERGY
------------

The inner energy is: U= E(el) + E(ZPE) + E(vib) + E(rot) + E(trans)
    E(el)   - is the total energy from the electronic structure calculation
              = E(kin-el) + E(nuc-el) + E(el-el) + E(nuc-nuc)
    E(ZPE)  - the the zero temperature vibrational energy from the frequency calculation
    E(vib)  - the the finite temperature correction to E(ZPE) due to population
              of excietd vibrational states
    E(rot)  - is the rotational thermal energy
    E(trans)- is the translational thermal energy

Summary of contributions to the inner energy U:
Electronic energy                ...   -327.20156236 Eh
Zero point energy                ...      0.17453813 Eh     109.52 kcal/mol
Thermal vibrational correction   ...      0.00531569 Eh       3.34 kcal/mol
Thermal rotational correction    ...      0.00141627 Eh       0.89 kcal/mol
Thermal translational correction ...      0.00141627 Eh       0.89 kcal/mol
-----------------------------------------------------------------------
Total thermal energy                   -327.01887600 Eh

Summary of corrections to the electronic energy:
(perhaps to be used in another calculation)
Total thermal correction                  0.00814823 Eh       5.11 kcal/mol
Non-thermal (ZPE) correction              0.17453813 Eh     109.52 kcal/mol
-----------------------------------------------------------------------
Total correction                          0.18268636 Eh     114.64 kcal/mol

--------
ENTHALPY
--------

The enthalpy is H = U + kB*T
                kB is Boltzmann's constant
Total free energy                 ...   -327.01887600 Eh
Thermal Enthalpy correction       ...      0.00094421 Eh       0.59 kcal/mol
-----------------------------------------------------------------------
Total Enthalpy                    ...   -327.01793179 Eh

-------
ENTROPY
-------

The entropy contributions are T*S = T*(S(el)+S(vib)+S(rot)+S(trans)
     S(el)   - electronic entropy
     S(vib)  - vibrational entropy
     S(rot)  - rotational entropy
     S(trans)- translational entropy
The entropies will be listed as mutliplied by the temperature to get
units of energy

Electronic entropy                ...      0.00000000 Eh      0.00 kcal/mol
Vibrational entropy               ...      0.00902216 Eh      5.66 kcal/mol
Rotational entropy                ...      0.01198574 Eh      7.52 kcal/mol
Translational entropy             ...      0.01890147 Eh     11.86 kcal/mol
-----------------------------------------------------------------------
Final entropy term                ...      0.03990936 Eh     25.04 kcal/mol

CAUTION: The rotational entropy is not quite correctly treated here
         because it includes a symmetry number that is not yet correctly
         implemented in ORCA!
For a nonlinear molecule the correct rotational entropy is:
    S(rot) = R*(ln(qrot/sn)+1.5)
    R    = 8.31441 J/mol/K = 1.987191683e-3 kcal/mol/K
    qrot = 218149.8362216
    sn is the rotational symmetry number. We have assumed 3 here
       if it is different for your molecule then you should correct
       the printed rotational entropy by manually evaluating the equation
       as given above

For convenience we print out the resulting values for sn=1 - 12:
 sn= 1  qrot/sn=  218149.8362 T*S(rot)=     8.17 kcal/mol T*S(tot)=    25.69 kcal/mol
 sn= 2  qrot/sn=  109074.9181 T*S(rot)=     7.76 kcal/mol T*S(tot)=    25.28 kcal/mol
 sn= 3  qrot/sn=   72716.6121 T*S(rot)=     7.52 kcal/mol T*S(tot)=    25.04 kcal/mol
 sn= 4  qrot/sn=   54537.4591 T*S(rot)=     7.35 kcal/mol T*S(tot)=    24.87 kcal/mol
 sn= 5  qrot/sn=   43629.9672 T*S(rot)=     7.22 kcal/mol T*S(tot)=    24.74 kcal/mol
 sn= 6  qrot/sn=   36358.3060 T*S(rot)=     7.11 kcal/mol T*S(tot)=    24.63 kcal/mol
 sn= 7  qrot/sn=   31164.2623 T*S(rot)=     7.02 kcal/mol T*S(tot)=    24.54 kcal/mol
 sn= 8  qrot/sn=   27268.7295 T*S(rot)=     6.94 kcal/mol T*S(tot)=    24.46 kcal/mol
 sn= 9  qrot/sn=   24238.8707 T*S(rot)=     6.87 kcal/mol T*S(tot)=    24.39 kcal/mol
 sn=10  qrot/sn=   21814.9836 T*S(rot)=     6.81 kcal/mol T*S(tot)=    24.33 kcal/mol
 sn=11  qrot/sn=   19831.8033 T*S(rot)=     6.75 kcal/mol T*S(tot)=    24.27 kcal/mol
 sn=12  qrot/sn=   18179.1530 T*S(rot)=     6.70 kcal/mol T*S(tot)=    24.22 kcal/mol

-------------------
GIBBS FREE ENTHALPY
-------------------

The Gibbs free enthalpy is G = H - T*S

Total enthalpy                    ...   -327.01793179 Eh
Total entropy correction          ...     -0.03990936 Eh    -25.04 kcal/mol
-----------------------------------------------------------------------
Final Gibbs free enthalpy         ...   -327.05784115 Eh

For completeness - the Gibbs free enthalpy minus the electronic energy
G-E(el)                           ...      0.14372121 Eh     90.19 kcal/mol

                             ****ORCA TERMINATED NORMALLY****
TOTAL RUN TIME: 0 days 1 hours 0 minutes 9 seconds 787 msec
