                         Program Version 3.0.3 - RELEASE   -
|  1> ! NORI PBE0 def2-TZVP UseSym TightOPT Freq TightSCF Grid3 FinalGrid5 XYZFile
|  2> % pal
|  3>     nprocs 8
|  4> end
|  5> %method
|  6>     SymThresh 5.0e-2
|  7> end
|  8> % geom
|  9>     MaxIter 10
| 10> end
| 11> % maxcore 2000
| 12> % output
| 13>     printlevel mini
| 14>     print[ P_Basis ] 0
| 15>     print[ P_SCFInfo ] 1
| 16>     print[ P_SCFIterInfo ] 1
| 17>     print[ P_OrbEn ] 0
| 18>     print[ P_Cartesian ] 0
| 19> end
| 20> % elprop
| 21>     Dipole false
| 22> end
| 23> *xyz 1 1
| 24>  C        1.0652254358     0.6106971247     0.1456584043
| 25>  C        2.3564870701     0.7514596781    -0.6225578900
| 26>  N        3.5096978274     0.1883389822     0.1550216976
| 27>  C        4.8279760254     0.2109287630    -0.5502324445
| 28>  C        5.8833343940    -0.5697569114     0.2321684984
| 29>  O        5.6001492197    -1.7434919366    -0.5384611249
| 30>  C        4.9514801474    -0.9485179789    -1.5378134288
| 31>  H        0.2522759770     1.0342410152    -0.4449793029
| 32>  H        1.0938087868     1.1497470777     1.0952154095
| 33>  H        0.8188515852    -0.4359193857     0.3386876725
| 34>  H        2.6046670601     1.7941064786    -0.8260004871
| 35>  H        2.3305532352     0.2144144911    -1.5703254884
| 36>  H        3.3061652946    -0.7837151533     0.4085256817
| 37>  H        3.5887187419     0.6968927337     1.0387034240
| 38>  H        5.0249096399     1.2321113272    -0.8713267723
| 39>  H        6.8950623147    -0.1912969704     0.0567330477
| 40>  H        5.7307944073    -0.7176009175     1.3058082950
| 41>  H        4.0374138554    -1.4109984747    -1.9201590443
| 42>  H        5.6154389819    -0.7098599432    -2.3741661475
| 43> *
| 44>
| 45>                          ****END OF INPUT****
 Total Charge           Charge          ....    1
 Multiplicity           Mult            ....    1
 Number of Electrons    NEL             ....   56
FINAL SINGLE POINT ENERGY      -327.185549175530
FINAL SINGLE POINT ENERGY      -327.185550422089

CARTESIAN COORDINATES (ANGSTROEM)
---------------------------------
  C      0.462005    1.392182   -2.736439
  C     -0.339731    0.477068   -1.844228
  N      0.481504    0.002745   -0.681317
  C     -0.242124   -0.857933    0.304180
  C      0.614505   -1.112769    1.543940
  O     -0.000220   -0.002663    2.208763
  C     -1.079808   -0.018454    1.267962
  H     -0.162999    1.710989   -3.571300
  H      1.336677    0.889961   -3.156510
  H      0.788012    2.292062   -2.209482
  H     -0.675256   -0.419487   -2.367660
  H     -1.213766    0.975881   -1.424388
  H      0.855065    0.812631   -0.176127
  H      1.295264   -0.503215   -1.039073
  H     -0.690402   -1.690165   -0.235516
  H      0.378220   -2.067301    2.023768
  H      1.700036   -1.008693    1.455390
  H     -1.386927    0.984321    0.958293
  H     -1.950005   -0.565254    1.643704

FINAL SINGLE POINT ENERGY      -327.185550902014
                    ***********************HURRAY********************
 Multiplicity           Mult            ....    1
 Number of Electrons    NEL             ....   56
 Basis Dimension        Dim             ....  289
FINAL SINGLE POINT ENERGY      -327.185551118584

VIBRATIONAL FREQUENCIES
-----------------------

   0:         0.00 cm**-1
   1:         0.00 cm**-1
   2:         0.00 cm**-1
   3:         0.00 cm**-1
   4:         0.00 cm**-1
   5:         0.00 cm**-1
   6:        72.56 cm**-1
   7:       101.42 cm**-1
   8:       134.11 cm**-1
   9:       193.75 cm**-1
  10:       253.96 cm**-1
  11:       331.79 cm**-1
  12:       394.22 cm**-1
  13:       449.71 cm**-1
  14:       778.33 cm**-1
  15:       815.97 cm**-1
  16:       837.45 cm**-1
  17:       860.76 cm**-1
  18:       893.28 cm**-1
  19:       915.36 cm**-1
  20:       971.95 cm**-1
  21:      1022.58 cm**-1
  22:      1049.25 cm**-1
  23:      1059.63 cm**-1
  24:      1074.01 cm**-1
  25:      1102.13 cm**-1
  26:      1141.64 cm**-1
  27:      1157.66 cm**-1
  28:      1174.07 cm**-1
  29:      1229.78 cm**-1
  30:      1245.89 cm**-1
  31:      1282.56 cm**-1
  32:      1308.46 cm**-1
  33:      1347.30 cm**-1
  34:      1374.50 cm**-1
  35:      1386.78 cm**-1
  36:      1421.38 cm**-1
  37:      1423.60 cm**-1
  38:      1430.99 cm**-1
  39:      1482.68 cm**-1
  40:      1489.17 cm**-1
  41:      1495.42 cm**-1
  42:      1505.25 cm**-1
  43:      1523.07 cm**-1
  44:      1648.24 cm**-1
  45:      3054.81 cm**-1
  46:      3059.85 cm**-1
  47:      3061.95 cm**-1
  48:      3099.17 cm**-1
  49:      3111.57 cm**-1
  50:      3114.00 cm**-1
  51:      3130.57 cm**-1
  52:      3152.57 cm**-1
  53:      3154.21 cm**-1
  54:      3160.86 cm**-1
  55:      3412.61 cm**-1
  56:      3469.72 cm**-1

IR SPECTRUM
-----------

 Mode    freq (cm**-1)   T**2         TX         TY         TZ
-------------------------------------------------------------------
   6:        72.56    6.676814  ( -0.686701  -2.317038   0.914653)
   7:       101.42    7.727145  (  0.752849   1.872733  -1.911343)
   8:       134.11    8.585663  (  2.251076  -0.728201  -1.728595)
   9:       193.75    5.599656  (  0.106951   0.019869   2.363858)
  10:       253.96    0.801920  ( -0.411256   0.525574   0.597128)
  11:       331.79    2.519283  ( -0.068830   1.582295   0.104345)
  12:       394.22    4.203702  ( -0.204038   0.822637  -1.866906)
  13:       449.71    3.380797  (  0.678494   0.061789  -1.707813)
  14:       778.33    9.124855  ( -1.255285   1.950539   1.935074)
  15:       815.97    4.181372  (  0.272367   1.368111   1.495146)
  16:       837.45    4.384275  (  0.222988   0.003679  -2.081955)
  17:       860.76    1.167143  (  0.448189  -0.258097  -0.948502)
  18:       893.28   14.380579  ( -0.547795  -2.318707  -2.950271)
  19:       915.36    3.422040  ( -0.082090  -0.941282   1.590374)
  20:       971.95   17.697041  (  1.543488   2.551937   2.966868)
  21:      1022.58   12.736765  (  1.357034  -1.476446   2.952174)
  22:      1049.25   18.352536  (  2.012453  -2.314551   2.990889)
  23:      1059.63   59.638090  ( -6.564644   4.058711  -0.265337)
  24:      1074.01    4.169361  ( -1.116182  -1.369030   1.024331)
  25:      1102.13   15.833338  ( -0.738369   0.049400  -3.909694)
  26:      1141.64   14.561329  ( -2.568759   2.401390  -1.481936)
  27:      1157.66    6.194021  ( -1.821213   1.434172  -0.905736)
  28:      1174.07    1.705016  ( -1.256618   0.289039   0.205869)
  29:      1229.78    9.032114  ( -0.458801  -2.965046   0.173547)
  30:      1245.89   10.044810  (  1.559174  -2.155347   1.722865)
  31:      1282.56    0.472704  ( -0.321879   0.091840  -0.600553)
  32:      1308.46    0.541343  (  0.559682   0.183824  -0.440804)
  33:      1347.30    6.340269  ( -0.331048  -2.355573   0.825803)
  34:      1374.50    6.269621  ( -0.261214  -1.560185   1.940930)
  35:      1386.78    7.980344  ( -0.734956   0.831890   2.597719)
  36:      1421.38   37.203626  (  0.932029   3.148686  -5.140110)
  37:      1423.60   56.832678  ( -0.034226  -3.947905   6.422270)
  38:      1430.99    2.634471  (  0.865027   0.637241   1.216604)
  39:      1482.68    3.787178  ( -0.759044   0.622178  -1.680454)
  40:      1489.17   16.566462  ( -1.291195   3.148378   2.233157)
  41:      1495.42    2.916736  ( -1.045995   1.200620   0.617366)
  42:      1505.25   15.924629  (  3.896412   0.840433  -0.190454)
  43:      1523.07    1.987239  ( -0.401315   0.318698   1.313247)
  44:      1648.24   43.264438  ( -6.118793  -2.348535  -0.556054)
  45:      3054.81   29.988580  (  4.491762  -3.068507   0.630014)
  46:      3059.85    2.829684  (  1.549876   0.057472   0.651355)
  47:      3061.95    4.109535  (  0.955724   0.316323   1.759564)
  48:      3099.17    3.668462  (  1.413784   1.027857  -0.783062)
  49:      3111.57    8.642666  ( -2.108457  -1.687996   1.160924)
  50:      3114.00    6.802194  ( -0.100046  -2.189934   1.412930)
  51:      3130.57    2.322550  (  0.431053  -1.156113  -0.894509)
  52:      3152.57    2.176902  ( -0.232923  -0.757924  -1.244267)
  53:      3154.21    0.720444  ( -0.615596  -0.543008   0.215937)
  54:      3160.86    2.417577  (  0.552313  -1.168365  -0.864553)
  55:      3412.61   32.763592  ( -4.925300  -2.413166  -1.637571)
  56:      3469.72   58.634461  (  3.162489  -5.721711  -3.986872)

--------------------------
THERMOCHEMISTRY AT 298.15K
--------------------------

Temperature         ... 298.15 K
Pressure            ... 1.00 atm
Total Mass          ... 102.16 AMU

Throughout the following assumptions are being made:
  (1) The electronic state is orbitally nondegenerate
  (2) There are no thermally accessible electronically excited states
  (3) Hindered rotations indicated by low frequency modes) are not
      treated as such but are treated as vibrations and this may
      case some error
  (4) All equations used are the standard statistical mechanics
      equations for an ideal gas
  (5) All vibrations are strinctly harmonic

------------
INNER ENERGY
------------

The inner energy is: U= E(el) + E(ZPE) + E(vib) + E(rot) + E(trans)
    E(el)   - is the total energy from the electronic structure calculation
              = E(kin-el) + E(nuc-el) + E(el-el) + E(nuc-nuc)
    E(ZPE)  - the the zero temperature vibrational energy from the frequency calculation
    E(vib)  - the the finite temperature correction to E(ZPE) due to population
              of excietd vibrational states
    E(rot)  - is the rotational thermal energy
    E(trans)- is the translational thermal energy

Summary of contributions to the inner energy U:
Electronic energy                ...   -327.18555112 Eh
Zero point energy                ...      0.17624491 Eh     110.60 kcal/mol
Thermal vibrational correction   ...      0.00497136 Eh       3.12 kcal/mol
Thermal rotational correction    ...      0.00141627 Eh       0.89 kcal/mol
Thermal translational correction ...      0.00141627 Eh       0.89 kcal/mol
-----------------------------------------------------------------------
Total thermal energy                   -327.00150231 Eh

Summary of corrections to the electronic energy:
(perhaps to be used in another calculation)
Total thermal correction                  0.00780391 Eh       4.90 kcal/mol
Non-thermal (ZPE) correction              0.17624491 Eh     110.60 kcal/mol
-----------------------------------------------------------------------
Total correction                          0.18404881 Eh     115.49 kcal/mol

--------
ENTHALPY
--------

The enthalpy is H = U + kB*T
                kB is Boltzmann's constant
Total free energy                 ...   -327.00150231 Eh
Thermal Enthalpy correction       ...      0.00094421 Eh       0.59 kcal/mol
-----------------------------------------------------------------------
Total Enthalpy                    ...   -327.00055810 Eh

-------
ENTROPY
-------

The entropy contributions are T*S = T*(S(el)+S(vib)+S(rot)+S(trans)
     S(el)   - electronic entropy
     S(vib)  - vibrational entropy
     S(rot)  - rotational entropy
     S(trans)- translational entropy
The entropies will be listed as mutliplied by the temperature to get
units of energy

Electronic entropy                ...      0.00000000 Eh      0.00 kcal/mol
Vibrational entropy               ...      0.00916116 Eh      5.75 kcal/mol
Rotational entropy                ...      0.01213693 Eh      7.62 kcal/mol
Translational entropy             ...      0.01890147 Eh     11.86 kcal/mol
-----------------------------------------------------------------------
Final entropy term                ...      0.04019955 Eh     25.23 kcal/mol

CAUTION: The rotational entropy is not quite correctly treated here
         because it includes a symmetry number that is not yet correctly
         implemented in ORCA!
For a nonlinear molecule the correct rotational entropy is:
    S(rot) = R*(ln(qrot/sn)+1.5)
    R    = 8.31441 J/mol/K = 1.987191683e-3 kcal/mol/K
    qrot = 256033.3665387
    sn is the rotational symmetry number. We have assumed 3 here
       if it is different for your molecule then you should correct
       the printed rotational entropy by manually evaluating the equation
       as given above

For convenience we print out the resulting values for sn=1 - 12:
 sn= 1  qrot/sn=  256033.3665 T*S(rot)=     8.27 kcal/mol T*S(tot)=    25.88 kcal/mol
 sn= 2  qrot/sn=  128016.6833 T*S(rot)=     7.86 kcal/mol T*S(tot)=    25.47 kcal/mol
 sn= 3  qrot/sn=   85344.4555 T*S(rot)=     7.62 kcal/mol T*S(tot)=    25.23 kcal/mol
 sn= 4  qrot/sn=   64008.3416 T*S(rot)=     7.45 kcal/mol T*S(tot)=    25.06 kcal/mol
 sn= 5  qrot/sn=   51206.6733 T*S(rot)=     7.31 kcal/mol T*S(tot)=    24.92 kcal/mol
 sn= 6  qrot/sn=   42672.2278 T*S(rot)=     7.21 kcal/mol T*S(tot)=    24.81 kcal/mol
 sn= 7  qrot/sn=   36576.1952 T*S(rot)=     7.11 kcal/mol T*S(tot)=    24.72 kcal/mol
 sn= 8  qrot/sn=   32004.1708 T*S(rot)=     7.03 kcal/mol T*S(tot)=    24.64 kcal/mol
 sn= 9  qrot/sn=   28448.1518 T*S(rot)=     6.97 kcal/mol T*S(tot)=    24.57 kcal/mol
 sn=10  qrot/sn=   25603.3367 T*S(rot)=     6.90 kcal/mol T*S(tot)=    24.51 kcal/mol
 sn=11  qrot/sn=   23275.7606 T*S(rot)=     6.85 kcal/mol T*S(tot)=    24.46 kcal/mol
 sn=12  qrot/sn=   21336.1139 T*S(rot)=     6.79 kcal/mol T*S(tot)=    24.40 kcal/mol

-------------------
GIBBS FREE ENTHALPY
-------------------

The Gibbs free enthalpy is G = H - T*S

Total enthalpy                    ...   -327.00055810 Eh
Total entropy correction          ...     -0.04019955 Eh    -25.23 kcal/mol
-----------------------------------------------------------------------
Final Gibbs free enthalpy         ...   -327.04075765 Eh

For completeness - the Gibbs free enthalpy minus the electronic energy
G-E(el)                           ...      0.14479347 Eh     90.86 kcal/mol

                             ****ORCA TERMINATED NORMALLY****
TOTAL RUN TIME: 0 days 0 hours 50 minutes 2 seconds 758 msec
