                         Program Version 3.0.3 - RELEASE   -
|  1> ! NORI PBE0 def2-TZVP UseSym TightOPT Freq TightSCF Grid3 FinalGrid5 XYZFile
|  2> % pal
|  3>     nprocs 8
|  4> end
|  5> %method
|  6>     SymThresh 5.0e-2
|  7> end
|  8> % geom
|  9>     MaxIter 10
| 10> end
| 11> % maxcore 2000
| 12> % output
| 13>     printlevel mini
| 14>     print[ P_Basis ] 0
| 15>     print[ P_SCFInfo ] 1
| 16>     print[ P_SCFIterInfo ] 1
| 17>     print[ P_OrbEn ] 0
| 18>     print[ P_Cartesian ] 0
| 19> end
| 20> % elprop
| 21>     Dipole false
| 22> end
| 23> *xyz 1 1
| 24>  C        0.9272201254    -0.1611998512     0.2684178797
| 25>  C        2.4225525913    -0.0513195202     0.0835666130
| 26>  N        3.1339495064    -0.7835519188     1.2248284479
| 27>  C        2.9361756035    -0.6225899225    -1.2311312542
| 28>  C        4.4655258519    -0.6949066973    -1.2826990152
| 29>  O        4.4113066623    -2.0430627305    -0.7447027392
| 30>  C        3.0458656684    -2.1523317252    -1.2251877957
| 31>  H        0.4209239200     0.4060101723    -0.5132456586
| 32>  H        0.6066419159     0.2493783115     1.2286271230
| 33>  H        0.5898503087    -1.1990470802     0.1968471222
| 34>  H        2.7390071881     0.9911994946     0.1646267748
| 35>  H        2.4773256372    -1.3495067228     1.7616586554
| 36>  H        3.5857648225    -0.1417537402     1.8736983670
| 37>  H        3.8540542995    -1.4221959487     0.7979252262
| 38>  H        2.4175826563    -0.1468044844    -2.0625559363
| 39>  H        4.8759595607    -0.6975261552    -2.2945044799
| 40>  H        5.0536602102    -0.0179463187    -0.6555088762
| 41>  H        2.4132544444    -2.7406008856    -0.5540537190
| 42>  H        3.0199490273    -2.5984642768    -2.2214667350
| 43> *
| 44>
| 45>                          ****END OF INPUT****
 Total Charge           Charge          ....    1
 Multiplicity           Mult            ....    1
 Number of Electrons    NEL             ....   56
FINAL SINGLE POINT ENERGY      -327.195740916469
FINAL SINGLE POINT ENERGY      -327.195742424980
FINAL SINGLE POINT ENERGY      -327.195743069330

CARTESIAN COORDINATES (ANGSTROEM)
---------------------------------
  C      0.087372    0.747283   -2.236484
  C      0.251253   -0.267431   -1.128642
  N      1.559058    0.001669   -0.378362
  C     -0.880862   -0.273092   -0.110534
  C     -0.574220   -1.152719    1.105554
  O      0.000504   -0.002594    1.781833
  C     -0.776766    0.863482    0.914117
  H     -0.813431    0.518824   -2.807058
  H      0.929037    0.725526   -2.932454
  H     -0.019082    1.761491   -1.841149
  H      0.357221   -1.270548   -1.548397
  H      1.948764    0.907289   -0.637945
  H      2.268196   -0.702867   -0.572375
  H      1.343606    0.014798    0.652056
  H     -1.830861   -0.419903   -0.622788
  H     -1.462580   -1.507788    1.631994
  H      0.138896   -1.975996    1.002442
  H     -0.241901    1.781331    0.653929
  H     -1.729598    1.124983    1.379050

FINAL SINGLE POINT ENERGY      -327.195743364749
                    ***********************HURRAY********************
 Multiplicity           Mult            ....    1
 Number of Electrons    NEL             ....   56
 Basis Dimension        Dim             ....  289
FINAL SINGLE POINT ENERGY      -327.195743555986

VIBRATIONAL FREQUENCIES
-----------------------

   0:         0.00 cm**-1
   1:         0.00 cm**-1
   2:         0.00 cm**-1
   3:         0.00 cm**-1
   4:         0.00 cm**-1
   5:         0.00 cm**-1
   6:        95.56 cm**-1
   7:       229.65 cm**-1
   8:       252.34 cm**-1
   9:       269.44 cm**-1
  10:       310.46 cm**-1
  11:       339.62 cm**-1
  12:       383.65 cm**-1
  13:       454.48 cm**-1
  14:       549.02 cm**-1
  15:       762.29 cm**-1
  16:       834.26 cm**-1
  17:       874.70 cm**-1
  18:       884.23 cm**-1
  19:       932.44 cm**-1
  20:       972.46 cm**-1
  21:       994.19 cm**-1
  22:       999.99 cm**-1
  23:      1022.02 cm**-1
  24:      1049.52 cm**-1
  25:      1086.29 cm**-1
  26:      1146.80 cm**-1
  27:      1152.16 cm**-1
  28:      1155.45 cm**-1
  29:      1206.78 cm**-1
  30:      1216.00 cm**-1
  31:      1243.20 cm**-1
  32:      1298.78 cm**-1
  33:      1336.74 cm**-1
  34:      1363.30 cm**-1
  35:      1377.24 cm**-1
  36:      1399.57 cm**-1
  37:      1420.21 cm**-1
  38:      1483.81 cm**-1
  39:      1489.19 cm**-1
  40:      1509.19 cm**-1
  41:      1511.66 cm**-1
  42:      1537.95 cm**-1
  43:      1646.90 cm**-1
  44:      1691.09 cm**-1
  45:      2938.72 cm**-1
  46:      3055.45 cm**-1
  47:      3063.46 cm**-1
  48:      3069.51 cm**-1
  49:      3095.81 cm**-1
  50:      3126.14 cm**-1
  51:      3127.58 cm**-1
  52:      3133.93 cm**-1
  53:      3142.22 cm**-1
  54:      3154.22 cm**-1
  55:      3484.71 cm**-1
  56:      3546.73 cm**-1

IR SPECTRUM
-----------

 Mode    freq (cm**-1)   T**2         TX         TY         TZ
-------------------------------------------------------------------
   6:        95.56    7.460868  (  0.019770   2.713874  -0.308814)
   7:       229.65    0.889832  (  0.873890   0.206545  -0.288943)
   8:       252.34   40.660232  (  4.530559   0.536014  -4.454992)
   9:       269.44   28.561962  ( -3.448286   0.815234   4.000835)
  10:       310.46    2.796370  ( -0.040880  -0.042978   1.671183)
  11:       339.62    3.681746  ( -1.567729   0.074522   1.103820)
  12:       383.65    2.683339  (  0.462628  -0.584966   1.458468)
  13:       454.48    7.952421  ( -1.883152  -0.812711   1.935371)
  14:       549.02    8.112951  (  2.487034  -0.726548  -1.183106)
  15:       762.29    2.974885  (  0.685019  -0.957473  -1.260508)
  16:       834.26   25.905493  (  1.228477   0.228642   4.933970)
  17:       874.70    0.995276  ( -0.077220   0.979124  -0.175014)
  18:       884.23    1.248984  ( -0.685451   0.630707   0.617536)
  19:       932.44   18.881683  ( -3.900993  -0.171002  -1.906488)
  20:       972.46    3.552242  (  1.175599   0.539992   1.370627)
  21:       994.19   26.862199  ( -0.701107  -4.776833   1.884810)
  22:       999.99   45.359336  ( -1.449059   6.575097  -0.166316)
  23:      1022.02   11.623554  ( -3.121016  -0.234003   1.352056)
  24:      1049.52    7.922281  (  0.964679   1.105940   2.401785)
  25:      1086.29   16.396567  ( -0.866119   0.012253  -3.955535)
  26:      1146.80    1.069818  (  0.001317   0.964787  -0.372829)
  27:      1152.16   19.897708  ( -2.896627  -1.642955   2.967821)
  28:      1155.45   21.363964  ( -1.275588  -0.669765  -4.391839)
  29:      1206.78   13.137066  (  3.438782   0.092543  -1.141613)
  30:      1216.00   11.947441  ( -0.565649  -2.121893   2.669279)
  31:      1243.20   13.945914  (  1.264491  -3.203066  -1.444765)
  32:      1298.78    0.026421  (  0.008519  -0.140054  -0.082058)
  33:      1336.74    3.719878  ( -1.773240   0.727044  -0.216579)
  34:      1363.30    1.638977  ( -0.196970   0.873998   0.914499)
  35:      1377.24   14.137679  ( -1.229278   0.084708   3.552377)
  36:      1399.57    2.263538  ( -0.263161  -0.704355   1.303138)
  37:      1420.21   20.208136  (  2.449100  -2.405453   2.902385)
  38:      1483.81   28.145753  (  5.044954   1.533306   0.585799)
  39:      1489.19   11.601346  ( -2.135939   2.021808   1.717966)
  40:      1509.19   25.619861  ( -4.522294   2.272045  -0.080797)
  41:      1511.66  138.755567  ( 11.330568   3.073524   0.962940)
  42:      1537.95   21.386627  ( -4.427462  -0.581207   1.202665)
  43:      1646.90    6.257787  ( -1.381407  -1.833682   0.993535)
  44:      1691.09   19.451314  (  1.258123  -3.985664  -1.408162)
  45:      2938.72  450.489235  (-10.767383  -0.674372  18.278346)
  46:      3055.45    1.443721  ( -0.898723  -0.710945  -0.361353)
  47:      3063.46   39.425250  ( -0.867525   6.214795  -0.221311)
  48:      3069.51    9.958144  ( -1.413132  -1.691356   2.258432)
  49:      3095.81    2.320182  ( -0.210230  -1.471186   0.334060)
  50:      3126.14   14.551869  (  3.354391   0.327046  -1.786889)
  51:      3127.58    0.664223  ( -0.160258   0.754312  -0.263731)
  52:      3133.93    6.120366  (  1.170638  -1.547289  -1.534884)
  53:      3142.22    2.769408  ( -0.833086  -0.242927  -1.419987)
  54:      3154.22    1.216041  ( -0.702540  -0.763019   0.374540)
  55:      3484.71   83.203635  ( -8.075197  -1.955573   3.764382)
  56:      3546.73   88.836284  ( -3.653146   8.687624   0.126495)

--------------------------
THERMOCHEMISTRY AT 298.15K
--------------------------

Temperature         ... 298.15 K
Pressure            ... 1.00 atm
Total Mass          ... 102.16 AMU

Throughout the following assumptions are being made:
  (1) The electronic state is orbitally nondegenerate
  (2) There are no thermally accessible electronically excited states
  (3) Hindered rotations indicated by low frequency modes) are not
      treated as such but are treated as vibrations and this may
      case some error
  (4) All equations used are the standard statistical mechanics
      equations for an ideal gas
  (5) All vibrations are strinctly harmonic

------------
INNER ENERGY
------------

The inner energy is: U= E(el) + E(ZPE) + E(vib) + E(rot) + E(trans)
    E(el)   - is the total energy from the electronic structure calculation
              = E(kin-el) + E(nuc-el) + E(el-el) + E(nuc-nuc)
    E(ZPE)  - the the zero temperature vibrational energy from the frequency calculation
    E(vib)  - the the finite temperature correction to E(ZPE) due to population
              of excietd vibrational states
    E(rot)  - is the rotational thermal energy
    E(trans)- is the translational thermal energy

Summary of contributions to the inner energy U:
Electronic energy                ...   -327.19574356 Eh
Zero point energy                ...      0.17637833 Eh     110.68 kcal/mol
Thermal vibrational correction   ...      0.00447575 Eh       2.81 kcal/mol
Thermal rotational correction    ...      0.00141627 Eh       0.89 kcal/mol
Thermal translational correction ...      0.00141627 Eh       0.89 kcal/mol
-----------------------------------------------------------------------
Total thermal energy                   -327.01205694 Eh

Summary of corrections to the electronic energy:
(perhaps to be used in another calculation)
Total thermal correction                  0.00730829 Eh       4.59 kcal/mol
Non-thermal (ZPE) correction              0.17637833 Eh     110.68 kcal/mol
-----------------------------------------------------------------------
Total correction                          0.18368661 Eh     115.26 kcal/mol

--------
ENTHALPY
--------

The enthalpy is H = U + kB*T
                kB is Boltzmann's constant
Total free energy                 ...   -327.01205694 Eh
Thermal Enthalpy correction       ...      0.00094421 Eh       0.59 kcal/mol
-----------------------------------------------------------------------
Total Enthalpy                    ...   -327.01111273 Eh

-------
ENTROPY
-------

The entropy contributions are T*S = T*(S(el)+S(vib)+S(rot)+S(trans)
     S(el)   - electronic entropy
     S(vib)  - vibrational entropy
     S(rot)  - rotational entropy
     S(trans)- translational entropy
The entropies will be listed as mutliplied by the temperature to get
units of energy

Electronic entropy                ...      0.00000000 Eh      0.00 kcal/mol
Vibrational entropy               ...      0.00736234 Eh      4.62 kcal/mol
Rotational entropy                ...      0.01192975 Eh      7.49 kcal/mol
Translational entropy             ...      0.01890147 Eh     11.86 kcal/mol
-----------------------------------------------------------------------
Final entropy term                ...      0.03819355 Eh     23.97 kcal/mol

CAUTION: The rotational entropy is not quite correctly treated here
         because it includes a symmetry number that is not yet correctly
         implemented in ORCA!
For a nonlinear molecule the correct rotational entropy is:
    S(rot) = R*(ln(qrot/sn)+1.5)
    R    = 8.31441 J/mol/K = 1.987191683e-3 kcal/mol/K
    qrot = 205589.4195064
    sn is the rotational symmetry number. We have assumed 3 here
       if it is different for your molecule then you should correct
       the printed rotational entropy by manually evaluating the equation
       as given above

For convenience we print out the resulting values for sn=1 - 12:
 sn= 1  qrot/sn=  205589.4195 T*S(rot)=     8.14 kcal/mol T*S(tot)=    24.62 kcal/mol
 sn= 2  qrot/sn=  102794.7098 T*S(rot)=     7.73 kcal/mol T*S(tot)=    24.21 kcal/mol
 sn= 3  qrot/sn=   68529.8065 T*S(rot)=     7.49 kcal/mol T*S(tot)=    23.97 kcal/mol
 sn= 4  qrot/sn=   51397.3549 T*S(rot)=     7.32 kcal/mol T*S(tot)=    23.80 kcal/mol
 sn= 5  qrot/sn=   41117.8839 T*S(rot)=     7.18 kcal/mol T*S(tot)=    23.66 kcal/mol
 sn= 6  qrot/sn=   34264.9033 T*S(rot)=     7.08 kcal/mol T*S(tot)=    23.56 kcal/mol
 sn= 7  qrot/sn=   29369.9171 T*S(rot)=     6.98 kcal/mol T*S(tot)=    23.46 kcal/mol
 sn= 8  qrot/sn=   25698.6774 T*S(rot)=     6.90 kcal/mol T*S(tot)=    23.39 kcal/mol
 sn= 9  qrot/sn=   22843.2688 T*S(rot)=     6.84 kcal/mol T*S(tot)=    23.32 kcal/mol
 sn=10  qrot/sn=   20558.9420 T*S(rot)=     6.77 kcal/mol T*S(tot)=    23.25 kcal/mol
 sn=11  qrot/sn=   18689.9472 T*S(rot)=     6.72 kcal/mol T*S(tot)=    23.20 kcal/mol
 sn=12  qrot/sn=   17132.4516 T*S(rot)=     6.66 kcal/mol T*S(tot)=    23.15 kcal/mol

-------------------
GIBBS FREE ENTHALPY
-------------------

The Gibbs free enthalpy is G = H - T*S

Total enthalpy                    ...   -327.01111273 Eh
Total entropy correction          ...     -0.03819355 Eh    -23.97 kcal/mol
-----------------------------------------------------------------------
Final Gibbs free enthalpy         ...   -327.04930628 Eh

For completeness - the Gibbs free enthalpy minus the electronic energy
G-E(el)                           ...      0.14643727 Eh     91.89 kcal/mol

                             ****ORCA TERMINATED NORMALLY****
TOTAL RUN TIME: 0 days 0 hours 59 minutes 40 seconds 703 msec
