                         Program Version 3.0.3 - RELEASE   -
|  1> ! NORI PBE0 def2-TZVP UseSym TightOPT Freq TightSCF Grid3 FinalGrid5 XYZFile
|  2> % pal
|  3>     nprocs 8
|  4> end
|  5> %method
|  6>     SymThresh 5.0e-2
|  7> end
|  8> % geom
|  9>     MaxIter 10
| 10> end
| 11> % maxcore 2000
| 12> % output
| 13>     printlevel mini
| 14>     print[ P_Basis ] 0
| 15>     print[ P_SCFInfo ] 1
| 16>     print[ P_SCFIterInfo ] 1
| 17>     print[ P_OrbEn ] 0
| 18>     print[ P_Cartesian ] 0
| 19> end
| 20> % elprop
| 21>     Dipole false
| 22> end
| 23> *xyz 1 1
| 24>  C        1.2078865555     0.1240469460    -0.4679288936
| 25>  C        2.3955294128     0.0306324381     0.4600696846
| 26>  N        2.0052236108     0.5627474783     1.8287863918
| 27>  C        2.9135967407    -1.3733504638     0.6324037927
| 28>  O        3.7032266585    -1.8014196953    -0.4448495599
| 29>  C        4.3429579141    -1.6615739393     0.8196806249
| 30>  C        4.8285368874    -2.9109702114     1.4774752052
| 31>  H        1.5080500985    -0.2572882783    -1.4446122575
| 32>  H        0.8685779969     1.1534633050    -0.6036794547
| 33>  H        0.3718668848    -0.4866577098    -0.1160052983
| 34>  H        3.2119835164     0.6719780051     0.1201084748
| 35>  H        1.2510988943     0.0018210221     2.2322873977
| 36>  H        1.6716160624     1.5269103937     1.7681389812
| 37>  H        2.7966702539     0.5350967475     2.4751657200
| 38>  H        2.1783022187    -2.1018115305     0.9838819948
| 39>  H        5.0196604660    -0.8059418144     0.8569899267
| 40>  H        4.0897410374    -3.7098906114     1.3964351682
| 41>  H        5.0454019948    -2.7315874775     2.5329344272
| 42>  H        5.7501927961    -3.2472946042     0.9998076740
| 43> *
| 44>
| 45>                          ****END OF INPUT****
 Total Charge           Charge          ....    1
 Multiplicity           Mult            ....    1
 Number of Electrons    NEL             ....   56
FINAL SINGLE POINT ENERGY      -327.196761039477

CARTESIAN COORDINATES (ANGSTROEM)
---------------------------------
  C      1.816427   -1.440577   -0.620130
  C      0.957436   -0.201714   -0.706153
  N      0.511422   -0.000600   -2.144544
  C     -0.271441   -0.262750    0.162688
  O      0.000045   -0.000716    1.513598
  C     -0.824325    0.930410    0.819859
  C     -2.252932    1.020851    1.244370
  H      2.130233   -1.566138    0.416819
  H      2.717764   -1.362816   -1.232576
  H      1.261243   -2.337426   -0.909502
  H      1.529832    0.692714   -0.450504
  H     -0.052126   -0.793219   -2.461590
  H      1.314305    0.075308   -2.772411
  H     -0.054868    0.844821   -2.241000
  H     -0.928797   -1.117343   -0.018692
  H     -0.319822    1.879142    0.629083
  H     -2.677457    0.029360    1.407076
  H     -2.846710    1.543460    0.490823
  H     -2.327988    1.582737    2.177128

FINAL SINGLE POINT ENERGY      -327.196761946426
                    ***********************HURRAY********************
 Multiplicity           Mult            ....    1
 Number of Electrons    NEL             ....   56
 Basis Dimension        Dim             ....  289
FINAL SINGLE POINT ENERGY      -327.196762374227

VIBRATIONAL FREQUENCIES
-----------------------

   0:         0.00 cm**-1
   1:         0.00 cm**-1
   2:         0.00 cm**-1
   3:         0.00 cm**-1
   4:         0.00 cm**-1
   5:         0.00 cm**-1
   6:        70.32 cm**-1
   7:       137.07 cm**-1
   8:       185.13 cm**-1
   9:       202.98 cm**-1
  10:       218.75 cm**-1
  11:       260.08 cm**-1
  12:       305.25 cm**-1
  13:       364.67 cm**-1
  14:       420.54 cm**-1
  15:       460.43 cm**-1
  16:       520.06 cm**-1
  17:       809.40 cm**-1
  18:       835.50 cm**-1
  19:       868.82 cm**-1
  20:       931.81 cm**-1
  21:       962.68 cm**-1
  22:       965.91 cm**-1
  23:      1028.96 cm**-1
  24:      1037.82 cm**-1
  25:      1064.11 cm**-1
  26:      1113.88 cm**-1
  27:      1168.50 cm**-1
  28:      1178.23 cm**-1
  29:      1204.11 cm**-1
  30:      1227.29 cm**-1
  31:      1282.78 cm**-1
  32:      1324.80 cm**-1
  33:      1375.26 cm**-1
  34:      1389.93 cm**-1
  35:      1416.95 cm**-1
  36:      1420.94 cm**-1
  37:      1464.25 cm**-1
  38:      1477.07 cm**-1
  39:      1482.09 cm**-1
  40:      1488.86 cm**-1
  41:      1493.55 cm**-1
  42:      1523.47 cm**-1
  43:      1652.77 cm**-1
  44:      1658.05 cm**-1
  45:      3053.25 cm**-1
  46:      3063.13 cm**-1
  47:      3084.67 cm**-1
  48:      3105.24 cm**-1
  49:      3110.77 cm**-1
  50:      3134.05 cm**-1
  51:      3139.08 cm**-1
  52:      3155.45 cm**-1
  53:      3155.53 cm**-1
  54:      3417.11 cm**-1
  55:      3500.73 cm**-1
  56:      3510.62 cm**-1

IR SPECTRUM
-----------

 Mode    freq (cm**-1)   T**2         TX         TY         TZ
-------------------------------------------------------------------
   6:        70.32    0.878675  (  0.590904   0.018973  -0.727425)
   7:       137.07    2.194714  (  1.284238  -0.470456  -0.569314)
   8:       185.13    0.384619  ( -0.612119  -0.008972  -0.099239)
   9:       202.98    0.471865  ( -0.359080   0.544838  -0.214659)
  10:       218.75    0.585606  ( -0.090388  -0.519263   0.554799)
  11:       260.08    1.283304  ( -1.048084  -0.260857  -0.341729)
  12:       305.25   10.173095  ( -2.506800   1.819024   0.761711)
  13:       364.67    7.130852  (  0.498336   0.149587   2.619186)
  14:       420.54    0.856912  ( -0.721452  -0.381993  -0.436464)
  15:       460.43    3.318513  ( -0.330196   1.443411  -1.061154)
  16:       520.06   19.344990  ( -2.662690   0.158090   3.497153)
  17:       809.40   14.871050  (  0.029965  -2.885769   2.557829)
  18:       835.50    5.208971  ( -2.149679   0.365395   0.674047)
  19:       868.82    4.266106  ( -0.000579   0.953862  -1.832008)
  20:       931.81    5.017083  ( -0.739434  -1.747529  -1.190153)
  21:       962.68   29.294083  ( -3.880673   2.248621  -3.029548)
  22:       965.91   11.903762  (  3.352995  -0.618948  -0.527342)
  23:      1028.96   25.125336  (  0.465200  -0.690233   4.942925)
  24:      1037.82   14.031298  (  1.337621  -2.460477  -2.487593)
  25:      1064.11    3.373300  (  1.603033  -0.856721  -0.263847)
  26:      1113.88   16.434357  ( -0.328724   0.948365   3.927710)
  27:      1168.50    3.720592  ( -0.961003  -0.936408  -1.385715)
  28:      1178.23    0.657569  ( -0.376985  -0.261051   0.668807)
  29:      1204.11    1.769790  ( -0.115293   1.188470   0.586546)
  30:      1227.29   17.523118  ( -2.985597   1.826836   2.296084)
  31:      1282.78    7.362125  (  1.105288  -2.029160   1.422313)
  32:      1324.80   11.764806  (  2.535230  -0.802584  -2.166396)
  33:      1375.26   10.082179  (  0.573080   1.947026  -2.441894)
  34:      1389.93    3.381491  ( -0.495902   1.512896  -0.920173)
  35:      1416.95   27.236858  ( -4.111223   2.556216  -1.949478)
  36:      1420.94    9.263570  (  0.547673   2.511256  -1.630097)
  37:      1464.25   13.310150  ( -0.440338   2.340222   2.763985)
  38:      1477.07    1.651384  (  0.273267  -1.255670  -0.001024)
  39:      1482.09    4.276124  ( -1.303278   1.595961  -0.174637)
  40:      1488.86   15.605515  (  3.059282   2.280728   1.022049)
  41:      1493.55  146.917971  (  1.710331  -1.864758  11.853920)
  42:      1523.47   28.010698  (  4.276805  -0.672761   3.044179)
  43:      1652.77   52.365693  ( -4.129901  -5.868278   0.934303)
  44:      1658.05   36.000418  ( -4.423958   3.495904   2.051260)
  45:      3053.25    5.168605  (  0.064209   0.749277   2.145476)
  46:      3063.13    2.771939  ( -1.621107   0.332798  -0.182196)
  47:      3084.67    8.814058  (  1.456095   1.456748   2.138160)
  48:      3105.24   12.274193  (  2.108952   2.278896  -1.622697)
  49:      3110.77    3.320741  (  0.171506   1.806462   0.167397)
  50:      3134.05    5.524444  ( -1.867554  -1.308585   0.569465)
  51:      3139.08    3.538550  ( -0.503773   0.730042  -1.658855)
  52:      3155.45    3.586793  (  0.709308  -1.677990   0.517712)
  53:      3155.53    4.917469  (  0.736527   2.086799  -0.142363)
  54:      3417.11   38.181169  ( -1.263472   0.521401  -6.026023)
  55:      3500.73   81.399633  ( -4.544053  -7.756398   0.767789)
  56:      3510.62   86.688656  ( -7.568185   4.254635   3.362933)

--------------------------
THERMOCHEMISTRY AT 298.15K
--------------------------

Temperature         ... 298.15 K
Pressure            ... 1.00 atm
Total Mass          ... 102.16 AMU

Throughout the following assumptions are being made:
  (1) The electronic state is orbitally nondegenerate
  (2) There are no thermally accessible electronically excited states
  (3) Hindered rotations indicated by low frequency modes) are not
      treated as such but are treated as vibrations and this may
      case some error
  (4) All equations used are the standard statistical mechanics
      equations for an ideal gas
  (5) All vibrations are strinctly harmonic

------------
INNER ENERGY
------------

The inner energy is: U= E(el) + E(ZPE) + E(vib) + E(rot) + E(trans)
    E(el)   - is the total energy from the electronic structure calculation
              = E(kin-el) + E(nuc-el) + E(el-el) + E(nuc-nuc)
    E(ZPE)  - the the zero temperature vibrational energy from the frequency calculation
    E(vib)  - the the finite temperature correction to E(ZPE) due to population
              of excietd vibrational states
    E(rot)  - is the rotational thermal energy
    E(trans)- is the translational thermal energy

Summary of contributions to the inner energy U:
Electronic energy                ...   -327.19676237 Eh
Zero point energy                ...      0.17410368 Eh     109.25 kcal/mol
Thermal vibrational correction   ...      0.00572948 Eh       3.60 kcal/mol
Thermal rotational correction    ...      0.00141627 Eh       0.89 kcal/mol
Thermal translational correction ...      0.00141627 Eh       0.89 kcal/mol
-----------------------------------------------------------------------
Total thermal energy                   -327.01409668 Eh

Summary of corrections to the electronic energy:
(perhaps to be used in another calculation)
Total thermal correction                  0.00856202 Eh       5.37 kcal/mol
Non-thermal (ZPE) correction              0.17410368 Eh     109.25 kcal/mol
-----------------------------------------------------------------------
Total correction                          0.18266570 Eh     114.62 kcal/mol

--------
ENTHALPY
--------

The enthalpy is H = U + kB*T
                kB is Boltzmann's constant
Total free energy                 ...   -327.01409668 Eh
Thermal Enthalpy correction       ...      0.00094421 Eh       0.59 kcal/mol
-----------------------------------------------------------------------
Total Enthalpy                    ...   -327.01315247 Eh

-------
ENTROPY
-------

The entropy contributions are T*S = T*(S(el)+S(vib)+S(rot)+S(trans)
     S(el)   - electronic entropy
     S(vib)  - vibrational entropy
     S(rot)  - rotational entropy
     S(trans)- translational entropy
The entropies will be listed as mutliplied by the temperature to get
units of energy

Electronic entropy                ...      0.00000000 Eh      0.00 kcal/mol
Vibrational entropy               ...      0.01012549 Eh      6.35 kcal/mol
Rotational entropy                ...      0.01218342 Eh      7.65 kcal/mol
Translational entropy             ...      0.01890147 Eh     11.86 kcal/mol
-----------------------------------------------------------------------
Final entropy term                ...      0.04121038 Eh     25.86 kcal/mol

CAUTION: The rotational entropy is not quite correctly treated here
         because it includes a symmetry number that is not yet correctly
         implemented in ORCA!
For a nonlinear molecule the correct rotational entropy is:
    S(rot) = R*(ln(qrot/sn)+1.5)
    R    = 8.31441 J/mol/K = 1.987191683e-3 kcal/mol/K
    qrot = 268957.6598059
    sn is the rotational symmetry number. We have assumed 3 here
       if it is different for your molecule then you should correct
       the printed rotational entropy by manually evaluating the equation
       as given above

For convenience we print out the resulting values for sn=1 - 12:
 sn= 1  qrot/sn=  268957.6598 T*S(rot)=     8.30 kcal/mol T*S(tot)=    26.51 kcal/mol
 sn= 2  qrot/sn=  134478.8299 T*S(rot)=     7.89 kcal/mol T*S(tot)=    26.10 kcal/mol
 sn= 3  qrot/sn=   89652.5533 T*S(rot)=     7.65 kcal/mol T*S(tot)=    25.86 kcal/mol
 sn= 4  qrot/sn=   67239.4150 T*S(rot)=     7.47 kcal/mol T*S(tot)=    25.69 kcal/mol
 sn= 5  qrot/sn=   53791.5320 T*S(rot)=     7.34 kcal/mol T*S(tot)=    25.56 kcal/mol
 sn= 6  qrot/sn=   44826.2766 T*S(rot)=     7.23 kcal/mol T*S(tot)=    25.45 kcal/mol
 sn= 7  qrot/sn=   38422.5228 T*S(rot)=     7.14 kcal/mol T*S(tot)=    25.36 kcal/mol
 sn= 8  qrot/sn=   33619.7075 T*S(rot)=     7.06 kcal/mol T*S(tot)=    25.28 kcal/mol
 sn= 9  qrot/sn=   29884.1844 T*S(rot)=     6.99 kcal/mol T*S(tot)=    25.21 kcal/mol
 sn=10  qrot/sn=   26895.7660 T*S(rot)=     6.93 kcal/mol T*S(tot)=    25.15 kcal/mol
 sn=11  qrot/sn=   24450.6963 T*S(rot)=     6.88 kcal/mol T*S(tot)=    25.09 kcal/mol
 sn=12  qrot/sn=   22413.1383 T*S(rot)=     6.82 kcal/mol T*S(tot)=    25.04 kcal/mol

-------------------
GIBBS FREE ENTHALPY
-------------------

The Gibbs free enthalpy is G = H - T*S

Total enthalpy                    ...   -327.01315247 Eh
Total entropy correction          ...     -0.04121038 Eh    -25.86 kcal/mol
-----------------------------------------------------------------------
Final Gibbs free enthalpy         ...   -327.05436285 Eh

For completeness - the Gibbs free enthalpy minus the electronic energy
G-E(el)                           ...      0.14239952 Eh     89.36 kcal/mol

                             ****ORCA TERMINATED NORMALLY****
TOTAL RUN TIME: 0 days 0 hours 49 minutes 48 seconds 899 msec
