                         Program Version 3.0.3 - RELEASE   -
|  1> ! NORI PBE0 def2-TZVP UseSym TightOPT Freq TightSCF Grid3 FinalGrid5 XYZFile
|  2> % pal
|  3>     nprocs 8
|  4> end
|  5> %method
|  6>     SymThresh 5.0e-2
|  7> end
|  8> % geom
|  9>     MaxIter 10
| 10> end
| 11> % maxcore 2000
| 12> % output
| 13>     printlevel mini
| 14>     print[ P_Basis ] 0
| 15>     print[ P_SCFInfo ] 1
| 16>     print[ P_SCFIterInfo ] 1
| 17>     print[ P_OrbEn ] 0
| 18>     print[ P_Cartesian ] 0
| 19> end
| 20> % elprop
| 21>     Dipole false
| 22> end
| 23> *xyz 1 1
| 24>  C        0.7503870360    -0.0544446783    -0.1677912437
| 25>  C        2.2550123820     0.0234042674    -0.1750692766
| 26>  N        2.7785492330    -0.1629897719    -1.5883701166
| 27>  C        2.8999020418     1.2960892597     0.3109028324
| 28>  O        4.2685664690     1.1452108281     0.0394578169
| 29>  C        2.2485931246     2.6392894703     0.1865044182
| 30>  C        2.4334037774     1.9927889901     1.5361883007
| 31>  H        0.4061262795    -1.0213027682    -0.5406333249
| 32>  H        0.2930064779     0.7340755414    -0.7692167869
| 33>  H        0.3808866240     0.0399836505     0.8530624027
| 34>  H        2.6920400879    -0.8088610498     0.3837447718
| 35>  H        2.3331703500     0.4947393636    -2.2307362378
| 36>  H        2.6294387788    -1.1094133535    -1.9373199623
| 37>  H        3.7848066180     0.0507679566    -1.5609231326
| 38>  H        4.7845445432     1.8607197607     0.4213825049
| 39>  H        1.2428139475     2.7206485703    -0.2063591536
| 40>  H        2.8931489613     3.4730030771    -0.0652476831
| 41>  H        1.5596274098     1.6273401785     2.0601489814
| 42>  H        3.2015358583     2.3922807071     2.1884548890
| 43> *
| 44>
| 45>                          ****END OF INPUT****
 Total Charge           Charge          ....    1
 Multiplicity           Mult            ....    1
 Number of Electrons    NEL             ....   56
FINAL SINGLE POINT ENERGY      -327.210834016905
FINAL SINGLE POINT ENERGY      -327.210836222066

CARTESIAN COORDINATES (ANGSTROEM)
---------------------------------
  C      0.525160   -0.611128   -1.906572
  C      0.631208   -0.644030   -0.403859
  N      1.932080    0.002155    0.039052
  C     -0.437805    0.054336    0.396475
  O     -0.000593   -0.002907    1.728696
  C     -1.177472    1.257076   -0.104697
  C     -1.877338   -0.069474    0.054858
  H      1.353579   -1.151717   -2.368803
  H      0.513328    0.408575   -2.297664
  H     -0.392255   -1.106663   -2.223236
  H      0.704085   -1.672642   -0.039266
  H      2.025459    0.937920   -0.360229
  H      2.749979   -0.546661   -0.224335
  H      1.882398    0.095658    1.062508
  H     -0.676272    0.311872    2.335797
  H     -1.004694    1.623439   -1.109067
  H     -1.396610    2.032730    0.619503
  H     -2.172391   -0.610051   -0.835475
  H     -2.564741   -0.182240    0.885063

FINAL SINGLE POINT ENERGY      -327.210837163946
                    ***********************HURRAY********************
 Multiplicity           Mult            ....    1
 Number of Electrons    NEL             ....   56
 Basis Dimension        Dim             ....  289
FINAL SINGLE POINT ENERGY      -327.210837391605

VIBRATIONAL FREQUENCIES
-----------------------

   0:         0.00 cm**-1
   1:         0.00 cm**-1
   2:         0.00 cm**-1
   3:         0.00 cm**-1
   4:         0.00 cm**-1
   5:         0.00 cm**-1
   6:        77.23 cm**-1
   7:       114.46 cm**-1
   8:       223.46 cm**-1
   9:       242.43 cm**-1
  10:       257.40 cm**-1
  11:       267.35 cm**-1
  12:       351.67 cm**-1
  13:       385.67 cm**-1
  14:       406.58 cm**-1
  15:       476.90 cm**-1
  16:       545.83 cm**-1
  17:       681.64 cm**-1
  18:       766.99 cm**-1
  19:       834.06 cm**-1
  20:       897.19 cm**-1
  21:       911.49 cm**-1
  22:       953.42 cm**-1
  23:       973.38 cm**-1
  24:       985.77 cm**-1
  25:      1012.71 cm**-1
  26:      1060.96 cm**-1
  27:      1091.80 cm**-1
  28:      1095.28 cm**-1
  29:      1134.05 cm**-1
  30:      1165.63 cm**-1
  31:      1190.21 cm**-1
  32:      1225.82 cm**-1
  33:      1292.49 cm**-1
  34:      1379.78 cm**-1
  35:      1398.83 cm**-1
  36:      1424.58 cm**-1
  37:      1428.11 cm**-1
  38:      1454.04 cm**-1
  39:      1472.93 cm**-1
  40:      1488.56 cm**-1
  41:      1496.40 cm**-1
  42:      1511.98 cm**-1
  43:      1635.69 cm**-1
  44:      1663.72 cm**-1
  45:      3066.66 cm**-1
  46:      3090.26 cm**-1
  47:      3141.60 cm**-1
  48:      3155.29 cm**-1
  49:      3158.05 cm**-1
  50:      3163.16 cm**-1
  51:      3237.15 cm**-1
  52:      3249.51 cm**-1
  53:      3359.17 cm**-1
  54:      3476.14 cm**-1
  55:      3532.33 cm**-1
  56:      3867.28 cm**-1

IR SPECTRUM
-----------

 Mode    freq (cm**-1)   T**2         TX         TY         TZ
-------------------------------------------------------------------
   6:        77.23   30.909923  (  0.841006   5.317995  -1.386204)
   7:       114.46   77.263102  (  3.386050   8.070349  -0.816841)
   8:       223.46    9.311770  (  0.685224   2.887755  -0.709302)
   9:       242.43    7.357034  (  2.337662  -0.404402  -1.314849)
  10:       257.40    6.569116  (  0.733690  -2.383341  -0.592030)
  11:       267.35    3.050229  ( -1.587663   0.111331   0.719139)
  12:       351.67   33.159796  ( -3.407371   0.190500   4.638246)
  13:       385.67    7.154762  (  2.587146   0.526879   0.428764)
  14:       406.58    4.384553  ( -0.159148   0.824417   1.918218)
  15:       476.90    4.190584  ( -0.263742   0.858356   1.839633)
  16:       545.83    2.843558  ( -1.634517   0.152650  -0.385498)
  17:       681.64    8.857559  (  2.424190  -1.083049   1.344569)
  18:       766.99    0.300259  ( -0.075224   0.297010   0.454297)
  19:       834.06    0.605260  (  0.056298  -0.025365   0.775530)
  20:       897.19    2.796475  ( -0.187672  -1.312706  -1.018851)
  21:       911.49   26.043770  (  3.213918  -0.745179   3.893483)
  22:       953.42   11.988688  ( -0.106013  -0.043715   3.460569)
  23:       973.38   18.829747  ( -1.962319  -1.384466   3.614181)
  24:       985.77   13.407306  (  0.982803  -3.474498  -0.607670)
  25:      1012.71    9.612032  ( -0.565073   2.281606  -2.021632)
  26:      1060.96   14.869328  ( -3.600587   1.090410  -0.846232)
  27:      1091.80   39.647555  (  4.113115   1.476658   4.533136)
  28:      1095.28    9.604030  ( -1.397618   0.490039  -2.722234)
  29:      1134.05   77.205333  ( -1.042048   0.146027   8.723425)
  30:      1165.63   26.151678  (  2.751506  -1.484848   4.046741)
  31:      1190.21    1.793369  (  0.993424  -0.249533   0.862677)
  32:      1225.82   18.875776  (  4.310639  -0.291382   0.457458)
  33:      1292.49   13.638011  ( -0.265885   0.944805   3.560149)
  34:      1379.78   31.031190  ( -2.935589   1.653935  -4.435990)
  35:      1398.83   16.508651  (  3.236006  -1.735946   1.738795)
  36:      1424.58   29.475655  ( -3.689385  -1.336930  -3.751895)
  37:      1428.11   27.182519  ( -4.525084   0.579928   2.523849)
  38:      1454.04   10.994765  (  2.520112   2.153013  -0.091290)
  39:      1472.93  165.448320  (-11.806552  -4.146749  -2.976259)
  40:      1488.56   20.416945  ( -2.423095  -3.808936  -0.193813)
  41:      1496.40    6.558961  (  1.918744  -1.690659   0.138040)
  42:      1511.98   22.714328  (  3.180514  -1.522161   3.206506)
  43:      1635.69   36.438957  ( -0.110589   4.491347  -4.031691)
  44:      1663.72   39.279428  ( -3.675814   4.343970   2.626355)
  45:      3066.66    2.180479  ( -1.080854  -0.787024   0.626759)
  46:      3090.26    1.470258  ( -0.590805   0.875886  -0.595006)
  47:      3141.60    4.721556  (  1.233000  -1.777639  -0.203138)
  48:      3155.29    0.874974  (  0.409547   0.825825  -0.158931)
  49:      3158.05    0.530921  ( -0.625232   0.252070   0.276525)
  50:      3163.16    1.048802  (  0.362338   0.730297  -0.619822)
  51:      3237.15    0.509670  ( -0.384108  -0.547437   0.249886)
  52:      3249.51    0.472055  ( -0.233933   0.039557  -0.644799)
  53:      3359.17   90.126782  (  0.389945  -1.729130  -9.326566)
  54:      3476.14   89.050385  ( -5.889445  -2.893334   6.781846)
  55:      3532.33   88.937013  (  6.037446  -7.194255  -0.853789)
  56:      3867.28   96.809147  (  4.343820  -2.036911  -8.590190)

--------------------------
THERMOCHEMISTRY AT 298.15K
--------------------------

Temperature         ... 298.15 K
Pressure            ... 1.00 atm
Total Mass          ... 102.16 AMU

Throughout the following assumptions are being made:
  (1) The electronic state is orbitally nondegenerate
  (2) There are no thermally accessible electronically excited states
  (3) Hindered rotations indicated by low frequency modes) are not
      treated as such but are treated as vibrations and this may
      case some error
  (4) All equations used are the standard statistical mechanics
      equations for an ideal gas
  (5) All vibrations are strinctly harmonic

------------
INNER ENERGY
------------

The inner energy is: U= E(el) + E(ZPE) + E(vib) + E(rot) + E(trans)
    E(el)   - is the total energy from the electronic structure calculation
              = E(kin-el) + E(nuc-el) + E(el-el) + E(nuc-nuc)
    E(ZPE)  - the the zero temperature vibrational energy from the frequency calculation
    E(vib)  - the the finite temperature correction to E(ZPE) due to population
              of excietd vibrational states
    E(rot)  - is the rotational thermal energy
    E(trans)- is the translational thermal energy

Summary of contributions to the inner energy U:
Electronic energy                ...   -327.21083739 Eh
Zero point energy                ...      0.17421851 Eh     109.32 kcal/mol
Thermal vibrational correction   ...      0.00563648 Eh       3.54 kcal/mol
Thermal rotational correction    ...      0.00141627 Eh       0.89 kcal/mol
Thermal translational correction ...      0.00141627 Eh       0.89 kcal/mol
-----------------------------------------------------------------------
Total thermal energy                   -327.02814986 Eh

Summary of corrections to the electronic energy:
(perhaps to be used in another calculation)
Total thermal correction                  0.00846902 Eh       5.31 kcal/mol
Non-thermal (ZPE) correction              0.17421851 Eh     109.32 kcal/mol
-----------------------------------------------------------------------
Total correction                          0.18268753 Eh     114.64 kcal/mol

--------
ENTHALPY
--------

The enthalpy is H = U + kB*T
                kB is Boltzmann's constant
Total free energy                 ...   -327.02814986 Eh
Thermal Enthalpy correction       ...      0.00094421 Eh       0.59 kcal/mol
-----------------------------------------------------------------------
Total Enthalpy                    ...   -327.02720565 Eh

-------
ENTROPY
-------

The entropy contributions are T*S = T*(S(el)+S(vib)+S(rot)+S(trans)
     S(el)   - electronic entropy
     S(vib)  - vibrational entropy
     S(rot)  - rotational entropy
     S(trans)- translational entropy
The entropies will be listed as mutliplied by the temperature to get
units of energy

Electronic entropy                ...      0.00000000 Eh      0.00 kcal/mol
Vibrational entropy               ...      0.00975372 Eh      6.12 kcal/mol
Rotational entropy                ...      0.01200783 Eh      7.54 kcal/mol
Translational entropy             ...      0.01890147 Eh     11.86 kcal/mol
-----------------------------------------------------------------------
Final entropy term                ...      0.04066301 Eh     25.52 kcal/mol

CAUTION: The rotational entropy is not quite correctly treated here
         because it includes a symmetry number that is not yet correctly
         implemented in ORCA!
For a nonlinear molecule the correct rotational entropy is:
    S(rot) = R*(ln(qrot/sn)+1.5)
    R    = 8.31441 J/mol/K = 1.987191683e-3 kcal/mol/K
    qrot = 223314.3371390
    sn is the rotational symmetry number. We have assumed 3 here
       if it is different for your molecule then you should correct
       the printed rotational entropy by manually evaluating the equation
       as given above

For convenience we print out the resulting values for sn=1 - 12:
 sn= 1  qrot/sn=  223314.3371 T*S(rot)=     8.19 kcal/mol T*S(tot)=    26.17 kcal/mol
 sn= 2  qrot/sn=  111657.1686 T*S(rot)=     7.78 kcal/mol T*S(tot)=    25.76 kcal/mol
 sn= 3  qrot/sn=   74438.1124 T*S(rot)=     7.54 kcal/mol T*S(tot)=    25.52 kcal/mol
 sn= 4  qrot/sn=   55828.5843 T*S(rot)=     7.36 kcal/mol T*S(tot)=    25.35 kcal/mol
 sn= 5  qrot/sn=   44662.8674 T*S(rot)=     7.23 kcal/mol T*S(tot)=    25.21 kcal/mol
 sn= 6  qrot/sn=   37219.0562 T*S(rot)=     7.12 kcal/mol T*S(tot)=    25.11 kcal/mol
 sn= 7  qrot/sn=   31902.0482 T*S(rot)=     7.03 kcal/mol T*S(tot)=    25.01 kcal/mol
 sn= 8  qrot/sn=   27914.2921 T*S(rot)=     6.95 kcal/mol T*S(tot)=    24.94 kcal/mol
 sn= 9  qrot/sn=   24812.7041 T*S(rot)=     6.88 kcal/mol T*S(tot)=    24.87 kcal/mol
 sn=10  qrot/sn=   22331.4337 T*S(rot)=     6.82 kcal/mol T*S(tot)=    24.80 kcal/mol
 sn=11  qrot/sn=   20301.3034 T*S(rot)=     6.77 kcal/mol T*S(tot)=    24.75 kcal/mol
 sn=12  qrot/sn=   18609.5281 T*S(rot)=     6.71 kcal/mol T*S(tot)=    24.70 kcal/mol

-------------------
GIBBS FREE ENTHALPY
-------------------

The Gibbs free enthalpy is G = H - T*S

Total enthalpy                    ...   -327.02720565 Eh
Total entropy correction          ...     -0.04066301 Eh    -25.52 kcal/mol
-----------------------------------------------------------------------
Final Gibbs free enthalpy         ...   -327.06786866 Eh

For completeness - the Gibbs free enthalpy minus the electronic energy
G-E(el)                           ...      0.14296873 Eh     89.71 kcal/mol

                             ****ORCA TERMINATED NORMALLY****
TOTAL RUN TIME: 0 days 0 hours 56 minutes 43 seconds 454 msec
