                         Program Version 3.0.3 - RELEASE   -
|  1> ! NORI PBE0 def2-TZVP UseSym TightOPT Freq TightSCF Grid3 FinalGrid5 XYZFile
|  2> % pal
|  3>     nprocs 8
|  4> end
|  5> %method
|  6>     SymThresh 5.0e-2
|  7> end
|  8> % geom
|  9>     MaxIter 10
| 10> end
| 11> % maxcore 2000
| 12> % output
| 13>     printlevel mini
| 14>     print[ P_Basis ] 0
| 15>     print[ P_SCFInfo ] 1
| 16>     print[ P_SCFIterInfo ] 1
| 17>     print[ P_OrbEn ] 0
| 18>     print[ P_Cartesian ] 0
| 19> end
| 20> % elprop
| 21>     Dipole false
| 22> end
| 23> *xyz 1 1
| 24>  C        0.6515875801     0.3936777751    -0.7429910872
| 25>  C        1.9622853936    -0.2362127344    -0.3427636602
| 26>  N        3.0077376876     0.8099209812    -0.0809035003
| 27>  C        4.3451268745     0.2756172249     0.3258470875
| 28>  C        5.3254790129     1.3899443383     0.5598385798
| 29>  C        5.4951607794     1.9766717483     1.8933845034
| 30>  O        6.4054003619     1.0251169935     1.3767382684
| 31>  H       -0.0772096486    -0.3953198955    -0.9313874817
| 32>  H        0.7432643796     0.9784701341    -1.6614490214
| 33>  H        0.2460762657     1.0313087267     0.0461811569
| 34>  H        2.3649196936    -0.8826164390    -1.1243585969
| 35>  H        1.8771594194    -0.8208504061     0.5745229846
| 36>  H        2.6706158124     1.4455518782     0.6462961718
| 37>  H        3.1127226307     1.3846278351    -0.9205759065
| 38>  H        4.6782076365    -0.3928376093    -0.4704347272
| 39>  H        4.2071614564    -0.3066973091     1.2377191831
| 40>  H        5.5917309747     1.9837532229    -0.3155540304
| 41>  H        4.8834619480     1.6274932023     2.7229654649
| 42>  H        5.8766117416     2.9896403325     1.9774946114
| 43> *
| 44>
| 45>                          ****END OF INPUT****
 Total Charge           Charge          ....    1
 Multiplicity           Mult            ....    1
 Number of Electrons    NEL             ....   56
FINAL SINGLE POINT ENERGY      -327.185829841298

CARTESIAN COORDINATES (ANGSTROEM)
---------------------------------
  C     -0.095136   -0.098891   -3.437589
  C     -0.351815   -0.796784   -2.125385
  N      0.190546    0.000000   -0.973549
  C     -0.021455   -0.616633    0.373418
  C      0.555254    0.244846    1.460916
  C     -0.264612    1.257530    2.134217
  O     -0.000122   -0.000276    2.725054
  H     -0.496725   -0.709028   -4.247411
  H      0.972651    0.033106   -3.628078
  H     -0.588570    0.874576   -3.486670
  H      0.131094   -1.773607   -2.076194
  H     -1.416526   -0.931432   -1.930038
  H     -0.233160    0.930891   -0.981548
  H      1.190681    0.152561   -1.123658
  H      0.445687   -1.603006    0.350903
  H     -1.095349   -0.740532    0.516686
  H      1.639292    0.365022    1.451029
  H     -1.296320    1.414950    1.825797
  H      0.226253    2.105402    2.602303

FINAL SINGLE POINT ENERGY      -327.185830665976
                    ***********************HURRAY********************
 Multiplicity           Mult            ....    1
 Number of Electrons    NEL             ....   56
 Basis Dimension        Dim             ....  289
FINAL SINGLE POINT ENERGY      -327.185831139068

VIBRATIONAL FREQUENCIES
-----------------------

   0:         0.00 cm**-1
   1:         0.00 cm**-1
   2:         0.00 cm**-1
   3:         0.00 cm**-1
   4:         0.00 cm**-1
   5:         0.00 cm**-1
   6:        57.31 cm**-1
   7:        71.99 cm**-1
   8:       118.25 cm**-1
   9:       139.65 cm**-1
  10:       249.70 cm**-1
  11:       298.12 cm**-1
  12:       324.77 cm**-1
  13:       423.18 cm**-1
  14:       492.06 cm**-1
  15:       778.65 cm**-1
  16:       815.63 cm**-1
  17:       847.10 cm**-1
  18:       892.70 cm**-1
  19:       912.19 cm**-1
  20:       944.53 cm**-1
  21:      1000.31 cm**-1
  22:      1017.96 cm**-1
  23:      1047.48 cm**-1
  24:      1065.92 cm**-1
  25:      1109.82 cm**-1
  26:      1149.09 cm**-1
  27:      1177.27 cm**-1
  28:      1182.36 cm**-1
  29:      1195.08 cm**-1
  30:      1251.50 cm**-1
  31:      1297.98 cm**-1
  32:      1319.52 cm**-1
  33:      1353.96 cm**-1
  34:      1395.01 cm**-1
  35:      1401.33 cm**-1
  36:      1424.83 cm**-1
  37:      1428.58 cm**-1
  38:      1460.35 cm**-1
  39:      1481.09 cm**-1
  40:      1488.46 cm**-1
  41:      1488.95 cm**-1
  42:      1506.55 cm**-1
  43:      1531.46 cm**-1
  44:      1654.79 cm**-1
  45:      3059.95 cm**-1
  46:      3096.01 cm**-1
  47:      3100.84 cm**-1
  48:      3109.60 cm**-1
  49:      3115.14 cm**-1
  50:      3130.81 cm**-1
  51:      3153.63 cm**-1
  52:      3160.26 cm**-1
  53:      3161.83 cm**-1
  54:      3210.88 cm**-1
  55:      3431.30 cm**-1
  56:      3481.00 cm**-1

IR SPECTRUM
-----------

 Mode    freq (cm**-1)   T**2         TX         TY         TZ
-------------------------------------------------------------------
   6:        57.31    5.803676  (  2.055012  -1.217028   0.315347)
   7:        71.99    1.376334  (  1.063783  -0.494665   0.002707)
   8:       118.25    6.408108  ( -2.478020  -0.414074   0.309950)
   9:       139.65    4.613684  (  0.736177   1.968405   0.443972)
  10:       249.70    0.590480  (  0.694778  -0.328189   0.007506)
  11:       298.12    0.533780  (  0.358019  -0.403309  -0.492894)
  12:       324.77    2.463729  (  0.155292   0.923549   1.259631)
  13:       423.18    0.699157  (  0.116923   0.061687  -0.825640)
  14:       492.06   23.481551  (  0.324486   0.459000   4.813063)
  15:       778.65   13.874264  ( -3.278272   1.562105   0.828872)
  16:       815.63    8.061062  (  0.671632   1.077864  -2.539327)
  17:       847.10   19.641677  (  0.593044  -2.721502   3.447231)
  18:       892.70   10.807530  (  0.371090   1.142451  -3.060168)
  19:       912.19    0.315598  ( -0.467446   0.310121  -0.030268)
  20:       944.53    8.288877  ( -1.898569   0.992462   1.923365)
  21:      1000.31   20.296299  (  0.613016   1.678882   4.135440)
  22:      1017.96   26.771945  ( -0.309022  -2.643142   4.437370)
  23:      1047.48   17.992545  ( -0.995560  -1.658363  -3.775081)
  24:      1065.92    2.986672  (  0.534656   1.169049  -1.155049)
  25:      1109.82   12.038659  (  1.593785   2.183245   2.175304)
  26:      1149.09    4.770482  (  0.168762  -0.138231  -2.173222)
  27:      1177.27    0.883199  (  0.238636  -0.145209   0.897311)
  28:      1182.36    1.670958  (  1.082937   0.603004   0.366867)
  29:      1195.08    0.476629  ( -0.194614   0.207450  -0.629062)
  30:      1251.50    1.798561  ( -0.923577   0.896956  -0.375549)
  31:      1297.98   12.515106  ( -0.517715   2.856679  -2.021501)
  32:      1319.52    8.682079  ( -0.285378  -0.944405  -2.776461)
  33:      1353.96    8.683199  (  2.365981  -1.375803   1.092016)
  34:      1395.01    2.829290  (  1.577548  -0.443315  -0.379610)
  35:      1401.33    8.333063  ( -0.568681  -0.225776   2.821115)
  36:      1424.83   87.831489  (  0.407015   0.442176   9.352556)
  37:      1428.58   27.175495  ( -0.362750  -1.713995  -4.909799)
  38:      1460.35    3.294911  ( -0.256239   0.964005  -1.516557)
  39:      1481.09    8.961092  (  1.146280   1.410955   2.378306)
  40:      1488.46    9.608414  ( -2.965170   0.618784  -0.658243)
  41:      1488.95    9.456304  ( -2.083752   2.025823   1.005148)
  42:      1506.55   17.905176  (  1.991263   3.666252  -0.706149)
  43:      1531.46    5.489044  ( -1.480517  -0.722956   1.665667)
  44:      1654.79   39.614728  ( -2.734863  -5.605086   0.847503)
  45:      3059.95    3.251213  (  0.877170   1.509270   0.451541)
  46:      3096.01    1.806958  ( -0.252897   0.089421   1.317196)
  47:      3100.84    1.986626  (  0.427085   1.124107  -0.735260)
  48:      3109.60    9.165084  ( -2.328596   1.607216  -1.076839)
  49:      3115.14    6.923441  (  1.973959   0.989154  -1.431258)
  50:      3130.81    2.992931  ( -1.519313   0.804822   0.192042)
  51:      3153.63    0.810778  (  0.259637   0.526525  -0.682743)
  52:      3160.26    0.347732  (  0.446120  -0.129939   0.363077)
  53:      3161.83    1.949717  ( -1.146896   0.732875   0.311836)
  54:      3210.88    3.313710  ( -1.512193  -0.679424  -0.751908)
  55:      3431.30   29.838345  (  2.799901   4.632702  -0.732786)
  56:      3481.00   56.508896  ( -6.568043   3.545839   0.892597)

--------------------------
THERMOCHEMISTRY AT 298.15K
--------------------------

Temperature         ... 298.15 K
Pressure            ... 1.00 atm
Total Mass          ... 102.16 AMU

Throughout the following assumptions are being made:
  (1) The electronic state is orbitally nondegenerate
  (2) There are no thermally accessible electronically excited states
  (3) Hindered rotations indicated by low frequency modes) are not
      treated as such but are treated as vibrations and this may
      case some error
  (4) All equations used are the standard statistical mechanics
      equations for an ideal gas
  (5) All vibrations are strinctly harmonic

------------
INNER ENERGY
------------

The inner energy is: U= E(el) + E(ZPE) + E(vib) + E(rot) + E(trans)
    E(el)   - is the total energy from the electronic structure calculation
              = E(kin-el) + E(nuc-el) + E(el-el) + E(nuc-nuc)
    E(ZPE)  - the the zero temperature vibrational energy from the frequency calculation
    E(vib)  - the the finite temperature correction to E(ZPE) due to population
              of excietd vibrational states
    E(rot)  - is the rotational thermal energy
    E(trans)- is the translational thermal energy

Summary of contributions to the inner energy U:
Electronic energy                ...   -327.18583114 Eh
Zero point energy                ...      0.17543418 Eh     110.09 kcal/mol
Thermal vibrational correction   ...      0.00549956 Eh       3.45 kcal/mol
Thermal rotational correction    ...      0.00141627 Eh       0.89 kcal/mol
Thermal translational correction ...      0.00141627 Eh       0.89 kcal/mol
-----------------------------------------------------------------------
Total thermal energy                   -327.00206485 Eh

Summary of corrections to the electronic energy:
(perhaps to be used in another calculation)
Total thermal correction                  0.00833210 Eh       5.23 kcal/mol
Non-thermal (ZPE) correction              0.17543418 Eh     110.09 kcal/mol
-----------------------------------------------------------------------
Total correction                          0.18376628 Eh     115.31 kcal/mol

--------
ENTHALPY
--------

The enthalpy is H = U + kB*T
                kB is Boltzmann's constant
Total free energy                 ...   -327.00206485 Eh
Thermal Enthalpy correction       ...      0.00094421 Eh       0.59 kcal/mol
-----------------------------------------------------------------------
Total Enthalpy                    ...   -327.00112065 Eh

-------
ENTROPY
-------

The entropy contributions are T*S = T*(S(el)+S(vib)+S(rot)+S(trans)
     S(el)   - electronic entropy
     S(vib)  - vibrational entropy
     S(rot)  - rotational entropy
     S(trans)- translational entropy
The entropies will be listed as mutliplied by the temperature to get
units of energy

Electronic entropy                ...      0.00000000 Eh      0.00 kcal/mol
Vibrational entropy               ...      0.01064449 Eh      6.68 kcal/mol
Rotational entropy                ...      0.01225194 Eh      7.69 kcal/mol
Translational entropy             ...      0.01890147 Eh     11.86 kcal/mol
-----------------------------------------------------------------------
Final entropy term                ...      0.04179790 Eh     26.23 kcal/mol

CAUTION: The rotational entropy is not quite correctly treated here
         because it includes a symmetry number that is not yet correctly
         implemented in ORCA!
For a nonlinear molecule the correct rotational entropy is:
    S(rot) = R*(ln(qrot/sn)+1.5)
    R    = 8.31441 J/mol/K = 1.987191683e-3 kcal/mol/K
    qrot = 289201.0009636
    sn is the rotational symmetry number. We have assumed 3 here
       if it is different for your molecule then you should correct
       the printed rotational entropy by manually evaluating the equation
       as given above

For convenience we print out the resulting values for sn=1 - 12:
 sn= 1  qrot/sn=  289201.0010 T*S(rot)=     8.34 kcal/mol T*S(tot)=    26.88 kcal/mol
 sn= 2  qrot/sn=  144600.5005 T*S(rot)=     7.93 kcal/mol T*S(tot)=    26.47 kcal/mol
 sn= 3  qrot/sn=   96400.3337 T*S(rot)=     7.69 kcal/mol T*S(tot)=    26.23 kcal/mol
 sn= 4  qrot/sn=   72300.2502 T*S(rot)=     7.52 kcal/mol T*S(tot)=    26.06 kcal/mol
 sn= 5  qrot/sn=   57840.2002 T*S(rot)=     7.39 kcal/mol T*S(tot)=    25.93 kcal/mol
 sn= 6  qrot/sn=   48200.1668 T*S(rot)=     7.28 kcal/mol T*S(tot)=    25.82 kcal/mol
 sn= 7  qrot/sn=   41314.4287 T*S(rot)=     7.19 kcal/mol T*S(tot)=    25.73 kcal/mol
 sn= 8  qrot/sn=   36150.1251 T*S(rot)=     7.11 kcal/mol T*S(tot)=    25.65 kcal/mol
 sn= 9  qrot/sn=   32133.4446 T*S(rot)=     7.04 kcal/mol T*S(tot)=    25.58 kcal/mol
 sn=10  qrot/sn=   28920.1001 T*S(rot)=     6.97 kcal/mol T*S(tot)=    25.52 kcal/mol
 sn=11  qrot/sn=   26291.0001 T*S(rot)=     6.92 kcal/mol T*S(tot)=    25.46 kcal/mol
 sn=12  qrot/sn=   24100.0834 T*S(rot)=     6.87 kcal/mol T*S(tot)=    25.41 kcal/mol

-------------------
GIBBS FREE ENTHALPY
-------------------

The Gibbs free enthalpy is G = H - T*S

Total enthalpy                    ...   -327.00112065 Eh
Total entropy correction          ...     -0.04179790 Eh    -26.23 kcal/mol
-----------------------------------------------------------------------
Final Gibbs free enthalpy         ...   -327.04291855 Eh

For completeness - the Gibbs free enthalpy minus the electronic energy
G-E(el)                           ...      0.14291259 Eh     89.68 kcal/mol

                             ****ORCA TERMINATED NORMALLY****
TOTAL RUN TIME: 0 days 0 hours 44 minutes 35 seconds 868 msec
