                         Program Version 3.0.3 - RELEASE   -
|  1> ! NORI PBE0 def2-TZVP UseSym TightOPT Freq TightSCF Grid3 FinalGrid5 XYZFile
|  2> % pal
|  3>     nprocs 8
|  4> end
|  5> %method
|  6>     SymThresh 5.0e-2
|  7> end
|  8> % geom
|  9>     MaxIter 10
| 10> end
| 11> % maxcore 2000
| 12> % output
| 13>     printlevel mini
| 14>     print[ P_Basis ] 0
| 15>     print[ P_SCFInfo ] 1
| 16>     print[ P_SCFIterInfo ] 1
| 17>     print[ P_OrbEn ] 0
| 18>     print[ P_Cartesian ] 0
| 19> end
| 20> % elprop
| 21>     Dipole false
| 22> end
| 23> *xyz 1 1
| 24>  C        0.8790098878     0.0503338040    -0.0111640307
| 25>  C        2.3893483538     0.0264806821    -0.0274325357
| 26>  N        2.8701659949    -0.2757427444     1.3846397283
| 27>  C        3.0078075759    -0.9989867660    -0.9659072960
| 28>  C        2.7457018741    -0.6574124736    -2.4086438842
| 29>  C        2.5263554320    -1.6964521986    -3.4085023273
| 30>  O        1.4453655183    -0.9384184703    -2.8849750025
| 31>  H        0.5118657299     0.2836772285    -1.0097624845
| 32>  H        0.4916010434     0.8060873877     0.6765253006
| 33>  H        0.4676114177    -0.9267619246     0.2580869105
| 34>  H        2.7886640152     1.0218392513    -0.2433345405
| 35>  H        2.5533760852    -1.2040190717     1.6745635566
| 36>  H        2.4953027070     0.4001423061     2.0533752130
| 37>  H        3.8899207671    -0.2589712733     1.4499377713
| 38>  H        4.0937279598    -1.0435566727    -0.8150874287
| 39>  H        2.5960634574    -1.9924570883    -0.7567037062
| 40>  H        3.1535244231     0.2962358730    -2.7437481193
| 41>  H        2.7745267768    -1.4955693075    -4.4459900998
| 42>  H        2.5477209806    -2.7411885416    -3.1084670249
| 43> *
| 44>
| 45>                          ****END OF INPUT****
 Total Charge           Charge          ....    1
 Multiplicity           Mult            ....    1
 Number of Electrons    NEL             ....   56
FINAL SINGLE POINT ENERGY      -327.193914583427

CARTESIAN COORDINATES (ANGSTROEM)
---------------------------------
  C      1.678254    0.726372   -0.539239
  C      0.311828    0.515440   -1.148127
  N      0.504361   -0.000075   -2.567176
  C     -0.580119   -0.468782   -0.406020
  C     -0.985880    0.061022    0.943667
  C     -1.148830   -0.824916    2.091108
  O     -0.000526   -0.000464    1.954890
  H      1.565578    1.113248    0.472743
  H      2.271909    1.443836   -1.111312
  H      2.228826   -0.215175   -0.459884
  H     -0.206316    1.470532   -1.273700
  H      0.976391   -0.907439   -2.552527
  H      1.083582    0.639320   -3.115248
  H     -0.387309   -0.119550   -3.051660
  H     -1.490573   -0.665523   -0.985956
  H     -0.053667   -1.419939   -0.269711
  H     -1.560256    0.987437    0.927816
  H     -1.830762   -0.542589    2.887005
  H     -0.970395   -1.890601    1.974192

FINAL SINGLE POINT ENERGY      -327.193915200245
                    ***********************HURRAY********************
 Multiplicity           Mult            ....    1
 Number of Electrons    NEL             ....   56
 Basis Dimension        Dim             ....  289
FINAL SINGLE POINT ENERGY      -327.193915385842

VIBRATIONAL FREQUENCIES
-----------------------

   0:         0.00 cm**-1
   1:         0.00 cm**-1
   2:         0.00 cm**-1
   3:         0.00 cm**-1
   4:         0.00 cm**-1
   5:         0.00 cm**-1
   6:        59.34 cm**-1
   7:       112.85 cm**-1
   8:       176.46 cm**-1
   9:       210.88 cm**-1
  10:       249.25 cm**-1
  11:       309.20 cm**-1
  12:       337.33 cm**-1
  13:       409.47 cm**-1
  14:       440.85 cm**-1
  15:       492.33 cm**-1
  16:       814.03 cm**-1
  17:       824.32 cm**-1
  18:       876.98 cm**-1
  19:       911.89 cm**-1
  20:       934.93 cm**-1
  21:       947.02 cm**-1
  22:       967.09 cm**-1
  23:       984.95 cm**-1
  24:      1065.61 cm**-1
  25:      1077.03 cm**-1
  26:      1121.45 cm**-1
  27:      1168.79 cm**-1
  28:      1177.22 cm**-1
  29:      1194.85 cm**-1
  30:      1217.19 cm**-1
  31:      1277.55 cm**-1
  32:      1306.00 cm**-1
  33:      1331.66 cm**-1
  34:      1387.89 cm**-1
  35:      1397.90 cm**-1
  36:      1426.84 cm**-1
  37:      1455.19 cm**-1
  38:      1457.09 cm**-1
  39:      1481.92 cm**-1
  40:      1484.66 cm**-1
  41:      1497.16 cm**-1
  42:      1534.97 cm**-1
  43:      1652.69 cm**-1
  44:      1657.54 cm**-1
  45:      3032.65 cm**-1
  46:      3055.23 cm**-1
  47:      3078.75 cm**-1
  48:      3095.13 cm**-1
  49:      3120.58 cm**-1
  50:      3123.36 cm**-1
  51:      3131.75 cm**-1
  52:      3167.72 cm**-1
  53:      3218.28 cm**-1
  54:      3416.71 cm**-1
  55:      3501.50 cm**-1
  56:      3511.89 cm**-1

IR SPECTRUM
-----------

 Mode    freq (cm**-1)   T**2         TX         TY         TZ
-------------------------------------------------------------------
   6:        59.34    0.066519  ( -0.195042   0.017266  -0.167868)
   7:       112.85    5.673273  (  0.591025  -1.110734   2.022432)
   8:       176.46    4.200694  ( -0.187070   1.924363   0.680094)
   9:       210.88    0.309136  (  0.375710   0.211936  -0.350800)
  10:       249.25    1.610681  ( -0.272730   0.892715  -0.859860)
  11:       309.20   13.932232  (  1.339674  -0.135700  -3.481249)
  12:       337.33    7.221974  (  2.417512   1.111403   0.377351)
  13:       409.47    3.113372  ( -0.907778  -0.845869  -1.254519)
  14:       440.85    4.089282  (  0.741997  -0.727314   1.734859)
  15:       492.33    1.285105  (  0.399766   0.875041   0.599663)
  16:       814.03    2.522351  (  0.171364   1.042582  -1.185752)
  17:       824.32    6.637820  (  1.455302   1.109324  -1.813648)
  18:       876.98   12.143014  ( -1.678220   0.157385  -3.049889)
  19:       911.89    4.622137  (  0.319126   2.116203  -0.204888)
  20:       934.93    4.688859  ( -1.490596   0.143241  -1.564117)
  21:       947.02   24.541379  (  3.843710   0.782439   3.025733)
  22:       967.09   32.300963  ( -5.119924  -2.172235   1.169931)
  23:       984.95    8.915709  (  2.685910   0.008000   1.304427)
  24:      1065.61   14.817894  (  0.961779   1.657736  -3.338381)
  25:      1077.03    4.880641  (  0.448975   1.026722   1.903918)
  26:      1121.45   10.793056  ( -0.693548  -0.780073  -3.115049)
  27:      1168.79   11.265230  (  1.605932  -2.220061  -1.938439)
  28:      1177.22    0.571422  ( -0.732862  -0.121149   0.140207)
  29:      1194.85    3.610417  ( -1.022374   1.579513   0.265152)
  30:      1217.19   16.011742  ( -3.372875  -1.345442   1.680847)
  31:      1277.55    4.878971  ( -1.140068  -1.089323   1.546800)
  32:      1306.00   11.401630  (  3.046527   1.221942  -0.791936)
  33:      1331.66    3.344140  (  1.203687  -1.355618   0.239953)
  34:      1387.89    2.296416  (  1.223342   0.578540  -0.682014)
  35:      1397.90   17.946369  (  0.638021   0.685594  -4.131496)
  36:      1426.84   30.764615  ( -3.698991  -1.849464  -3.696155)
  37:      1455.19   15.205838  (  0.609445   0.867667   3.752542)
  38:      1457.09   10.054370  (  0.586546   2.307256   2.094494)
  39:      1481.92   13.993702  ( -0.540419  -3.119120   1.993173)
  40:      1484.66    5.988237  ( -0.273613  -1.957278  -1.443065)
  41:      1497.16  145.760786  (  2.384864  -4.110306 -11.098585)
  42:      1534.97    4.068206  ( -1.375318   0.621170  -1.338228)
  43:      1652.69   55.010412  ( -1.596956   6.493496  -3.208528)
  44:      1657.54   36.857146  (  5.934637   1.195575   0.455879)
  45:      3032.65   11.226581  ( -1.196941  -1.616695  -2.679592)
  46:      3055.23    8.386870  ( -1.625548   0.259379   2.382685)
  47:      3078.75    0.484471  (  0.400109   0.032988   0.568591)
  48:      3095.13    3.174043  (  1.650084  -0.500657   0.447894)
  49:      3120.58   12.807261  (  0.112755  -3.413589   1.068623)
  50:      3123.36   10.275442  ( -3.182288   0.364699  -0.124417)
  51:      3131.75    9.172925  (  0.037113   2.695957  -1.379624)
  52:      3167.72    2.620761  (  0.445620   0.185036   1.545298)
  53:      3218.28    5.037328  (  1.209820  -1.565814  -1.059193)
  54:      3416.71   38.838578  ( -1.096791   1.692932   5.896576)
  55:      3501.50   79.023447  (  2.357935  -7.751982   3.656552)
  56:      3511.89   78.586107  ( -8.385907  -2.856978  -0.316766)

--------------------------
THERMOCHEMISTRY AT 298.15K
--------------------------

Temperature         ... 298.15 K
Pressure            ... 1.00 atm
Total Mass          ... 102.16 AMU

Throughout the following assumptions are being made:
  (1) The electronic state is orbitally nondegenerate
  (2) There are no thermally accessible electronically excited states
  (3) Hindered rotations indicated by low frequency modes) are not
      treated as such but are treated as vibrations and this may
      case some error
  (4) All equations used are the standard statistical mechanics
      equations for an ideal gas
  (5) All vibrations are strinctly harmonic

------------
INNER ENERGY
------------

The inner energy is: U= E(el) + E(ZPE) + E(vib) + E(rot) + E(trans)
    E(el)   - is the total energy from the electronic structure calculation
              = E(kin-el) + E(nuc-el) + E(el-el) + E(nuc-nuc)
    E(ZPE)  - the the zero temperature vibrational energy from the frequency calculation
    E(vib)  - the the finite temperature correction to E(ZPE) due to population
              of excietd vibrational states
    E(rot)  - is the rotational thermal energy
    E(trans)- is the translational thermal energy

Summary of contributions to the inner energy U:
Electronic energy                ...   -327.19391539 Eh
Zero point energy                ...      0.17515445 Eh     109.91 kcal/mol
Thermal vibrational correction   ...      0.00541258 Eh       3.40 kcal/mol
Thermal rotational correction    ...      0.00141627 Eh       0.89 kcal/mol
Thermal translational correction ...      0.00141627 Eh       0.89 kcal/mol
-----------------------------------------------------------------------
Total thermal energy                   -327.01051581 Eh

Summary of corrections to the electronic energy:
(perhaps to be used in another calculation)
Total thermal correction                  0.00824512 Eh       5.17 kcal/mol
Non-thermal (ZPE) correction              0.17515445 Eh     109.91 kcal/mol
-----------------------------------------------------------------------
Total correction                          0.18339957 Eh     115.08 kcal/mol

--------
ENTHALPY
--------

The enthalpy is H = U + kB*T
                kB is Boltzmann's constant
Total free energy                 ...   -327.01051581 Eh
Thermal Enthalpy correction       ...      0.00094421 Eh       0.59 kcal/mol
-----------------------------------------------------------------------
Total Enthalpy                    ...   -327.00957160 Eh

-------
ENTROPY
-------

The entropy contributions are T*S = T*(S(el)+S(vib)+S(rot)+S(trans)
     S(el)   - electronic entropy
     S(vib)  - vibrational entropy
     S(rot)  - rotational entropy
     S(trans)- translational entropy
The entropies will be listed as mutliplied by the temperature to get
units of energy

Electronic entropy                ...      0.00000000 Eh      0.00 kcal/mol
Vibrational entropy               ...      0.00977055 Eh      6.13 kcal/mol
Rotational entropy                ...      0.01215891 Eh      7.63 kcal/mol
Translational entropy             ...      0.01890147 Eh     11.86 kcal/mol
-----------------------------------------------------------------------
Final entropy term                ...      0.04083093 Eh     25.62 kcal/mol

CAUTION: The rotational entropy is not quite correctly treated here
         because it includes a symmetry number that is not yet correctly
         implemented in ORCA!
For a nonlinear molecule the correct rotational entropy is:
    S(rot) = R*(ln(qrot/sn)+1.5)
    R    = 8.31441 J/mol/K = 1.987191683e-3 kcal/mol/K
    qrot = 262065.0982534
    sn is the rotational symmetry number. We have assumed 3 here
       if it is different for your molecule then you should correct
       the printed rotational entropy by manually evaluating the equation
       as given above

For convenience we print out the resulting values for sn=1 - 12:
 sn= 1  qrot/sn=  262065.0983 T*S(rot)=     8.28 kcal/mol T*S(tot)=    26.27 kcal/mol
 sn= 2  qrot/sn=  131032.5491 T*S(rot)=     7.87 kcal/mol T*S(tot)=    25.86 kcal/mol
 sn= 3  qrot/sn=   87355.0328 T*S(rot)=     7.63 kcal/mol T*S(tot)=    25.62 kcal/mol
 sn= 4  qrot/sn=   65516.2746 T*S(rot)=     7.46 kcal/mol T*S(tot)=    25.45 kcal/mol
 sn= 5  qrot/sn=   52413.0197 T*S(rot)=     7.33 kcal/mol T*S(tot)=    25.32 kcal/mol
 sn= 6  qrot/sn=   43677.5164 T*S(rot)=     7.22 kcal/mol T*S(tot)=    25.21 kcal/mol
 sn= 7  qrot/sn=   37437.8712 T*S(rot)=     7.13 kcal/mol T*S(tot)=    25.12 kcal/mol
 sn= 8  qrot/sn=   32758.1373 T*S(rot)=     7.05 kcal/mol T*S(tot)=    25.04 kcal/mol
 sn= 9  qrot/sn=   29118.3443 T*S(rot)=     6.98 kcal/mol T*S(tot)=    24.97 kcal/mol
 sn=10  qrot/sn=   26206.5098 T*S(rot)=     6.92 kcal/mol T*S(tot)=    24.91 kcal/mol
 sn=11  qrot/sn=   23824.0998 T*S(rot)=     6.86 kcal/mol T*S(tot)=    24.85 kcal/mol
 sn=12  qrot/sn=   21838.7582 T*S(rot)=     6.81 kcal/mol T*S(tot)=    24.80 kcal/mol

-------------------
GIBBS FREE ENTHALPY
-------------------

The Gibbs free enthalpy is G = H - T*S

Total enthalpy                    ...   -327.00957160 Eh
Total entropy correction          ...     -0.04083093 Eh    -25.62 kcal/mol
-----------------------------------------------------------------------
Final Gibbs free enthalpy         ...   -327.05040253 Eh

For completeness - the Gibbs free enthalpy minus the electronic energy
G-E(el)                           ...      0.14351286 Eh     90.06 kcal/mol

                             ****ORCA TERMINATED NORMALLY****
TOTAL RUN TIME: 0 days 0 hours 48 minutes 58 seconds 239 msec
