                         Program Version 3.0.3 - RELEASE   -
|  1> ! NORI PBE0 def2-TZVP UseSym TightOPT Freq TightSCF Grid3 FinalGrid5 XYZFile
|  2> % pal
|  3>     nprocs 8
|  4> end
|  5> %method
|  6>     SymThresh 5.0e-2
|  7> end
|  8> % geom
|  9>     MaxIter 10
| 10> end
| 11> % maxcore 2000
| 12> % output
| 13>     printlevel mini
| 14>     print[ P_Basis ] 0
| 15>     print[ P_SCFInfo ] 1
| 16>     print[ P_SCFIterInfo ] 1
| 17>     print[ P_OrbEn ] 0
| 18>     print[ P_Cartesian ] 0
| 19> end
| 20> % elprop
| 21>     Dipole false
| 22> end
| 23> *xyz 1 1
| 24>  C        1.0867068865     0.0086711480     0.2339293170
| 25>  C        2.5957724528     0.0115426712     0.2068074788
| 26>  N        3.1572013933     0.4953258075     1.5010429333
| 27>  C        4.6502421402     0.4751832027     1.5942511861
| 28>  C        5.1226262403     1.2081369174     2.8359047080
| 29>  C        4.8857706256     2.7034504731     2.7819517781
| 30>  O        3.4938155397     2.9189740380     2.5461003617
| 31>  H        0.7101773525    -0.3384298498    -0.7286806154
| 32>  H        0.6829121332     1.0090533527     0.4046683625
| 33>  H        0.6952361232    -0.6646862180     1.0001347454
| 34>  H        2.9862801626     0.6736341245    -0.5671841722
| 35>  H        3.0029667835    -0.9865539194     0.0351509659
| 36>  H        2.7674098340    -0.0600759837     2.2640825123
| 37>  H        2.8790489072     1.4756211346     1.6973186237
| 38>  H        5.0242499197     0.9506250376     0.6851680542
| 39>  H        4.9664059213    -0.5685707313     1.5889884866
| 40>  H        6.1947181526     1.0293022139     2.9462246193
| 41>  H        4.6468526237     0.7847216779     3.7270184436
| 42>  H        5.4777638388     3.1537602045     1.9766272012
| 43>  H        5.1882983425     3.1602542575     3.7280049946
| 44>  H        3.2877046270     3.8569204410     2.5873200154
| 45> *
| 46>
| 47>                          ****END OF INPUT****
 Total Charge           Charge          ....    1
 Multiplicity           Mult            ....    1
 Number of Electrons    NEL             ....   58
FINAL SINGLE POINT ENERGY      -328.451494590651
FINAL SINGLE POINT ENERGY      -328.451495521122
FINAL SINGLE POINT ENERGY      -328.451495863840

CARTESIAN COORDINATES (ANGSTROEM)
---------------------------------
  C      2.149528   -1.506760   -1.600058
  C      0.700521   -1.085541   -1.644444
  N      0.424517    0.000419   -0.660383
  C     -0.972291    0.537265   -0.677291
  C     -1.214251    1.443597    0.515415
  C     -1.234064    0.707422    1.839391
  O     -0.000884   -0.002161    1.965226
  H      2.313642   -2.305120   -2.324391
  H      2.430297   -1.889878   -0.616742
  H      2.819599   -0.684552   -1.862548
  H      0.029901   -1.908911   -1.393918
  H      0.416909   -0.705194   -2.627595
  H      1.078765    0.768724   -0.817311
  H      0.588942   -0.314618    0.315096
  H     -1.638074   -0.328334   -0.661060
  H     -1.114009    1.059135   -1.624370
  H     -2.179839    1.935424    0.375474
  H     -0.463685    2.241280    0.540623
  H     -2.076099    0.006245    1.872307
  H     -1.348925    1.422014    2.658688
  H      0.057528   -0.422064    2.827932

FINAL SINGLE POINT ENERGY      -328.451496477756
                    ***********************HURRAY********************
 Multiplicity           Mult            ....    1
 Number of Electrons    NEL             ....   58
 Basis Dimension        Dim             ....  301
FINAL SINGLE POINT ENERGY      -328.451496611457

VIBRATIONAL FREQUENCIES
-----------------------

   0:         0.00 cm**-1
   1:         0.00 cm**-1
   2:         0.00 cm**-1
   3:         0.00 cm**-1
   4:         0.00 cm**-1
   5:         0.00 cm**-1
   6:        72.30 cm**-1
   7:        94.54 cm**-1
   8:       113.80 cm**-1
   9:       182.85 cm**-1
  10:       244.32 cm**-1
  11:       266.40 cm**-1
  12:       322.25 cm**-1
  13:       337.66 cm**-1
  14:       372.03 cm**-1
  15:       417.05 cm**-1
  16:       517.46 cm**-1
  17:       793.09 cm**-1
  18:       824.43 cm**-1
  19:       838.54 cm**-1
  20:       891.78 cm**-1
  21:       925.21 cm**-1
  22:       938.59 cm**-1
  23:       974.89 cm**-1
  24:      1058.12 cm**-1
  25:      1065.55 cm**-1
  26:      1075.64 cm**-1
  27:      1105.38 cm**-1
  28:      1147.06 cm**-1
  29:      1186.53 cm**-1
  30:      1218.21 cm**-1
  31:      1251.24 cm**-1
  32:      1283.41 cm**-1
  33:      1306.06 cm**-1
  34:      1352.33 cm**-1
  35:      1360.33 cm**-1
  36:      1384.83 cm**-1
  37:      1410.84 cm**-1
  38:      1416.88 cm**-1
  39:      1427.92 cm**-1
  40:      1447.60 cm**-1
  41:      1468.03 cm**-1
  42:      1473.70 cm**-1
  43:      1483.95 cm**-1
  44:      1490.80 cm**-1
  45:      1494.80 cm**-1
  46:      1509.70 cm**-1
  47:      1519.58 cm**-1
  48:      1667.43 cm**-1
  49:      3039.39 cm**-1
  50:      3059.89 cm**-1
  51:      3061.16 cm**-1
  52:      3088.75 cm**-1
  53:      3091.81 cm**-1
  54:      3101.84 cm**-1
  55:      3122.47 cm**-1
  56:      3128.34 cm**-1
  57:      3147.42 cm**-1
  58:      3152.99 cm**-1
  59:      3155.15 cm**-1
  60:      3189.10 cm**-1
  61:      3473.48 cm**-1
  62:      3865.06 cm**-1

IR SPECTRUM
-----------

 Mode    freq (cm**-1)   T**2         TX         TY         TZ
-------------------------------------------------------------------
   6:        72.30    0.165809  ( -0.355273   0.115808  -0.161798)
   7:        94.54    0.088985  ( -0.113231   0.247256   0.122591)
   8:       113.80    2.465425  (  0.052873   1.491886   0.486730)
   9:       182.85    7.073468  (  1.812164   1.527684  -1.206528)
  10:       244.32    8.953714  ( -0.210799  -1.071532  -2.785875)
  11:       266.40   22.167380  ( -0.415705  -1.473291  -4.452413)
  12:       322.25   72.784728  ( -5.239782  -6.680432  -0.837406)
  13:       337.66   51.688768  ( -3.164203  -4.587504  -4.542179)
  14:       372.03    8.461481  ( -0.799770   2.795412  -0.086713)
  15:       417.05   12.006207  (  1.485858  -2.397500  -2.012567)
  16:       517.46    3.948287  ( -0.835201   0.585136  -1.705386)
  17:       793.09   10.836578  ( -0.614606  -2.040107   2.509343)
  18:       824.43    2.453365  (  0.635030   0.033771  -1.431419)
  19:       838.54    9.037782  ( -0.883806   1.898027  -2.157351)
  20:       891.78    0.123671  (  0.114301  -0.094216  -0.318950)
  21:       925.21    5.061142  (  1.040396  -0.168107   1.987576)
  22:       938.59    6.417360  (  0.665506  -0.775159   2.318101)
  23:       974.89    4.488940  (  1.296230  -1.122648   1.244343)
  24:      1058.12   27.644638  (  4.533108  -2.416028  -1.121773)
  25:      1065.55   25.784853  (  3.308782  -3.608920  -1.346296)
  26:      1075.64    0.350867  (  0.017834  -0.052017  -0.589782)
  27:      1105.38   56.514753  ( -5.985771   4.489864   0.725553)
  28:      1147.06    7.300618  ( -0.264509  -1.554195  -2.194341)
  29:      1186.53    1.632393  ( -0.086444   1.136922  -0.576479)
  30:      1218.21   45.749101  ( -6.286929   2.103649  -1.341001)
  31:      1251.24    2.251434  ( -1.240111   0.829672   0.158755)
  32:      1283.41    3.327267  ( -1.427776  -0.290511  -1.097417)
  33:      1306.06    7.961462  ( -2.638045   0.957632  -0.291758)
  34:      1352.33   18.349588  (  2.820847  -2.496092  -2.040082)
  35:      1360.33    8.016719  ( -0.175711   2.499464  -1.318531)
  36:      1384.83    1.206389  ( -0.392989  -0.067630  -1.023413)
  37:      1410.84    2.779040  (  0.422645  -0.606051   1.494361)
  38:      1416.88    3.070737  (  0.445436  -1.609384  -0.531232)
  39:      1427.92   45.622936  ( -5.138569   3.429243   2.730996)
  40:      1447.60   33.448848  (  3.261800  -3.214979  -3.531773)
  41:      1468.03   11.968940  ( -0.758328  -3.246893   0.922802)
  42:      1473.70  102.289802  (  6.339310  -4.438258  -6.511898)
  43:      1483.95    5.416860  ( -0.439632   1.797805   1.411198)
  44:      1490.80   17.515546  (  1.754844   1.887290  -3.297606)
  45:      1494.80   28.341596  ( -2.600524   1.061712   4.522349)
  46:      1509.70   23.185784  (  1.960034   1.809237   4.008829)
  47:      1519.58    9.951305  (  2.225674   0.896169  -2.048063)
  48:      1667.43   29.683967  (  3.518511   1.740095   3.778375)
  49:      3039.39   22.990620  ( -4.391204  -0.277089   1.905562)
  50:      3059.89    8.557813  ( -2.301113  -1.213174   1.338245)
  51:      3061.16    2.844472  (  1.320723   0.908606   0.524021)
  52:      3088.75    2.088686  (  0.235364  -0.635573  -1.276455)
  53:      3091.81   14.799179  ( -1.804231  -0.480204  -3.363530)
  54:      3101.84   13.632266  (  0.364995   2.945452   2.196214)
  55:      3122.47    3.130073  (  1.276846   1.021928   0.674832)
  56:      3128.34    1.068893  ( -0.021410  -1.005876  -0.238008)
  57:      3147.42   16.630189  ( -0.861648  -0.926979   3.876656)
  58:      3152.99    9.599099  (  1.059325   1.531924  -2.475912)
  59:      3155.15    3.782773  ( -0.326957   0.267201  -1.898546)
  60:      3189.10  369.953257  (  2.163767  -0.393768 -19.108017)
  61:      3473.48   45.931926  ( -4.262457  -4.324781   3.009926)
  62:      3865.06  105.560105  (  2.312826  -4.718195   8.828906)

--------------------------
THERMOCHEMISTRY AT 298.15K
--------------------------

Temperature         ... 298.15 K
Pressure            ... 1.00 atm
Total Mass          ... 104.17 AMU

Throughout the following assumptions are being made:
  (1) The electronic state is orbitally nondegenerate
  (2) There are no thermally accessible electronically excited states
  (3) Hindered rotations indicated by low frequency modes) are not
      treated as such but are treated as vibrations and this may
      case some error
  (4) All equations used are the standard statistical mechanics
      equations for an ideal gas
  (5) All vibrations are strinctly harmonic

------------
INNER ENERGY
------------

The inner energy is: U= E(el) + E(ZPE) + E(vib) + E(rot) + E(trans)
    E(el)   - is the total energy from the electronic structure calculation
              = E(kin-el) + E(nuc-el) + E(el-el) + E(nuc-nuc)
    E(ZPE)  - the the zero temperature vibrational energy from the frequency calculation
    E(vib)  - the the finite temperature correction to E(ZPE) due to population
              of excietd vibrational states
    E(rot)  - is the rotational thermal energy
    E(trans)- is the translational thermal energy

Summary of contributions to the inner energy U:
Electronic energy                ...   -328.45149661 Eh
Zero point energy                ...      0.19913454 Eh     124.96 kcal/mol
Thermal vibrational correction   ...      0.00610296 Eh       3.83 kcal/mol
Thermal rotational correction    ...      0.00141627 Eh       0.89 kcal/mol
Thermal translational correction ...      0.00141627 Eh       0.89 kcal/mol
-----------------------------------------------------------------------
Total thermal energy                   -328.24342657 Eh

Summary of corrections to the electronic energy:
(perhaps to be used in another calculation)
Total thermal correction                  0.00893550 Eh       5.61 kcal/mol
Non-thermal (ZPE) correction              0.19913454 Eh     124.96 kcal/mol
-----------------------------------------------------------------------
Total correction                          0.20807004 Eh     130.57 kcal/mol

--------
ENTHALPY
--------

The enthalpy is H = U + kB*T
                kB is Boltzmann's constant
Total free energy                 ...   -328.24342657 Eh
Thermal Enthalpy correction       ...      0.00094421 Eh       0.59 kcal/mol
-----------------------------------------------------------------------
Total Enthalpy                    ...   -328.24248236 Eh

-------
ENTROPY
-------

The entropy contributions are T*S = T*(S(el)+S(vib)+S(rot)+S(trans)
     S(el)   - electronic entropy
     S(vib)  - vibrational entropy
     S(rot)  - rotational entropy
     S(trans)- translational entropy
The entropies will be listed as mutliplied by the temperature to get
units of energy

Electronic entropy                ...      0.00000000 Eh      0.00 kcal/mol
Vibrational entropy               ...      0.01114102 Eh      6.99 kcal/mol
Rotational entropy                ...      0.01237950 Eh      7.77 kcal/mol
Translational entropy             ...      0.01892914 Eh     11.88 kcal/mol
-----------------------------------------------------------------------
Final entropy term                ...      0.04244967 Eh     26.64 kcal/mol

CAUTION: The rotational entropy is not quite correctly treated here
         because it includes a symmetry number that is not yet correctly
         implemented in ORCA!
For a nonlinear molecule the correct rotational entropy is:
    S(rot) = R*(ln(qrot/sn)+1.5)
    R    = 8.31441 J/mol/K = 1.987191683e-3 kcal/mol/K
    qrot = 331035.2522931
    sn is the rotational symmetry number. We have assumed 3 here
       if it is different for your molecule then you should correct
       the printed rotational entropy by manually evaluating the equation
       as given above

For convenience we print out the resulting values for sn=1 - 12:
 sn= 1  qrot/sn=  331035.2523 T*S(rot)=     8.42 kcal/mol T*S(tot)=    27.29 kcal/mol
 sn= 2  qrot/sn=  165517.6261 T*S(rot)=     8.01 kcal/mol T*S(tot)=    26.88 kcal/mol
 sn= 3  qrot/sn=  110345.0841 T*S(rot)=     7.77 kcal/mol T*S(tot)=    26.64 kcal/mol
 sn= 4  qrot/sn=   82758.8131 T*S(rot)=     7.60 kcal/mol T*S(tot)=    26.47 kcal/mol
 sn= 5  qrot/sn=   66207.0505 T*S(rot)=     7.47 kcal/mol T*S(tot)=    26.33 kcal/mol
 sn= 6  qrot/sn=   55172.5420 T*S(rot)=     7.36 kcal/mol T*S(tot)=    26.23 kcal/mol
 sn= 7  qrot/sn=   47290.7503 T*S(rot)=     7.27 kcal/mol T*S(tot)=    26.14 kcal/mol
 sn= 8  qrot/sn=   41379.4065 T*S(rot)=     7.19 kcal/mol T*S(tot)=    26.06 kcal/mol
 sn= 9  qrot/sn=   36781.6947 T*S(rot)=     7.12 kcal/mol T*S(tot)=    25.99 kcal/mol
 sn=10  qrot/sn=   33103.5252 T*S(rot)=     7.05 kcal/mol T*S(tot)=    25.92 kcal/mol
 sn=11  qrot/sn=   30094.1138 T*S(rot)=     7.00 kcal/mol T*S(tot)=    25.87 kcal/mol
 sn=12  qrot/sn=   27586.2710 T*S(rot)=     6.95 kcal/mol T*S(tot)=    25.82 kcal/mol

-------------------
GIBBS FREE ENTHALPY
-------------------

The Gibbs free enthalpy is G = H - T*S

Total enthalpy                    ...   -328.24248236 Eh
Total entropy correction          ...     -0.04244967 Eh    -26.64 kcal/mol
-----------------------------------------------------------------------
Final Gibbs free enthalpy         ...   -328.28493203 Eh

For completeness - the Gibbs free enthalpy minus the electronic energy
G-E(el)                           ...      0.16656458 Eh    104.52 kcal/mol

                             ****ORCA TERMINATED NORMALLY****
TOTAL RUN TIME: 0 days 0 hours 56 minutes 13 seconds 444 msec
