                         Program Version 3.0.3 - RELEASE   -
|  1> ! NORI PBE0 def2-TZVP UseSym TightOPT Freq TightSCF Grid3 FinalGrid5 XYZFile
|  2> % pal
|  3>     nprocs 8
|  4> end
|  5> %method
|  6>     SymThresh 5.0e-2
|  7> end
|  8> % geom
|  9>     MaxIter 10
| 10> end
| 11> % maxcore 2000
| 12> % output
| 13>     printlevel mini
| 14>     print[ P_Basis ] 0
| 15>     print[ P_SCFInfo ] 1
| 16>     print[ P_SCFIterInfo ] 1
| 17>     print[ P_OrbEn ] 0
| 18>     print[ P_Cartesian ] 0
| 19> end
| 20> % elprop
| 21>     Dipole false
| 22> end
| 23> *xyz 1 1
| 24>  C        0.8458858763     0.0211997010    -0.1048001537
| 25>  C        2.3397213009    -0.1715748524    -0.2511660818
| 26>  N        2.6122483747    -0.9148047884    -1.5332054403
| 27>  C        3.1212898661     1.1365937818    -0.2334110449
| 28>  C        4.6330775870     1.0451963860    -0.0085243205
| 29>  C        5.4961960226     0.7090276270    -1.2017817421
| 30>  O        5.2188496195    -0.6303889278    -1.6422435491
| 31>  H        0.3048018551    -0.9259541199    -0.1653199656
| 32>  H        0.4545343054     0.6976789727    -0.8703217910
| 33>  H        0.6243759563     0.4603509692     0.8680943307
| 34>  H        2.7141581782    -0.8295221528     0.5381940914
| 35>  H        2.1633807458    -0.4402013429    -2.3171379588
| 36>  H        2.2421489278    -1.8635567922    -1.4975031680
| 37>  H        3.6595591160    -0.9405096813    -1.7089511010
| 38>  H        2.6959976413     1.7201303425     0.5869320332
| 39>  H        2.8971693337     1.7119838899    -1.1418466210
| 40>  H        4.9745570220     2.0221447444     0.3441738985
| 41>  H        4.8493149291     0.3408770826     0.8016682588
| 42>  H        5.3167493856     1.4113239964    -2.0238916888
| 43>  H        6.5488348618     0.7749952062    -0.9169476377
| 44>  H        5.8814190946    -0.9136200420    -2.2795303483
| 45> *
| 46>
| 47>                          ****END OF INPUT****
 Total Charge           Charge          ....    1
 Multiplicity           Mult            ....    1
 Number of Electrons    NEL             ....   58
FINAL SINGLE POINT ENERGY      -328.458028658502
FINAL SINGLE POINT ENERGY      -328.458028550709
FINAL SINGLE POINT ENERGY      -328.458026066493
FINAL SINGLE POINT ENERGY      -328.458030506457
FINAL SINGLE POINT ENERGY      -328.458030941717

CARTESIAN COORDINATES (ANGSTROEM)
---------------------------------
  C      1.189721   -0.293249   -2.431649
  C      0.574402   -0.461612   -1.059113
  N      1.565782   -0.003424   -0.021122
  C     -0.739851    0.291310   -0.891898
  C     -1.618805   -0.093644    0.301166
  C     -1.273003    0.505326    1.644535
  O      0.000777    0.008943    2.086452
  H      2.150373   -0.807321   -2.514223
  H      1.336158    0.763066   -2.675368
  H      0.527262   -0.717271   -3.186338
  H      0.415057   -1.521976   -0.844349
  H      1.889109    0.940473   -0.235466
  H      2.385038   -0.609310    0.000878
  H      1.098204    0.008555    0.932157
  H     -1.308380    0.091237   -1.803301
  H     -0.549446    1.372662   -0.902185
  H     -2.638802    0.232327    0.079553
  H     -1.665867   -1.183776    0.394879
  H     -1.242547    1.599636    1.588491
  H     -2.034654    0.220576    2.373948
  H      0.144302    0.238578    3.009393

FINAL SINGLE POINT ENERGY      -328.458031059070
                    ***********************HURRAY********************
 Multiplicity           Mult            ....    1
 Number of Electrons    NEL             ....   58
 Basis Dimension        Dim             ....  301
FINAL SINGLE POINT ENERGY      -328.458031109484

VIBRATIONAL FREQUENCIES
-----------------------

   0:         0.00 cm**-1
   1:         0.00 cm**-1
   2:         0.00 cm**-1
   3:         0.00 cm**-1
   4:         0.00 cm**-1
   5:         0.00 cm**-1
   6:        67.67 cm**-1
   7:       121.15 cm**-1
   8:       228.46 cm**-1
   9:       254.71 cm**-1
  10:       270.44 cm**-1
  11:       313.21 cm**-1
  12:       352.68 cm**-1
  13:       373.11 cm**-1
  14:       383.44 cm**-1
  15:       443.12 cm**-1
  16:       459.87 cm**-1
  17:       507.95 cm**-1
  18:       756.16 cm**-1
  19:       853.71 cm**-1
  20:       866.15 cm**-1
  21:       908.14 cm**-1
  22:       940.12 cm**-1
  23:       977.25 cm**-1
  24:      1016.11 cm**-1
  25:      1040.41 cm**-1
  26:      1061.05 cm**-1
  27:      1105.65 cm**-1
  28:      1123.10 cm**-1
  29:      1176.84 cm**-1
  30:      1218.11 cm**-1
  31:      1237.79 cm**-1
  32:      1262.11 cm**-1
  33:      1309.44 cm**-1
  34:      1316.82 cm**-1
  35:      1344.70 cm**-1
  36:      1397.26 cm**-1
  37:      1404.06 cm**-1
  38:      1412.08 cm**-1
  39:      1424.33 cm**-1
  40:      1447.44 cm**-1
  41:      1463.35 cm**-1
  42:      1467.27 cm**-1
  43:      1485.57 cm**-1
  44:      1492.74 cm**-1
  45:      1512.66 cm**-1
  46:      1562.31 cm**-1
  47:      1664.90 cm**-1
  48:      1682.94 cm**-1
  49:      2772.44 cm**-1
  50:      3034.01 cm**-1
  51:      3041.46 cm**-1
  52:      3053.42 cm**-1
  53:      3059.64 cm**-1
  54:      3087.28 cm**-1
  55:      3106.38 cm**-1
  56:      3109.36 cm**-1
  57:      3111.76 cm**-1
  58:      3129.17 cm**-1
  59:      3155.31 cm**-1
  60:      3468.61 cm**-1
  61:      3532.95 cm**-1
  62:      3856.73 cm**-1

IR SPECTRUM
-----------

 Mode    freq (cm**-1)   T**2         TX         TY         TZ
-------------------------------------------------------------------
   6:        67.67    3.615148  (  0.099675  -1.850822  -0.423878)
   7:       121.15    1.459038  ( -0.549797   1.074067   0.056048)
   8:       228.46    4.112278  (  1.452023  -1.370381   0.354910)
   9:       254.71    5.919694  (  0.005550  -1.357620   2.019042)
  10:       270.44   18.749910  ( -3.033478  -0.662263   3.018167)
  11:       313.21    9.962593  ( -0.415500   2.550750   1.812078)
  12:       352.68   88.230544  (  2.481372   8.695106  -2.543319)
  13:       373.11   20.217193  (  3.412472  -0.073725  -2.926909)
  14:       383.44   20.048817  (  1.029529   3.779805  -2.168400)
  15:       443.12   13.854038  ( -2.442524  -1.380517   2.445872)
  16:       459.87   38.379000  (  1.417431   0.184102  -6.027935)
  17:       507.95    6.591666  (  1.708205   0.771553  -1.754539)
  18:       756.16    0.691415  (  0.278965  -0.774959  -0.114162)
  19:       853.71    1.072142  (  0.213564   0.274789  -0.975204)
  20:       866.15    1.669567  (  1.284732  -0.008204   0.137705)
  21:       908.14   14.048248  (  2.958359  -0.183479   2.294056)
  22:       940.12    3.712627  ( -1.738516   0.154703  -0.816245)
  23:       977.25    4.714157  ( -0.788080   0.611781   1.928422)
  24:      1016.11   24.811960  ( -3.412446   2.691114  -2.434148)
  25:      1040.41   19.000331  (  1.747919  -0.978466  -3.871397)
  26:      1061.05   28.844437  (  5.197399  -0.152022   1.344757)
  27:      1105.65   46.907404  (  5.669727  -1.031662   3.700982)
  28:      1123.10    7.469351  ( -1.272086   1.536675   1.868095)
  29:      1176.84    4.322176  (  1.761404  -1.103707  -0.038261)
  30:      1218.11   13.066706  ( -1.580550   2.141852  -2.445616)
  31:      1237.79   25.212231  ( -3.732983   1.945847   2.736923)
  32:      1262.11   15.516804  ( -1.980828   2.775180   1.972689)
  33:      1309.44    2.404119  ( -1.121110   0.282016   1.033294)
  34:      1316.82   18.617501  ( -3.896138   1.790824   0.480165)
  35:      1344.70    8.698320  ( -2.696453   0.877839  -0.810468)
  36:      1397.26    1.318660  ( -0.197608   0.302419   1.090025)
  37:      1404.06   11.831928  (  1.355088  -0.884184   3.035438)
  38:      1412.08    4.853081  (  1.446141  -1.190693  -1.159314)
  39:      1424.33   16.656291  (  0.941020  -0.704038   3.908338)
  40:      1447.44    3.098025  ( -0.972558  -1.407245  -0.414511)
  41:      1463.35   14.100418  ( -2.957812  -1.845491  -1.394966)
  42:      1467.27    9.036422  ( -0.380868   2.521937  -1.590973)
  43:      1485.57    6.409340  (  1.510096   1.660588   1.171067)
  44:      1492.74   11.091377  (  1.498006  -2.902976   0.648140)
  45:      1512.66    6.076756  (  0.546277   1.896171   1.477455)
  46:      1562.31  133.570271  (-10.846765  -3.562970  -1.795327)
  47:      1664.90    2.119862  ( -0.585397  -0.670763   1.152063)
  48:      1682.94   52.479127  ( -4.986793   5.073840   1.366446)
  49:      2772.44  1180.291049  (-18.779377   2.369538  28.670740)
  50:      3034.01    7.562823  ( -0.848414  -2.370431   1.106379)
  51:      3041.46   16.119589  ( -1.786795   3.594949  -0.057403)
  52:      3053.42    4.487247  (  1.810807   0.969639  -0.517710)
  53:      3059.64    8.868403  ( -0.638115  -2.894759   0.285632)
  54:      3087.28    4.810208  ( -1.078316  -1.146864   1.527136)
  55:      3106.38    6.611502  ( -1.276369   1.482574   1.668639)
  56:      3109.36    2.176173  ( -1.458143   0.088209  -0.205452)
  57:      3111.76   13.292587  ( -1.453939  -3.077383   1.307043)
  58:      3129.17    9.776076  (  1.433993  -2.777434  -0.074845)
  59:      3155.31    2.358785  ( -1.433812  -0.505009   0.218941)
  60:      3468.61   53.246191  (  6.790168   1.797901  -1.976703)
  61:      3532.95   61.316433  ( -3.459094   6.943664  -1.066127)
  62:      3856.73  110.827952  ( -2.781074  -1.323906 -10.066819)

--------------------------
THERMOCHEMISTRY AT 298.15K
--------------------------

Temperature         ... 298.15 K
Pressure            ... 1.00 atm
Total Mass          ... 104.17 AMU

Throughout the following assumptions are being made:
  (1) The electronic state is orbitally nondegenerate
  (2) There are no thermally accessible electronically excited states
  (3) Hindered rotations indicated by low frequency modes) are not
      treated as such but are treated as vibrations and this may
      case some error
  (4) All equations used are the standard statistical mechanics
      equations for an ideal gas
  (5) All vibrations are strinctly harmonic

------------
INNER ENERGY
------------

The inner energy is: U= E(el) + E(ZPE) + E(vib) + E(rot) + E(trans)
    E(el)   - is the total energy from the electronic structure calculation
              = E(kin-el) + E(nuc-el) + E(el-el) + E(nuc-nuc)
    E(ZPE)  - the the zero temperature vibrational energy from the frequency calculation
    E(vib)  - the the finite temperature correction to E(ZPE) due to population
              of excietd vibrational states
    E(rot)  - is the rotational thermal energy
    E(trans)- is the translational thermal energy

Summary of contributions to the inner energy U:
Electronic energy                ...   -328.45803111 Eh
Zero point energy                ...      0.19871299 Eh     124.69 kcal/mol
Thermal vibrational correction   ...      0.00577792 Eh       3.63 kcal/mol
Thermal rotational correction    ...      0.00141627 Eh       0.89 kcal/mol
Thermal translational correction ...      0.00141627 Eh       0.89 kcal/mol
-----------------------------------------------------------------------
Total thermal energy                   -328.25070765 Eh

Summary of corrections to the electronic energy:
(perhaps to be used in another calculation)
Total thermal correction                  0.00861047 Eh       5.40 kcal/mol
Non-thermal (ZPE) correction              0.19871299 Eh     124.69 kcal/mol
-----------------------------------------------------------------------
Total correction                          0.20732346 Eh     130.10 kcal/mol

--------
ENTHALPY
--------

The enthalpy is H = U + kB*T
                kB is Boltzmann's constant
Total free energy                 ...   -328.25070765 Eh
Thermal Enthalpy correction       ...      0.00094421 Eh       0.59 kcal/mol
-----------------------------------------------------------------------
Total Enthalpy                    ...   -328.24976345 Eh

-------
ENTROPY
-------

The entropy contributions are T*S = T*(S(el)+S(vib)+S(rot)+S(trans)
     S(el)   - electronic entropy
     S(vib)  - vibrational entropy
     S(rot)  - rotational entropy
     S(trans)- translational entropy
The entropies will be listed as mutliplied by the temperature to get
units of energy

Electronic entropy                ...      0.00000000 Eh      0.00 kcal/mol
Vibrational entropy               ...      0.00996801 Eh      6.26 kcal/mol
Rotational entropy                ...      0.01225420 Eh      7.69 kcal/mol
Translational entropy             ...      0.01892914 Eh     11.88 kcal/mol
-----------------------------------------------------------------------
Final entropy term                ...      0.04115135 Eh     25.82 kcal/mol

CAUTION: The rotational entropy is not quite correctly treated here
         because it includes a symmetry number that is not yet correctly
         implemented in ORCA!
For a nonlinear molecule the correct rotational entropy is:
    S(rot) = R*(ln(qrot/sn)+1.5)
    R    = 8.31441 J/mol/K = 1.987191683e-3 kcal/mol/K
    qrot = 289893.4174279
    sn is the rotational symmetry number. We have assumed 3 here
       if it is different for your molecule then you should correct
       the printed rotational entropy by manually evaluating the equation
       as given above

For convenience we print out the resulting values for sn=1 - 12:
 sn= 1  qrot/sn=  289893.4174 T*S(rot)=     8.34 kcal/mol T*S(tot)=    26.47 kcal/mol
 sn= 2  qrot/sn=  144946.7087 T*S(rot)=     7.93 kcal/mol T*S(tot)=    26.06 kcal/mol
 sn= 3  qrot/sn=   96631.1391 T*S(rot)=     7.69 kcal/mol T*S(tot)=    25.82 kcal/mol
 sn= 4  qrot/sn=   72473.3544 T*S(rot)=     7.52 kcal/mol T*S(tot)=    25.65 kcal/mol
 sn= 5  qrot/sn=   57978.6835 T*S(rot)=     7.39 kcal/mol T*S(tot)=    25.52 kcal/mol
 sn= 6  qrot/sn=   48315.5696 T*S(rot)=     7.28 kcal/mol T*S(tot)=    25.41 kcal/mol
 sn= 7  qrot/sn=   41413.3453 T*S(rot)=     7.19 kcal/mol T*S(tot)=    25.32 kcal/mol
 sn= 8  qrot/sn=   36236.6772 T*S(rot)=     7.11 kcal/mol T*S(tot)=    25.24 kcal/mol
 sn= 9  qrot/sn=   32210.3797 T*S(rot)=     7.04 kcal/mol T*S(tot)=    25.17 kcal/mol
 sn=10  qrot/sn=   28989.3417 T*S(rot)=     6.98 kcal/mol T*S(tot)=    25.11 kcal/mol
 sn=11  qrot/sn=   26353.9470 T*S(rot)=     6.92 kcal/mol T*S(tot)=    25.05 kcal/mol
 sn=12  qrot/sn=   24157.7848 T*S(rot)=     6.87 kcal/mol T*S(tot)=    25.00 kcal/mol

-------------------
GIBBS FREE ENTHALPY
-------------------

The Gibbs free enthalpy is G = H - T*S

Total enthalpy                    ...   -328.24976345 Eh
Total entropy correction          ...     -0.04115135 Eh    -25.82 kcal/mol
-----------------------------------------------------------------------
Final Gibbs free enthalpy         ...   -328.29091480 Eh

For completeness - the Gibbs free enthalpy minus the electronic energy
G-E(el)                           ...      0.16711631 Eh    104.87 kcal/mol

                             ****ORCA TERMINATED NORMALLY****
TOTAL RUN TIME: 0 days 1 hours 7 minutes 18 seconds 553 msec
