                         Program Version 3.0.3 - RELEASE   -
|  1> ! NORI PBE0 def2-TZVP UseSym TightOPT Freq TightSCF Grid3 FinalGrid5 XYZFile
|  2> % pal
|  3>     nprocs 8
|  4> end
|  5> %method
|  6>     SymThresh 5.0e-2
|  7> end
|  8> % geom
|  9>     MaxIter 10
| 10> end
| 11> % maxcore 2000
| 12> % output
| 13>     printlevel mini
| 14>     print[ P_Basis ] 0
| 15>     print[ P_SCFInfo ] 1
| 16>     print[ P_SCFIterInfo ] 1
| 17>     print[ P_OrbEn ] 0
| 18>     print[ P_Cartesian ] 0
| 19> end
| 20> % elprop
| 21>     Dipole false
| 22> end
| 23> *xyz 1 1
| 24>  C        0.7469145306    -0.1465560796    -0.5402141752
| 25>  C        2.2092621480     0.0394329646    -0.1827210553
| 26>  N        2.7426929420     1.2365145962    -0.9314831342
| 27>  C        2.4497943272     0.2088730347     1.2824012844
| 28>  C        2.9637602450     1.2673567352     1.8961511090
| 29>  C        3.1542885982     1.3922458668     3.3772744067
| 30>  O        4.4472243593     1.8477025926     3.6825943651
| 31>  H        0.6056250675    -0.3105736990    -1.6114729060
| 32>  H        0.1481625871     0.7095226188    -0.2187879234
| 33>  H        0.3645250877    -1.0264567662    -0.0222775749
| 34>  H        2.7925518211    -0.8075349509    -0.5599466064
| 35>  H        2.2548624737     2.0848102126    -0.6322135218
| 36>  H        2.6072084547     1.1297655335    -1.9381594293
| 37>  H        3.7394016382     1.3722943035    -0.7472751288
| 38>  H        2.1356410769    -0.6514053794     1.8683044001
| 39>  H        3.3074400668     2.1505471772     1.3557698461
| 40>  H        2.9083786468     0.4481765633     3.8768990223
| 41>  H        2.4643946076     2.1508694739     3.7606154981
| 42>  H        5.0619713218     1.1097252022     3.6543015235
| 43> *
| 44>
| 45>                          ****END OF INPUT****
 Total Charge           Charge          ....    1
 Multiplicity           Mult            ....    1
 Number of Electrons    NEL             ....   56
FINAL SINGLE POINT ENERGY      -327.202276359436
FINAL SINGLE POINT ENERGY      -327.202278130936
FINAL SINGLE POINT ENERGY      -327.202279770685

CARTESIAN COORDINATES (ANGSTROEM)
---------------------------------
  C     -0.575695    0.196232   -2.757685
  C      0.135643   -0.509930   -1.619188
  N      1.552985    0.003161   -1.540530
  C     -0.539751   -0.342349   -0.296570
  C     -0.049708    0.240354    0.790454
  C     -0.790858    0.402456    2.083062
  O     -0.004211   -0.009668    3.171095
  H     -0.084294    0.021537   -3.717905
  H     -0.647825    1.270899   -2.573263
  H     -1.591701   -0.191555   -2.835483
  H      0.238085   -1.575347   -1.851467
  H      1.554545    1.004335   -1.328931
  H      2.042558   -0.134907   -2.425839
  H      2.074776   -0.470919   -0.799861
  H     -1.549350   -0.745342   -0.279370
  H      0.960970    0.649067    0.833925
  H     -1.756038   -0.114855    2.039090
  H     -0.999296    1.465290    2.241182
  H     -0.048416   -0.965897    3.254820

FINAL SINGLE POINT ENERGY      -327.202280220350
                    ***********************HURRAY********************
 Multiplicity           Mult            ....    1
 Number of Electrons    NEL             ....   56
 Basis Dimension        Dim             ....  289
FINAL SINGLE POINT ENERGY      -327.202280429578

VIBRATIONAL FREQUENCIES
-----------------------

   0:         0.00 cm**-1
   1:         0.00 cm**-1
   2:         0.00 cm**-1
   3:         0.00 cm**-1
   4:         0.00 cm**-1
   5:         0.00 cm**-1
   6:        56.53 cm**-1
   7:       108.03 cm**-1
   8:       128.73 cm**-1
   9:       193.15 cm**-1
  10:       226.07 cm**-1
  11:       262.62 cm**-1
  12:       295.23 cm**-1
  13:       326.85 cm**-1
  14:       343.81 cm**-1
  15:       410.63 cm**-1
  16:       530.47 cm**-1
  17:       571.42 cm**-1
  18:       784.05 cm**-1
  19:       828.19 cm**-1
  20:       935.67 cm**-1
  21:       946.75 cm**-1
  22:       971.35 cm**-1
  23:       996.31 cm**-1
  24:      1007.72 cm**-1
  25:      1051.60 cm**-1
  26:      1102.69 cm**-1
  27:      1128.97 cm**-1
  28:      1138.91 cm**-1
  29:      1206.69 cm**-1
  30:      1217.88 cm**-1
  31:      1314.76 cm**-1
  32:      1328.19 cm**-1
  33:      1351.40 cm**-1
  34:      1389.99 cm**-1
  35:      1397.05 cm**-1
  36:      1404.10 cm**-1
  37:      1418.08 cm**-1
  38:      1479.30 cm**-1
  39:      1482.64 cm**-1
  40:      1487.88 cm**-1
  41:      1493.92 cm**-1
  42:      1642.54 cm**-1
  43:      1656.36 cm**-1
  44:      1746.65 cm**-1
  45:      3041.36 cm**-1
  46:      3056.38 cm**-1
  47:      3069.72 cm**-1
  48:      3089.61 cm**-1
  49:      3126.13 cm**-1
  50:      3137.32 cm**-1
  51:      3156.28 cm**-1
  52:      3173.91 cm**-1
  53:      3415.60 cm**-1
  54:      3494.06 cm**-1
  55:      3516.29 cm**-1
  56:      3863.32 cm**-1

IR SPECTRUM
-----------

 Mode    freq (cm**-1)   T**2         TX         TY         TZ
-------------------------------------------------------------------
   6:        56.53    5.818650  (  0.617127  -1.968823   1.249615)
   7:       108.03    2.860695  (  0.407724   0.523465  -1.555776)
   8:       128.73   10.621994  ( -1.616127  -0.148250   2.826331)
   9:       193.15   19.692530  ( -2.886196   1.849110   2.818367)
  10:       226.07    0.423094  ( -0.496857   0.349736  -0.232188)
  11:       262.62   12.081771  (  2.375619  -1.587152  -1.979685)
  12:       295.23   90.855127  ( -7.142382  -0.605578   6.282896)
  13:       326.85   14.206230  ( -0.227650  -1.064984   3.608353)
  14:       343.81   13.620073  ( -2.418828  -0.856774   2.652411)
  15:       410.63    6.314254  (  2.373645  -0.434917  -0.700649)
  16:       530.47    1.949651  (  0.655012  -1.116841  -0.522757)
  17:       571.42   12.234419  (  2.215931  -1.122240  -2.462650)
  18:       784.05    2.741083  ( -0.922668   0.904951  -1.034810)
  19:       828.19    3.463598  (  0.439490  -0.051089   1.807716)
  20:       935.67    2.732017  ( -0.743714   0.821976  -1.226075)
  21:       946.75    0.829983  ( -0.187544  -0.844745   0.284985)
  22:       971.35    8.320372  ( -2.775734   0.641414   0.451951)
  23:       996.31   28.327927  (  1.606404   0.668606   5.029946)
  24:      1007.72   61.024645  ( -2.583513   5.800962  -4.549610)
  25:      1051.60    4.773673  (  1.850176   0.859875   0.781752)
  26:      1102.69  104.429623  ( -3.923765   2.945705  -8.964179)
  27:      1128.97    5.316554  ( -2.111175  -0.020788  -0.926857)
  28:      1138.91   13.736899  (  2.294892  -0.982558  -2.739516)
  29:      1206.69    4.018347  ( -1.754396   0.968668  -0.046094)
  30:      1217.88   12.619138  ( -1.044438  -2.588177   2.197641)
  31:      1314.76    6.509294  (  2.047759   0.651182   1.375477)
  32:      1328.19    3.991161  (  0.143829   0.268222   1.974470)
  33:      1351.40    9.348133  (  0.530679  -0.216157   3.003296)
  34:      1389.99   14.898734  ( -2.030817   0.616633  -3.224016)
  35:      1397.05   49.749452  (  1.419837  -1.111496  -6.818951)
  36:      1404.10   14.476793  (  2.635481  -1.090509   2.518298)
  37:      1418.08   25.422915  ( -4.312425   1.464159  -2.163826)
  38:      1479.30    9.253128  ( -1.836857  -2.230872  -0.949894)
  39:      1482.64    4.680891  (  1.803395  -0.893231  -0.794225)
  40:      1487.88   13.592359  (  2.439453   2.627246   0.859654)
  41:      1493.92  147.173230  (-11.595505  -3.403904   1.063450)
  42:      1642.54   55.551463  (  2.727762  -6.766981   1.522743)
  43:      1656.36   50.932969  (  3.201903  -1.269834  -6.250465)
  44:      1746.65    0.937554  (  0.203307  -0.504281  -0.801200)
  45:      3041.36   19.667887  ( -4.161869   0.645663  -1.389190)
  46:      3056.38    4.401277  (  1.282932   0.647794  -1.528308)
  47:      3069.72    0.887040  (  0.197395  -0.889060  -0.240099)
  48:      3089.61    4.165751  ( -0.652304  -1.913065   0.283609)
  49:      3126.13   21.076465  (  4.119311   1.267219  -1.581739)
  50:      3137.32    6.335929  ( -0.701193   1.238444   2.076178)
  51:      3156.28    1.091297  ( -0.087976   0.420290  -0.952320)
  52:      3173.91    0.033318  (  0.041666  -0.061433   0.166757)
  53:      3415.60   29.657482  ( -5.125252  -1.807704  -0.348542)
  54:      3494.06   78.008260  ( -3.570305   7.943302  -1.471442)
  55:      3516.29   92.406327  (  2.466507  -0.950255  -9.242277)
  56:      3863.32   57.164572  (  0.637348  -6.345840   4.060626)

--------------------------
THERMOCHEMISTRY AT 298.15K
--------------------------

Temperature         ... 298.15 K
Pressure            ... 1.00 atm
Total Mass          ... 102.16 AMU

Throughout the following assumptions are being made:
  (1) The electronic state is orbitally nondegenerate
  (2) There are no thermally accessible electronically excited states
  (3) Hindered rotations indicated by low frequency modes) are not
      treated as such but are treated as vibrations and this may
      case some error
  (4) All equations used are the standard statistical mechanics
      equations for an ideal gas
  (5) All vibrations are strinctly harmonic

------------
INNER ENERGY
------------

The inner energy is: U= E(el) + E(ZPE) + E(vib) + E(rot) + E(trans)
    E(el)   - is the total energy from the electronic structure calculation
              = E(kin-el) + E(nuc-el) + E(el-el) + E(nuc-nuc)
    E(ZPE)  - the the zero temperature vibrational energy from the frequency calculation
    E(vib)  - the the finite temperature correction to E(ZPE) due to population
              of excietd vibrational states
    E(rot)  - is the rotational thermal energy
    E(trans)- is the translational thermal energy

Summary of contributions to the inner energy U:
Electronic energy                ...   -327.20228043 Eh
Zero point energy                ...      0.17428704 Eh     109.37 kcal/mol
Thermal vibrational correction   ...      0.00622132 Eh       3.90 kcal/mol
Thermal rotational correction    ...      0.00141627 Eh       0.89 kcal/mol
Thermal translational correction ...      0.00141627 Eh       0.89 kcal/mol
-----------------------------------------------------------------------
Total thermal energy                   -327.01893953 Eh

Summary of corrections to the electronic energy:
(perhaps to be used in another calculation)
Total thermal correction                  0.00905386 Eh       5.68 kcal/mol
Non-thermal (ZPE) correction              0.17428704 Eh     109.37 kcal/mol
-----------------------------------------------------------------------
Total correction                          0.18334090 Eh     115.05 kcal/mol

--------
ENTHALPY
--------

The enthalpy is H = U + kB*T
                kB is Boltzmann's constant
Total free energy                 ...   -327.01893953 Eh
Thermal Enthalpy correction       ...      0.00094421 Eh       0.59 kcal/mol
-----------------------------------------------------------------------
Total Enthalpy                    ...   -327.01799532 Eh

-------
ENTROPY
-------

The entropy contributions are T*S = T*(S(el)+S(vib)+S(rot)+S(trans)
     S(el)   - electronic entropy
     S(vib)  - vibrational entropy
     S(rot)  - rotational entropy
     S(trans)- translational entropy
The entropies will be listed as mutliplied by the temperature to get
units of energy

Electronic entropy                ...      0.00000000 Eh      0.00 kcal/mol
Vibrational entropy               ...      0.01139850 Eh      7.15 kcal/mol
Rotational entropy                ...      0.01239209 Eh      7.78 kcal/mol
Translational entropy             ...      0.01890147 Eh     11.86 kcal/mol
-----------------------------------------------------------------------
Final entropy term                ...      0.04269206 Eh     26.79 kcal/mol

CAUTION: The rotational entropy is not quite correctly treated here
         because it includes a symmetry number that is not yet correctly
         implemented in ORCA!
For a nonlinear molecule the correct rotational entropy is:
    S(rot) = R*(ln(qrot/sn)+1.5)
    R    = 8.31441 J/mol/K = 1.987191683e-3 kcal/mol/K
    qrot = 335476.7123223
    sn is the rotational symmetry number. We have assumed 3 here
       if it is different for your molecule then you should correct
       the printed rotational entropy by manually evaluating the equation
       as given above

For convenience we print out the resulting values for sn=1 - 12:
 sn= 1  qrot/sn=  335476.7123 T*S(rot)=     8.43 kcal/mol T*S(tot)=    27.44 kcal/mol
 sn= 2  qrot/sn=  167738.3562 T*S(rot)=     8.02 kcal/mol T*S(tot)=    27.03 kcal/mol
 sn= 3  qrot/sn=  111825.5708 T*S(rot)=     7.78 kcal/mol T*S(tot)=    26.79 kcal/mol
 sn= 4  qrot/sn=   83869.1781 T*S(rot)=     7.61 kcal/mol T*S(tot)=    26.62 kcal/mol
 sn= 5  qrot/sn=   67095.3425 T*S(rot)=     7.47 kcal/mol T*S(tot)=    26.49 kcal/mol
 sn= 6  qrot/sn=   55912.7854 T*S(rot)=     7.37 kcal/mol T*S(tot)=    26.38 kcal/mol
 sn= 7  qrot/sn=   47925.2446 T*S(rot)=     7.27 kcal/mol T*S(tot)=    26.29 kcal/mol
 sn= 8  qrot/sn=   41934.5890 T*S(rot)=     7.20 kcal/mol T*S(tot)=    26.21 kcal/mol
 sn= 9  qrot/sn=   37275.1903 T*S(rot)=     7.13 kcal/mol T*S(tot)=    26.14 kcal/mol
 sn=10  qrot/sn=   33547.6712 T*S(rot)=     7.06 kcal/mol T*S(tot)=    26.08 kcal/mol
 sn=11  qrot/sn=   30497.8829 T*S(rot)=     7.01 kcal/mol T*S(tot)=    26.02 kcal/mol
 sn=12  qrot/sn=   27956.3927 T*S(rot)=     6.95 kcal/mol T*S(tot)=    25.97 kcal/mol

-------------------
GIBBS FREE ENTHALPY
-------------------

The Gibbs free enthalpy is G = H - T*S

Total enthalpy                    ...   -327.01799532 Eh
Total entropy correction          ...     -0.04269206 Eh    -26.79 kcal/mol
-----------------------------------------------------------------------
Final Gibbs free enthalpy         ...   -327.06068738 Eh

For completeness - the Gibbs free enthalpy minus the electronic energy
G-E(el)                           ...      0.14159305 Eh     88.85 kcal/mol

                             ****ORCA TERMINATED NORMALLY****
TOTAL RUN TIME: 0 days 0 hours 48 minutes 33 seconds 670 msec
