                         Program Version 3.0.3 - RELEASE   -
|  1> ! NORI PBE0 def2-TZVP UseSym TightOPT Freq TightSCF Grid3 FinalGrid5 XYZFile
|  2> % pal
|  3>     nprocs 8
|  4> end
|  5> %method
|  6>     SymThresh 5.0e-2
|  7> end
|  8> % geom
|  9>     MaxIter 10
| 10> end
| 11> % maxcore 2000
| 12> % output
| 13>     printlevel mini
| 14>     print[ P_Basis ] 0
| 15>     print[ P_SCFInfo ] 1
| 16>     print[ P_SCFIterInfo ] 1
| 17>     print[ P_OrbEn ] 0
| 18>     print[ P_Cartesian ] 0
| 19> end
| 20> % elprop
| 21>     Dipole false
| 22> end
| 23> *xyz 1 1
| 24>  C        1.1156829797    -0.2271261776     0.5920921081
| 25>  C        2.4757362535    -0.1497721127    -0.0584455124
| 26>  N        2.9455516455    -1.5515591974    -0.4094659796
| 27>  C        2.5968531493     0.6764247684    -1.3162603075
| 28>  C        1.5436862215     1.1763030362    -1.9496487880
| 29>  C        3.9964065095     0.9533584109    -1.7849392093
| 30>  O        4.7201589654    -0.2812383004    -1.8328911782
| 31>  H        0.7936351727     0.7694979016     0.8927946712
| 32>  H        1.1478041716    -0.8455689781     1.4919129312
| 33>  H        0.3617468896    -0.6392037662    -0.0826934673
| 34>  H        3.2172476210     0.2041118255     0.6657550033
| 35>  H        2.2684345354    -2.0090661395    -1.0214805095
| 36>  H        3.0758457754    -2.1305909092     0.4196206977
| 37>  H        3.8413948910    -1.4390980651    -0.9326287546
| 38>  H        1.6644747396     1.7613498237    -2.8541469574
| 39>  H        0.5307534228     1.0507331466    -1.5879431216
| 40>  H        3.9735893832     1.4222671184    -2.7708983939
| 41>  H        4.4908762787     1.6389539475    -1.0840824242
| 42>  H        5.6397613944    -0.1227563325    -2.0648608079
| 43> *
| 44>
| 45>                          ****END OF INPUT****
 Total Charge           Charge          ....    1
 Multiplicity           Mult            ....    1
 Number of Electrons    NEL             ....   56
FINAL SINGLE POINT ENERGY      -327.220214124482
FINAL SINGLE POINT ENERGY      -327.220213813168
FINAL SINGLE POINT ENERGY      -327.220215382598

CARTESIAN COORDINATES (ANGSTROEM)
---------------------------------
  C      0.768613   -0.470140   -2.144564
  C      0.482174   -0.545155   -0.664604
  N      1.672537    0.000186    0.106313
  C     -0.736855    0.186187   -0.156026
  C     -1.443848    1.015346   -0.913214
  C     -1.145878   -0.125836    1.254615
  O     -0.000896   -0.000398    2.105255
  H     -0.057649   -0.909296   -2.703239
  H      1.669820   -1.033940   -2.396116
  H      0.900289    0.559550   -2.484796
  H      0.419626   -1.591949   -0.348719
  H      1.872329    0.958776   -0.182343
  H      2.511339   -0.561965   -0.035871
  H      1.393487    0.008803    1.111656
  H     -2.312267    1.527682   -0.515614
  H     -1.210672    1.199086   -1.954603
  H     -1.936345    0.557040    1.573588
  H     -1.529551   -1.152886    1.308230
  H     -0.219580   -0.262251    3.004224

FINAL SINGLE POINT ENERGY      -327.220215573546
                    ***********************HURRAY********************
 Multiplicity           Mult            ....    1
 Number of Electrons    NEL             ....   56
 Basis Dimension        Dim             ....  289
FINAL SINGLE POINT ENERGY      -327.220215630656

VIBRATIONAL FREQUENCIES
-----------------------

   0:         0.00 cm**-1
   1:         0.00 cm**-1
   2:         0.00 cm**-1
   3:         0.00 cm**-1
   4:         0.00 cm**-1
   5:         0.00 cm**-1
   6:        76.44 cm**-1
   7:       130.34 cm**-1
   8:       270.11 cm**-1
   9:       284.04 cm**-1
  10:       287.21 cm**-1
  11:       294.78 cm**-1
  12:       340.99 cm**-1
  13:       353.22 cm**-1
  14:       382.53 cm**-1
  15:       426.15 cm**-1
  16:       517.65 cm**-1
  17:       654.88 cm**-1
  18:       737.90 cm**-1
  19:       763.48 cm**-1
  20:       862.27 cm**-1
  21:       948.83 cm**-1
  22:       968.31 cm**-1
  23:      1000.35 cm**-1
  24:      1009.97 cm**-1
  25:      1025.45 cm**-1
  26:      1057.45 cm**-1
  27:      1106.41 cm**-1
  28:      1148.14 cm**-1
  29:      1203.95 cm**-1
  30:      1230.09 cm**-1
  31:      1255.44 cm**-1
  32:      1289.23 cm**-1
  33:      1385.02 cm**-1
  34:      1400.78 cm**-1
  35:      1418.95 cm**-1
  36:      1427.47 cm**-1
  37:      1458.62 cm**-1
  38:      1485.08 cm**-1
  39:      1494.98 cm**-1
  40:      1497.00 cm**-1
  41:      1506.37 cm**-1
  42:      1638.19 cm**-1
  43:      1670.13 cm**-1
  44:      1739.03 cm**-1
  45:      3028.08 cm**-1
  46:      3062.11 cm**-1
  47:      3070.62 cm**-1
  48:      3097.11 cm**-1
  49:      3108.68 cm**-1
  50:      3136.27 cm**-1
  51:      3160.87 cm**-1
  52:      3175.54 cm**-1
  53:      3262.74 cm**-1
  54:      3466.25 cm**-1
  55:      3531.62 cm**-1
  56:      3862.16 cm**-1

IR SPECTRUM
-----------

 Mode    freq (cm**-1)   T**2         TX         TY         TZ
-------------------------------------------------------------------
   6:        76.44    7.415547  (  0.103883   2.684711  -0.443936)
   7:       130.34    2.173253  (  0.842707  -0.369342  -1.151818)
   8:       270.11    0.795352  (  0.583981   0.152323  -0.656594)
   9:       284.04   30.457557  (  0.368605  -5.506257  -0.053110)
  10:       287.21   15.062249  ( -3.269155  -0.818018   1.925025)
  11:       294.78   99.308118  (  1.841297  -8.940899  -3.997258)
  12:       340.99   12.209879  (  0.102467   2.356792  -2.577773)
  13:       353.22    9.182582  (  1.297955   0.044664  -2.737864)
  14:       382.53   29.883997  ( -3.926910   2.085195   3.180461)
  15:       426.15    6.008632  (  0.621735  -0.022911   2.370981)
  16:       517.65    9.196241  (  1.069010  -0.507974   2.792028)
  17:       654.88   10.128241  (  1.271687   1.982551  -2.140220)
  18:       737.90    1.962281  ( -0.410646  -0.078243  -1.336985)
  19:       763.48    3.015392  ( -1.658809   0.449020   0.249254)
  20:       862.27    9.619069  ( -1.249671   0.185860  -2.832463)
  21:       948.83    8.119915  (  1.942972   0.309600  -2.061291)
  22:       968.31    8.157978  ( -0.687736  -0.085226  -2.770872)
  23:      1000.35   16.296559  ( -3.451979  -1.486431   1.473406)
  24:      1009.97   37.343055  ( -1.886266  -4.110533  -4.109571)
  25:      1025.45    7.755181  (  1.486678   1.684337  -1.645593)
  26:      1057.45   61.721137  ( -5.574257  -0.105021  -5.535139)
  27:      1106.41   21.403472  (  3.614640   1.379760   2.536555)
  28:      1148.14   22.187356  ( -1.367490   3.331983   3.035658)
  29:      1203.95   44.062499  (  6.612358   0.486839  -0.319691)
  30:      1230.09   50.078838  ( -2.734160  -1.646132  -6.316127)
  31:      1255.44    7.092004  ( -2.233475   0.584001  -1.327605)
  32:      1289.23    3.855011  (  1.646720   1.046934   0.217378)
  33:      1385.02   17.814558  ( -3.239137   1.271122  -2.388890)
  34:      1400.78   11.634721  (  2.857940  -1.814079   0.419546)
  35:      1418.95   20.606274  ( -0.610705  -1.623150  -4.195080)
  36:      1427.47    2.423022  (  0.853503  -0.439132   1.225446)
  37:      1458.62   67.649783  (  7.318850  -1.536948   3.423741)
  38:      1485.08   10.862527  (  2.117970  -2.495791   0.384395)
  39:      1494.98   50.452814  (  6.272421   2.980490   1.492055)
  40:      1497.00   79.961786  (  8.246505   3.339684  -0.896357)
  41:      1506.37   43.208712  (  6.211131   2.002279  -0.788314)
  42:      1638.19   13.760400  (  0.372138   3.358723  -1.529998)
  43:      1670.13   45.230598  ( -4.740298   4.533947   1.484416)
  44:      1739.03    0.815880  ( -0.263155  -0.827855  -0.247558)
  45:      3028.08   20.246867  ( -3.631315  -2.490301   0.926724)
  46:      3062.11    2.210442  (  1.434101   0.378443  -0.102845)
  47:      3070.62    1.812150  (  0.192846  -1.328983  -0.093613)
  48:      3097.11  475.147662  ( 10.111568  -0.280706 -19.308678)
  49:      3108.68    6.581408  ( -1.329373   1.776171  -1.288174)
  50:      3136.27    6.682510  (  1.425765  -2.083274  -0.556483)
  51:      3160.87    2.270177  (  0.913417   0.316572  -1.155694)
  52:      3175.54    0.098633  ( -0.210692   0.232726   0.008957)
  53:      3262.74    0.224226  ( -0.105914  -0.014632   0.461296)
  54:      3466.25   67.680256  ( -6.993906  -2.545230   3.505331)
  55:      3531.62   65.848393  ( -3.649262   7.243513  -0.250610)
  56:      3862.16  121.256722  (  0.475732   2.244157 -10.770059)

--------------------------
THERMOCHEMISTRY AT 298.15K
--------------------------

Temperature         ... 298.15 K
Pressure            ... 1.00 atm
Total Mass          ... 102.16 AMU

Throughout the following assumptions are being made:
  (1) The electronic state is orbitally nondegenerate
  (2) There are no thermally accessible electronically excited states
  (3) Hindered rotations indicated by low frequency modes) are not
      treated as such but are treated as vibrations and this may
      case some error
  (4) All equations used are the standard statistical mechanics
      equations for an ideal gas
  (5) All vibrations are strinctly harmonic

------------
INNER ENERGY
------------

The inner energy is: U= E(el) + E(ZPE) + E(vib) + E(rot) + E(trans)
    E(el)   - is the total energy from the electronic structure calculation
              = E(kin-el) + E(nuc-el) + E(el-el) + E(nuc-nuc)
    E(ZPE)  - the the zero temperature vibrational energy from the frequency calculation
    E(vib)  - the the finite temperature correction to E(ZPE) due to population
              of excietd vibrational states
    E(rot)  - is the rotational thermal energy
    E(trans)- is the translational thermal energy

Summary of contributions to the inner energy U:
Electronic energy                ...   -327.22021563 Eh
Zero point energy                ...      0.17475657 Eh     109.66 kcal/mol
Thermal vibrational correction   ...      0.00554059 Eh       3.48 kcal/mol
Thermal rotational correction    ...      0.00141627 Eh       0.89 kcal/mol
Thermal translational correction ...      0.00141627 Eh       0.89 kcal/mol
-----------------------------------------------------------------------
Total thermal energy                   -327.03708593 Eh

Summary of corrections to the electronic energy:
(perhaps to be used in another calculation)
Total thermal correction                  0.00837314 Eh       5.25 kcal/mol
Non-thermal (ZPE) correction              0.17475657 Eh     109.66 kcal/mol
-----------------------------------------------------------------------
Total correction                          0.18312970 Eh     114.92 kcal/mol

--------
ENTHALPY
--------

The enthalpy is H = U + kB*T
                kB is Boltzmann's constant
Total free energy                 ...   -327.03708593 Eh
Thermal Enthalpy correction       ...      0.00094421 Eh       0.59 kcal/mol
-----------------------------------------------------------------------
Total Enthalpy                    ...   -327.03614172 Eh

-------
ENTROPY
-------

The entropy contributions are T*S = T*(S(el)+S(vib)+S(rot)+S(trans)
     S(el)   - electronic entropy
     S(vib)  - vibrational entropy
     S(rot)  - rotational entropy
     S(trans)- translational entropy
The entropies will be listed as mutliplied by the temperature to get
units of energy

Electronic entropy                ...      0.00000000 Eh      0.00 kcal/mol
Vibrational entropy               ...      0.00942182 Eh      5.91 kcal/mol
Rotational entropy                ...      0.01213534 Eh      7.62 kcal/mol
Translational entropy             ...      0.01890147 Eh     11.86 kcal/mol
-----------------------------------------------------------------------
Final entropy term                ...      0.04045862 Eh     25.39 kcal/mol

CAUTION: The rotational entropy is not quite correctly treated here
         because it includes a symmetry number that is not yet correctly
         implemented in ORCA!
For a nonlinear molecule the correct rotational entropy is:
    S(rot) = R*(ln(qrot/sn)+1.5)
    R    = 8.31441 J/mol/K = 1.987191683e-3 kcal/mol/K
    qrot = 255602.7722195
    sn is the rotational symmetry number. We have assumed 3 here
       if it is different for your molecule then you should correct
       the printed rotational entropy by manually evaluating the equation
       as given above

For convenience we print out the resulting values for sn=1 - 12:
 sn= 1  qrot/sn=  255602.7722 T*S(rot)=     8.27 kcal/mol T*S(tot)=    26.04 kcal/mol
 sn= 2  qrot/sn=  127801.3861 T*S(rot)=     7.86 kcal/mol T*S(tot)=    25.63 kcal/mol
 sn= 3  qrot/sn=   85200.9241 T*S(rot)=     7.62 kcal/mol T*S(tot)=    25.39 kcal/mol
 sn= 4  qrot/sn=   63900.6931 T*S(rot)=     7.44 kcal/mol T*S(tot)=    25.22 kcal/mol
 sn= 5  qrot/sn=   51120.5544 T*S(rot)=     7.31 kcal/mol T*S(tot)=    25.09 kcal/mol
 sn= 6  qrot/sn=   42600.4620 T*S(rot)=     7.20 kcal/mol T*S(tot)=    24.98 kcal/mol
 sn= 7  qrot/sn=   36514.6817 T*S(rot)=     7.11 kcal/mol T*S(tot)=    24.89 kcal/mol
 sn= 8  qrot/sn=   31950.3465 T*S(rot)=     7.03 kcal/mol T*S(tot)=    24.81 kcal/mol
 sn= 9  qrot/sn=   28400.3080 T*S(rot)=     6.96 kcal/mol T*S(tot)=    24.74 kcal/mol
 sn=10  qrot/sn=   25560.2772 T*S(rot)=     6.90 kcal/mol T*S(tot)=    24.67 kcal/mol
 sn=11  qrot/sn=   23236.6157 T*S(rot)=     6.85 kcal/mol T*S(tot)=    24.62 kcal/mol
 sn=12  qrot/sn=   21300.2310 T*S(rot)=     6.79 kcal/mol T*S(tot)=    24.57 kcal/mol

-------------------
GIBBS FREE ENTHALPY
-------------------

The Gibbs free enthalpy is G = H - T*S

Total enthalpy                    ...   -327.03614172 Eh
Total entropy correction          ...     -0.04045862 Eh    -25.39 kcal/mol
-----------------------------------------------------------------------
Final Gibbs free enthalpy         ...   -327.07660034 Eh

For completeness - the Gibbs free enthalpy minus the electronic energy
G-E(el)                           ...      0.14361529 Eh     90.12 kcal/mol

                             ****ORCA TERMINATED NORMALLY****
TOTAL RUN TIME: 0 days 0 hours 56 minutes 39 seconds 522 msec
