                         Program Version 3.0.3 - RELEASE   -
|  1> ! NORI PBE0 def2-TZVP UseSym TightOPT Freq TightSCF Grid3 FinalGrid5 XYZFile
|  2> % pal
|  3>     nprocs 8
|  4> end
|  5> %method
|  6>     SymThresh 5.0e-2
|  7> end
|  8> % geom
|  9>     MaxIter 10
| 10> end
| 11> % maxcore 2000
| 12> % output
| 13>     printlevel mini
| 14>     print[ P_Basis ] 0
| 15>     print[ P_SCFInfo ] 1
| 16>     print[ P_SCFIterInfo ] 1
| 17>     print[ P_OrbEn ] 0
| 18>     print[ P_Cartesian ] 0
| 19> end
| 20> % elprop
| 21>     Dipole false
| 22> end
| 23> *xyz 1 1
| 24>  C        1.4031452767     0.2848792528    -0.5915103003
| 25>  C        2.8736016437    -0.0610690425    -0.6537087868
| 26>  N        3.6749182193     1.2003511974    -0.4180230497
| 27>  C        3.3450674612    -1.1199208427     0.3480249535
| 28>  C        2.4752466297    -2.3701834513     0.2768462384
| 29>  C        4.7965140312    -1.5238964982     0.1261924049
| 30>  O        5.6336663379    -0.3663921346     0.1831113524
| 31>  H        1.1621695396     1.1160821804    -1.2589950246
| 32>  H        1.0986427523     0.5532819372     0.4242352615
| 33>  H        0.8007231067    -0.5647332577    -0.9086748955
| 34>  H        3.1450465667    -0.3798855394    -1.6656135125
| 35>  H        3.3687452013     1.6626111269     0.4390970431
| 36>  H        3.5728170539     1.8634209442    -1.1851384624
| 37>  H        4.6737068033     0.9123078516    -0.2946421048
| 38>  H        3.2600921235    -0.6930052090     1.3574179903
| 39>  H        2.4358626865    -2.7719296480    -0.7392978748
| 40>  H        1.4562045235    -2.1737687188     0.6076431935
| 41>  H        2.8815572380    -3.1480067425     0.9249752490
| 42>  H        5.0915482766    -2.2332078223     0.9039790338
| 43>  H        4.9008369187    -2.0167842918    -0.8480107624
| 44>  H        6.5581976097    -0.6111412919     0.0834020533
| 45> *
| 46>
| 47>                          ****END OF INPUT****
 Total Charge           Charge          ....    1
 Multiplicity           Mult            ....    1
 Number of Electrons    NEL             ....   58
FINAL SINGLE POINT ENERGY      -328.454091631013
FINAL SINGLE POINT ENERGY      -328.454089875010
FINAL SINGLE POINT ENERGY      -328.454094862504

CARTESIAN COORDINATES (ANGSTROEM)
---------------------------------
  C      0.996554   -0.006878   -2.082638
  C      0.597437   -0.350286   -0.665152
  N      1.746345   -0.001792    0.255949
  C     -0.660884    0.352068   -0.143930
  C     -1.830489    0.172798   -1.104965
  C     -1.080901   -0.152579    1.230559
  O      0.000806    0.000395    2.152227
  H      1.955155   -0.461312   -2.345822
  H      1.072134    1.074937   -2.225781
  H      0.258487   -0.387398   -2.786857
  H      0.472894   -1.432890   -0.559112
  H      2.047709    0.961333    0.103016
  H      2.550604   -0.609128    0.105608
  H      1.388722   -0.080334    1.237130
  H     -0.439663    1.425475   -0.060371
  H     -2.021754   -0.884401   -1.308124
  H     -1.656913    0.678005   -2.054242
  H     -2.738920    0.596783   -0.674304
  H     -1.943525    0.425231    1.572710
  H     -1.375624   -1.207191    1.166699
  H     -0.263761   -0.272900    3.035210

FINAL SINGLE POINT ENERGY      -328.454095566342
                    ***********************HURRAY********************
 Multiplicity           Mult            ....    1
 Number of Electrons    NEL             ....   58
 Basis Dimension        Dim             ....  301
FINAL SINGLE POINT ENERGY      -328.454096019716

VIBRATIONAL FREQUENCIES
-----------------------

   0:         0.00 cm**-1
   1:         0.00 cm**-1
   2:         0.00 cm**-1
   3:         0.00 cm**-1
   4:         0.00 cm**-1
   5:         0.00 cm**-1
   6:        82.60 cm**-1
   7:       157.55 cm**-1
   8:       212.81 cm**-1
   9:       235.62 cm**-1
  10:       303.24 cm**-1
  11:       311.04 cm**-1
  12:       318.62 cm**-1
  13:       334.25 cm**-1
  14:       350.08 cm**-1
  15:       387.73 cm**-1
  16:       403.42 cm**-1
  17:       498.05 cm**-1
  18:       535.97 cm**-1
  19:       776.28 cm**-1
  20:       871.41 cm**-1
  21:       933.25 cm**-1
  22:       953.65 cm**-1
  23:       967.76 cm**-1
  24:       999.14 cm**-1
  25:      1032.26 cm**-1
  26:      1063.39 cm**-1
  27:      1074.40 cm**-1
  28:      1123.95 cm**-1
  29:      1162.97 cm**-1
  30:      1204.67 cm**-1
  31:      1230.22 cm**-1
  32:      1261.70 cm**-1
  33:      1279.96 cm**-1
  34:      1325.69 cm**-1
  35:      1342.54 cm**-1
  36:      1386.93 cm**-1
  37:      1405.87 cm**-1
  38:      1416.03 cm**-1
  39:      1423.70 cm**-1
  40:      1443.02 cm**-1
  41:      1481.70 cm**-1
  42:      1487.50 cm**-1
  43:      1492.26 cm**-1
  44:      1506.13 cm**-1
  45:      1507.06 cm**-1
  46:      1518.88 cm**-1
  47:      1641.39 cm**-1
  48:      1670.78 cm**-1
  49:      3018.37 cm**-1
  50:      3024.98 cm**-1
  51:      3039.44 cm**-1
  52:      3054.32 cm**-1
  53:      3062.15 cm**-1
  54:      3076.06 cm**-1
  55:      3101.26 cm**-1
  56:      3127.16 cm**-1
  57:      3137.22 cm**-1
  58:      3157.49 cm**-1
  59:      3167.56 cm**-1
  60:      3470.82 cm**-1
  61:      3535.99 cm**-1
  62:      3863.00 cm**-1

IR SPECTRUM
-----------

 Mode    freq (cm**-1)   T**2         TX         TY         TZ
-------------------------------------------------------------------
   6:        82.60    6.516903  (  0.163280   2.528031  -0.315119)
   7:       157.55    3.172199  ( -0.822361   1.477271   0.559993)
   8:       212.81    0.267009  ( -0.436994   0.250099   0.116171)
   9:       235.62    0.993740  (  0.898360   0.370952  -0.221550)
  10:       303.24   75.781682  (  0.606161  -8.596034  -1.233875)
  11:       311.04   23.586491  ( -3.290175   1.991504   2.965663)
  12:       318.62   15.580026  ( -0.536540   2.554830   2.960574)
  13:       334.25   23.180664  ( -0.716588  -4.650977   1.017632)
  14:       350.08    3.896649  (  0.897186  -1.722280  -0.354203)
  15:       387.73    8.555146  (  2.086147  -1.933542   0.681580)
  16:       403.42   46.810782  ( -4.474345   2.080116   4.739634)
  17:       498.05    4.751219  ( -0.928622   0.765746  -1.817282)
  18:       535.97   19.823145  (  0.254035   0.371954  -4.429476)
  19:       776.28    2.227876  ( -0.493326   0.737915   1.199994)
  20:       871.41    8.749432  ( -0.125572   0.484928  -2.915220)
  21:       933.25    4.336457  (  1.609626   1.306956  -0.193464)
  22:       953.65    7.612076  (  0.113773  -0.870475  -2.615608)
  23:       967.76    3.091955  ( -0.169356   0.315610  -1.721530)
  24:       999.14   15.054600  (  0.122807  -0.958020   3.757887)
  25:      1032.26   22.206639  (  2.827269  -1.904725  -3.253492)
  26:      1063.39   59.200200  ( -5.144310  -0.501101  -5.699576)
  27:      1074.40    6.889984  (  1.884233  -0.349958   1.793650)
  28:      1123.95    4.438425  ( -1.743770   0.374431   1.121379)
  29:      1162.97   30.279844  ( -5.088214  -0.552977  -2.020924)
  30:      1204.67    4.100174  (  0.877180   1.819690   0.139493)
  31:      1230.22   36.934036  ( -0.937176   0.927117   5.932638)
  32:      1261.70   31.807990  ( -5.040353  -1.290618  -2.176497)
  33:      1279.96    3.536764  (  1.652526  -0.177844  -0.879940)
  34:      1325.69   10.196622  (  2.397753   0.694227   1.991344)
  35:      1342.54    4.470651  (  1.116494  -0.151505  -1.789172)
  36:      1386.93   12.343053  (  2.297710  -0.697963   2.564455)
  37:      1405.87    1.130373  ( -0.735085   0.639217  -0.425940)
  38:      1416.03    3.321736  ( -0.575974  -0.044389   1.728589)
  39:      1423.70   21.619954  ( -1.770025   0.414330  -4.279637)
  40:      1443.02   21.545804  ( -4.376803  -0.118116  -1.541249)
  41:      1481.70    9.370543  (  1.089743   2.519805   1.354099)
  42:      1487.50   23.278447  (  3.075349  -3.702001  -0.340387)
  43:      1492.26    6.733878  (  1.882056   0.918177  -1.532546)
  44:      1506.13   89.766205  ( -9.082595  -0.548868  -2.640345)
  45:      1507.06    3.653089  (  1.299351   1.333125  -0.433074)
  46:      1518.88  104.728977  ( -9.693384  -3.261210   0.363024)
  47:      1641.39   18.931220  (  0.737019  -4.288126   0.000778)
  48:      1670.78   40.654252  ( -4.388233   3.903324   2.482283)
  49:      3018.37  119.149334  ( -5.819116   0.137206   9.234089)
  50:      3024.98  409.440890  (-11.996133  -2.212024  16.144368)
  51:      3039.44   65.263816  (  0.823674  -2.703374  -7.568167)
  52:      3054.32    3.752284  ( -1.742857  -0.615393   0.579675)
  53:      3062.15    6.981288  ( -1.637388  -1.465567  -1.467093)
  54:      3076.06   10.293297  ( -1.988907  -2.115251   1.365013)
  55:      3101.26    9.269179  ( -1.674491   2.507276   0.422881)
  56:      3127.16    7.858133  (  1.688825  -2.165073  -0.564323)
  57:      3137.22    9.062614  ( -1.188311   2.692670   0.632500)
  58:      3157.49    9.225427  ( -1.646322  -1.152019   2.277697)
  59:      3167.56    0.462550  (  0.616297   0.126027   0.258545)
  60:      3470.82   66.356464  (  7.282495   2.650712  -2.509074)
  61:      3535.99   68.884010  ( -3.809714   7.368391   0.277303)
  62:      3863.00  123.853115  (  1.109124   2.253758 -10.841750)

--------------------------
THERMOCHEMISTRY AT 298.15K
--------------------------

Temperature         ... 298.15 K
Pressure            ... 1.00 atm
Total Mass          ... 104.17 AMU

Throughout the following assumptions are being made:
  (1) The electronic state is orbitally nondegenerate
  (2) There are no thermally accessible electronically excited states
  (3) Hindered rotations indicated by low frequency modes) are not
      treated as such but are treated as vibrations and this may
      case some error
  (4) All equations used are the standard statistical mechanics
      equations for an ideal gas
  (5) All vibrations are strinctly harmonic

------------
INNER ENERGY
------------

The inner energy is: U= E(el) + E(ZPE) + E(vib) + E(rot) + E(trans)
    E(el)   - is the total energy from the electronic structure calculation
              = E(kin-el) + E(nuc-el) + E(el-el) + E(nuc-nuc)
    E(ZPE)  - the the zero temperature vibrational energy from the frequency calculation
    E(vib)  - the the finite temperature correction to E(ZPE) due to population
              of excietd vibrational states
    E(rot)  - is the rotational thermal energy
    E(trans)- is the translational thermal energy

Summary of contributions to the inner energy U:
Electronic energy                ...   -328.45409602 Eh
Zero point energy                ...      0.19808951 Eh     124.30 kcal/mol
Thermal vibrational correction   ...      0.00605204 Eh       3.80 kcal/mol
Thermal rotational correction    ...      0.00141627 Eh       0.89 kcal/mol
Thermal translational correction ...      0.00141627 Eh       0.89 kcal/mol
-----------------------------------------------------------------------
Total thermal energy                   -328.24712193 Eh

Summary of corrections to the electronic energy:
(perhaps to be used in another calculation)
Total thermal correction                  0.00888458 Eh       5.58 kcal/mol
Non-thermal (ZPE) correction              0.19808951 Eh     124.30 kcal/mol
-----------------------------------------------------------------------
Total correction                          0.20697409 Eh     129.88 kcal/mol

--------
ENTHALPY
--------

The enthalpy is H = U + kB*T
                kB is Boltzmann's constant
Total free energy                 ...   -328.24712193 Eh
Thermal Enthalpy correction       ...      0.00094421 Eh       0.59 kcal/mol
-----------------------------------------------------------------------
Total Enthalpy                    ...   -328.24617772 Eh

-------
ENTROPY
-------

The entropy contributions are T*S = T*(S(el)+S(vib)+S(rot)+S(trans)
     S(el)   - electronic entropy
     S(vib)  - vibrational entropy
     S(rot)  - rotational entropy
     S(trans)- translational entropy
The entropies will be listed as mutliplied by the temperature to get
units of energy

Electronic entropy                ...      0.00000000 Eh      0.00 kcal/mol
Vibrational entropy               ...      0.01018627 Eh      6.39 kcal/mol
Rotational entropy                ...      0.01222184 Eh      7.67 kcal/mol
Translational entropy             ...      0.01892914 Eh     11.88 kcal/mol
-----------------------------------------------------------------------
Final entropy term                ...      0.04133725 Eh     25.94 kcal/mol

CAUTION: The rotational entropy is not quite correctly treated here
         because it includes a symmetry number that is not yet correctly
         implemented in ORCA!
For a nonlinear molecule the correct rotational entropy is:
    S(rot) = R*(ln(qrot/sn)+1.5)
    R    = 8.31441 J/mol/K = 1.987191683e-3 kcal/mol/K
    qrot = 280127.5048037
    sn is the rotational symmetry number. We have assumed 3 here
       if it is different for your molecule then you should correct
       the printed rotational entropy by manually evaluating the equation
       as given above

For convenience we print out the resulting values for sn=1 - 12:
 sn= 1  qrot/sn=  280127.5048 T*S(rot)=     8.32 kcal/mol T*S(tot)=    26.59 kcal/mol
 sn= 2  qrot/sn=  140063.7524 T*S(rot)=     7.91 kcal/mol T*S(tot)=    26.18 kcal/mol
 sn= 3  qrot/sn=   93375.8349 T*S(rot)=     7.67 kcal/mol T*S(tot)=    25.94 kcal/mol
 sn= 4  qrot/sn=   70031.8762 T*S(rot)=     7.50 kcal/mol T*S(tot)=    25.77 kcal/mol
 sn= 5  qrot/sn=   56025.5010 T*S(rot)=     7.37 kcal/mol T*S(tot)=    25.64 kcal/mol
 sn= 6  qrot/sn=   46687.9175 T*S(rot)=     7.26 kcal/mol T*S(tot)=    25.53 kcal/mol
 sn= 7  qrot/sn=   40018.2150 T*S(rot)=     7.17 kcal/mol T*S(tot)=    25.44 kcal/mol
 sn= 8  qrot/sn=   35015.9381 T*S(rot)=     7.09 kcal/mol T*S(tot)=    25.36 kcal/mol
 sn= 9  qrot/sn=   31125.2783 T*S(rot)=     7.02 kcal/mol T*S(tot)=    25.29 kcal/mol
 sn=10  qrot/sn=   28012.7505 T*S(rot)=     6.96 kcal/mol T*S(tot)=    25.23 kcal/mol
 sn=11  qrot/sn=   25466.1368 T*S(rot)=     6.90 kcal/mol T*S(tot)=    25.17 kcal/mol
 sn=12  qrot/sn=   23343.9587 T*S(rot)=     6.85 kcal/mol T*S(tot)=    25.12 kcal/mol

-------------------
GIBBS FREE ENTHALPY
-------------------

The Gibbs free enthalpy is G = H - T*S

Total enthalpy                    ...   -328.24617772 Eh
Total entropy correction          ...     -0.04133725 Eh    -25.94 kcal/mol
-----------------------------------------------------------------------
Final Gibbs free enthalpy         ...   -328.28751498 Eh

For completeness - the Gibbs free enthalpy minus the electronic energy
G-E(el)                           ...      0.16658104 Eh    104.53 kcal/mol

                             ****ORCA TERMINATED NORMALLY****
TOTAL RUN TIME: 0 days 1 hours 4 minutes 33 seconds 935 msec
