                         Program Version 3.0.3 - RELEASE   -
|  1> ! NORI PBE0 def2-TZVP UseSym TightOPT Freq TightSCF Grid3 FinalGrid5 XYZFile
|  2> % pal
|  3>     nprocs 8
|  4> end
|  5> %method
|  6>     SymThresh 5.0e-2
|  7> end
|  8> % geom
|  9>     MaxIter 10
| 10> end
| 11> % maxcore 2000
| 12> % output
| 13>     printlevel mini
| 14>     print[ P_Basis ] 0
| 15>     print[ P_SCFInfo ] 1
| 16>     print[ P_SCFIterInfo ] 1
| 17>     print[ P_OrbEn ] 0
| 18>     print[ P_Cartesian ] 0
| 19> end
| 20> % elprop
| 21>     Dipole false
| 22> end
| 23> *xyz 1 1
| 24>  C        1.3517976802    -0.4872429068    -0.1512453655
| 25>  C        2.7445179666     0.0911196926    -0.1703402952
| 26>  N        3.7570235157    -0.9941773935    -0.4550088880
| 27>  C        3.0249365822     1.2258147978    -1.1750463809
| 28>  C        2.6067498210     0.8858884117    -2.5979592786
| 29>  C        2.3635546961     2.5066090579    -0.6972912018
| 30>  O        4.4486385960     1.3366821055    -1.0912013093
| 31>  H        0.6300130032     0.2930348692     0.0896747165
| 32>  H        1.2554769973    -1.2589677206     0.6159108238
| 33>  H        1.0717436213    -0.9170438739    -1.1155178064
| 34>  H        3.0241224315     0.4648113107     0.8177758232
| 35>  H        3.4868695391    -1.5577903422    -1.2621650210
| 36>  H        3.8853767271    -1.6181326245     0.3406836411
| 37>  H        4.6390908001    -0.5050780417    -0.6755457817
| 38>  H        2.9141356647     1.6902351803    -3.2697876432
| 39>  H        1.5241055603     0.7864446496    -2.6878556391
| 40>  H        3.0753379752    -0.0307177638    -2.9688548579
| 41>  H        2.6305314286     3.3293234654    -1.3645529993
| 42>  H        2.6927530403     2.7647151385     0.3106308843
| 43>  H        1.2753579622     2.4260274217    -0.7069040784
| 44>  H        4.7621663914     2.0768445660    -1.6197793426
| 45> *
| 46>
| 47>                          ****END OF INPUT****
 Total Charge           Charge          ....    1
 Multiplicity           Mult            ....    1
 Number of Electrons    NEL             ....   58
FINAL SINGLE POINT ENERGY      -328.453605505260
FINAL SINGLE POINT ENERGY      -328.453609688560
FINAL SINGLE POINT ENERGY      -328.453613372807
FINAL SINGLE POINT ENERGY      -328.453614937035

CARTESIAN COORDINATES (ANGSTROEM)
---------------------------------
  C      0.476285   -0.439871   -1.984114
  C      0.567804   -0.573191   -0.484578
  N      1.878823   -0.005401    0.008617
  C     -0.541278    0.095742    0.351929
  C     -0.775634    1.552761   -0.017627
  C     -1.820325   -0.715411    0.245526
  O      0.000301    0.001869    1.673085
  H     -0.462318   -0.866164   -2.337577
  H      1.281806   -0.986387   -2.479305
  H      0.514171    0.603266   -2.306088
  H      0.601113   -1.624081   -0.187387
  H      2.058359    0.918042   -0.387204
  H      2.669129   -0.608029   -0.216596
  H      1.775396    0.088941    1.031756
  H     -1.498628    1.991580    0.673187
  H     -1.187167    1.653233   -1.022707
  H      0.134068    2.156961    0.050206
  H     -2.582726   -0.286450    0.899622
  H     -1.653329   -1.750065    0.550151
  H     -2.223753   -0.703723   -0.768086
  H     -0.627688    0.337501    2.319958

FINAL SINGLE POINT ENERGY      -328.453615809945
                    ***********************HURRAY********************
 Multiplicity           Mult            ....    1
 Number of Electrons    NEL             ....   58
 Basis Dimension        Dim             ....  301
FINAL SINGLE POINT ENERGY      -328.453616074750

VIBRATIONAL FREQUENCIES
-----------------------

   0:         0.00 cm**-1
   1:         0.00 cm**-1
   2:         0.00 cm**-1
   3:         0.00 cm**-1
   4:         0.00 cm**-1
   5:         0.00 cm**-1
   6:        95.09 cm**-1
   7:       212.90 cm**-1
   8:       221.81 cm**-1
   9:       241.58 cm**-1
  10:       255.44 cm**-1
  11:       266.44 cm**-1
  12:       277.79 cm**-1
  13:       293.17 cm**-1
  14:       352.12 cm**-1
  15:       369.84 cm**-1
  16:       414.77 cm**-1
  17:       450.76 cm**-1
  18:       504.39 cm**-1
  19:       544.51 cm**-1
  20:       715.71 cm**-1
  21:       852.41 cm**-1
  22:       900.75 cm**-1
  23:       936.52 cm**-1
  24:       954.57 cm**-1
  25:       968.60 cm**-1
  26:       989.80 cm**-1
  27:      1000.22 cm**-1
  28:      1085.18 cm**-1
  29:      1104.00 cm**-1
  30:      1128.78 cm**-1
  31:      1217.82 cm**-1
  32:      1226.38 cm**-1
  33:      1262.16 cm**-1
  34:      1344.43 cm**-1
  35:      1371.73 cm**-1
  36:      1405.45 cm**-1
  37:      1409.31 cm**-1
  38:      1419.73 cm**-1
  39:      1428.70 cm**-1
  40:      1457.57 cm**-1
  41:      1464.54 cm**-1
  42:      1475.31 cm**-1
  43:      1490.03 cm**-1
  44:      1490.39 cm**-1
  45:      1499.63 cm**-1
  46:      1506.68 cm**-1
  47:      1634.49 cm**-1
  48:      1663.66 cm**-1
  49:      3051.86 cm**-1
  50:      3062.56 cm**-1
  51:      3065.22 cm**-1
  52:      3099.70 cm**-1
  53:      3124.54 cm**-1
  54:      3138.39 cm**-1
  55:      3140.07 cm**-1
  56:      3148.78 cm**-1
  57:      3153.04 cm**-1
  58:      3162.02 cm**-1
  59:      3302.76 cm**-1
  60:      3480.13 cm**-1
  61:      3537.49 cm**-1
  62:      3855.66 cm**-1

IR SPECTRUM
-----------

 Mode    freq (cm**-1)   T**2         TX         TY         TZ
-------------------------------------------------------------------
   6:        95.09    8.137000  (  0.085692   2.670873  -0.998045)
   7:       212.90    0.861345  (  0.499001  -0.752787  -0.213670)
   8:       221.81   16.904106  ( -1.233284  -3.921851   0.046940)
   9:       241.58   10.614695  ( -0.617543  -3.108244   0.756409)
  10:       255.44    7.861206  (  2.087291  -1.573671  -1.013894)
  11:       266.44    6.604464  (  1.875438   1.587537  -0.752943)
  12:       277.79    6.224115  ( -0.618276  -2.281951   0.796585)
  13:       293.17   75.208710  ( -2.638543  -8.163086   1.269186)
  14:       352.12    8.672057  ( -2.572190  -0.242842   1.413125)
  15:       369.84   28.127900  ( -2.654738   0.848832   4.512178)
  16:       414.77   19.788876  (  4.072719   1.636165  -0.724433)
  17:       450.76    3.140338  ( -0.710701   1.585851   0.346868)
  18:       504.39    6.818423  (  0.062259   1.045958   2.391761)
  19:       544.51    5.851195  (  0.981153  -1.508584   1.616388)
  20:       715.71    2.930201  ( -1.242923   1.116636   0.372111)
  21:       852.41    2.230695  ( -0.675324  -0.454678  -1.252158)
  22:       900.75   23.424033  ( -1.468295  -0.350664  -4.598389)
  23:       936.52    0.417266  ( -0.525022  -0.376162   0.010951)
  24:       954.57    8.111538  ( -1.379849  -0.040497   2.491167)
  25:       968.60   22.010670  (  0.879547   0.787172  -4.540642)
  26:       989.80   11.861015  (  3.223574  -0.905756  -0.805725)
  27:      1000.22    0.758831  ( -0.390395   0.642285  -0.440333)
  28:      1085.18   61.837568  (  2.148213   2.148728   7.252980)
  29:      1104.00   37.134413  ( -4.578488   2.808248  -2.878472)
  30:      1128.78   53.996722  (  1.229864   0.981294  -7.177828)
  31:      1217.82   14.248598  ( -2.917670  -0.169491  -2.388948)
  32:      1226.38   18.429299  ( -0.669412   0.017453   4.240387)
  33:      1262.16   17.075197  (  4.103053   0.468854  -0.142579)
  34:      1344.43   22.223810  (  2.420613  -2.703296   3.009424)
  35:      1371.73    0.879295  ( -0.463138   0.312377  -0.753139)
  36:      1405.45    4.290973  ( -1.204932  -1.641862   0.378682)
  37:      1409.31   15.379863  ( -1.515304  -3.592550   0.421075)
  38:      1419.73   18.593312  (  1.185657   2.150281   3.544548)
  39:      1428.70   59.842974  ( -6.511057   1.350797  -3.952779)
  40:      1457.57  145.117296  (-11.778276  -2.248234  -1.155405)
  41:      1464.54   30.483579  (  5.351373   0.921398   0.998704)
  42:      1475.31   14.507197  (  3.073476   2.201011  -0.465289)
  43:      1490.03    3.777903  (  0.469378  -1.370304  -1.296092)
  44:      1490.39    8.518839  (  0.517198  -2.844026  -0.403563)
  45:      1499.63   28.495018  ( -2.911404  -1.623822  -4.169166)
  46:      1506.68    3.631337  (  0.045609   0.968099   1.640744)
  47:      1634.49   33.423960  (  0.912199   4.566709  -3.425934)
  48:      1663.66   41.333946  (  4.189756  -4.304256  -2.292002)
  49:      3051.86   10.051983  ( -2.381271  -2.084214   0.193860)
  50:      3062.56    1.777103  ( -1.063126  -0.772462   0.223985)
  51:      3065.22    1.786222  (  1.016413   0.615857  -0.611430)
  52:      3099.70    1.084964  (  0.048470  -0.688289   0.780303)
  53:      3124.54   12.497097  (  3.330078   1.131764  -0.356075)
  54:      3138.39    0.790126  (  0.123417   0.852326  -0.220078)
  55:      3140.07   10.112731  ( -1.466582   2.324273   1.599882)
  56:      3148.78    2.903813  ( -0.214901  -1.460306  -0.851550)
  57:      3153.04    8.636335  ( -0.859343   1.163225  -2.558275)
  58:      3162.02    0.626300  ( -0.744389  -0.268320   0.013749)
  59:      3302.76  134.947974  ( -3.176241   1.308768  11.097144)
  60:      3480.13   80.192839  (  6.739932   2.175133  -5.480415)
  61:      3537.49   88.631075  ( -5.626981   7.546258   0.148809)
  62:      3855.66   86.700356  ( -3.837583   2.217013   8.188905)

--------------------------
THERMOCHEMISTRY AT 298.15K
--------------------------

Temperature         ... 298.15 K
Pressure            ... 1.00 atm
Total Mass          ... 104.17 AMU

Throughout the following assumptions are being made:
  (1) The electronic state is orbitally nondegenerate
  (2) There are no thermally accessible electronically excited states
  (3) Hindered rotations indicated by low frequency modes) are not
      treated as such but are treated as vibrations and this may
      case some error
  (4) All equations used are the standard statistical mechanics
      equations for an ideal gas
  (5) All vibrations are strinctly harmonic

------------
INNER ENERGY
------------

The inner energy is: U= E(el) + E(ZPE) + E(vib) + E(rot) + E(trans)
    E(el)   - is the total energy from the electronic structure calculation
              = E(kin-el) + E(nuc-el) + E(el-el) + E(nuc-nuc)
    E(ZPE)  - the the zero temperature vibrational energy from the frequency calculation
    E(vib)  - the the finite temperature correction to E(ZPE) due to population
              of excietd vibrational states
    E(rot)  - is the rotational thermal energy
    E(trans)- is the translational thermal energy

Summary of contributions to the inner energy U:
Electronic energy                ...   -328.45361607 Eh
Zero point energy                ...      0.19644045 Eh     123.27 kcal/mol
Thermal vibrational correction   ...      0.00643970 Eh       4.04 kcal/mol
Thermal rotational correction    ...      0.00141627 Eh       0.89 kcal/mol
Thermal translational correction ...      0.00141627 Eh       0.89 kcal/mol
-----------------------------------------------------------------------
Total thermal energy                   -328.24790338 Eh

Summary of corrections to the electronic energy:
(perhaps to be used in another calculation)
Total thermal correction                  0.00927224 Eh       5.82 kcal/mol
Non-thermal (ZPE) correction              0.19644045 Eh     123.27 kcal/mol
-----------------------------------------------------------------------
Total correction                          0.20571270 Eh     129.09 kcal/mol

--------
ENTHALPY
--------

The enthalpy is H = U + kB*T
                kB is Boltzmann's constant
Total free energy                 ...   -328.24790338 Eh
Thermal Enthalpy correction       ...      0.00094421 Eh       0.59 kcal/mol
-----------------------------------------------------------------------
Total Enthalpy                    ...   -328.24695917 Eh

-------
ENTROPY
-------

The entropy contributions are T*S = T*(S(el)+S(vib)+S(rot)+S(trans)
     S(el)   - electronic entropy
     S(vib)  - vibrational entropy
     S(rot)  - rotational entropy
     S(trans)- translational entropy
The entropies will be listed as mutliplied by the temperature to get
units of energy

Electronic entropy                ...      0.00000000 Eh      0.00 kcal/mol
Vibrational entropy               ...      0.01063980 Eh      6.68 kcal/mol
Rotational entropy                ...      0.01207930 Eh      7.58 kcal/mol
Translational entropy             ...      0.01892914 Eh     11.88 kcal/mol
-----------------------------------------------------------------------
Final entropy term                ...      0.04164824 Eh     26.13 kcal/mol

CAUTION: The rotational entropy is not quite correctly treated here
         because it includes a symmetry number that is not yet correctly
         implemented in ORCA!
For a nonlinear molecule the correct rotational entropy is:
    S(rot) = R*(ln(qrot/sn)+1.5)
    R    = 8.31441 J/mol/K = 1.987191683e-3 kcal/mol/K
    qrot = 240874.4481120
    sn is the rotational symmetry number. We have assumed 3 here
       if it is different for your molecule then you should correct
       the printed rotational entropy by manually evaluating the equation
       as given above

For convenience we print out the resulting values for sn=1 - 12:
 sn= 1  qrot/sn=  240874.4481 T*S(rot)=     8.23 kcal/mol T*S(tot)=    26.79 kcal/mol
 sn= 2  qrot/sn=  120437.2241 T*S(rot)=     7.82 kcal/mol T*S(tot)=    26.37 kcal/mol
 sn= 3  qrot/sn=   80291.4827 T*S(rot)=     7.58 kcal/mol T*S(tot)=    26.13 kcal/mol
 sn= 4  qrot/sn=   60218.6120 T*S(rot)=     7.41 kcal/mol T*S(tot)=    25.96 kcal/mol
 sn= 5  qrot/sn=   48174.8896 T*S(rot)=     7.28 kcal/mol T*S(tot)=    25.83 kcal/mol
 sn= 6  qrot/sn=   40145.7414 T*S(rot)=     7.17 kcal/mol T*S(tot)=    25.72 kcal/mol
 sn= 7  qrot/sn=   34410.6354 T*S(rot)=     7.08 kcal/mol T*S(tot)=    25.63 kcal/mol
 sn= 8  qrot/sn=   30109.3060 T*S(rot)=     7.00 kcal/mol T*S(tot)=    25.55 kcal/mol
 sn= 9  qrot/sn=   26763.8276 T*S(rot)=     6.93 kcal/mol T*S(tot)=    25.48 kcal/mol
 sn=10  qrot/sn=   24087.4448 T*S(rot)=     6.87 kcal/mol T*S(tot)=    25.42 kcal/mol
 sn=11  qrot/sn=   21897.6771 T*S(rot)=     6.81 kcal/mol T*S(tot)=    25.36 kcal/mol
 sn=12  qrot/sn=   20072.8707 T*S(rot)=     6.76 kcal/mol T*S(tot)=    25.31 kcal/mol

-------------------
GIBBS FREE ENTHALPY
-------------------

The Gibbs free enthalpy is G = H - T*S

Total enthalpy                    ...   -328.24695917 Eh
Total entropy correction          ...     -0.04164824 Eh    -26.13 kcal/mol
-----------------------------------------------------------------------
Final Gibbs free enthalpy         ...   -328.28860741 Eh

For completeness - the Gibbs free enthalpy minus the electronic energy
G-E(el)                           ...      0.16500866 Eh    103.54 kcal/mol

                             ****ORCA TERMINATED NORMALLY****
TOTAL RUN TIME: 0 days 1 hours 10 minutes 39 seconds 637 msec
