                         Program Version 3.0.3 - RELEASE   -
|  1> ! NORI PBE0 def2-TZVP UseSym TightOPT Freq TightSCF Grid3 FinalGrid5 XYZFile
|  2> % pal
|  3>     nprocs 8
|  4> end
|  5> %method
|  6>     SymThresh 5.0e-2
|  7> end
|  8> % geom
|  9>     MaxIter 10
| 10> end
| 11> % maxcore 2000
| 12> % output
| 13>     printlevel mini
| 14>     print[ P_Basis ] 0
| 15>     print[ P_SCFInfo ] 1
| 16>     print[ P_SCFIterInfo ] 1
| 17>     print[ P_OrbEn ] 0
| 18>     print[ P_Cartesian ] 0
| 19> end
| 20> % elprop
| 21>     Dipole false
| 22> end
| 23> *xyz 1 1
| 24>  C        1.0433364168    -0.1347264765    -0.8799081684
| 25>  C        2.0453376420     0.0955416437     0.2352625475
| 26>  N        3.1573198579    -0.9504557813     0.1226300722
| 27>  C        2.6762719424     1.3956512758     0.2177253851
| 28>  C        3.2217595366     2.4676289594     0.1791674891
| 29>  C        3.8879102344     3.7695272097     0.1019769374
| 30>  O        4.2607883237     4.1120459074    -1.2035058235
| 31>  H        0.6126807916    -1.1375216155    -0.8306830437
| 32>  H        1.4988179905     0.0236039185    -1.8596063223
| 33>  H        0.2314584868     0.5837521491    -0.7705807221
| 34>  H        1.5851558191    -0.0962424145     1.2096713593
| 35>  H        3.6546412872    -0.8285897373    -0.7632967479
| 36>  H        2.7864962495    -1.9024927847     0.1587899386
| 37>  H        3.8380695659    -0.8307674542     0.8756978190
| 38>  H        3.2409039081     4.5200055846     0.5739782370
| 39>  H        4.8039012140     3.7261750982     0.6979349322
| 40>  H        3.4962207336     4.4507945178    -1.6777538896
| 41> *
| 42>
| 43>                          ****END OF INPUT****
 Total Charge           Charge          ....    1
 Multiplicity           Mult            ....    1
 Number of Electrons    NEL             ....   54
FINAL SINGLE POINT ENERGY      -325.951415709452
FINAL SINGLE POINT ENERGY      -325.951416920755
FINAL SINGLE POINT ENERGY      -325.951418358710
FINAL SINGLE POINT ENERGY      -325.951418715011

CARTESIAN COORDINATES (ANGSTROEM)
---------------------------------
  C     -0.548106    1.555604   -2.005028
  C     -0.097833    0.133438   -1.728420
  N      1.388143    0.011575   -2.077580
  C     -0.250533   -0.290127   -0.355052
  C     -0.347759   -0.626690    0.796136
  C     -0.454871   -1.006818    2.206282
  O      0.037846   -0.022577    3.071814
  H     -0.393716    1.827408   -3.051912
  H     -0.030500    2.267033   -1.358294
  H     -1.614444    1.629211   -1.793634
  H     -0.598318   -0.565569   -2.405593
  H      1.933099    0.629356   -1.470992
  H      1.570476    0.267268   -3.050544
  H      1.716033   -0.943306   -1.918269
  H     -1.497312   -1.278714    2.415193
  H      0.143246   -1.907761    2.369572
  H     -0.623313    0.665780    3.186818

FINAL SINGLE POINT ENERGY      -325.951419078950
                    ***********************HURRAY********************
 Multiplicity           Mult            ....    1
 Number of Electrons    NEL             ....   54
 Basis Dimension        Dim             ....  277
FINAL SINGLE POINT ENERGY      -325.951419210585

VIBRATIONAL FREQUENCIES
-----------------------

   0:         0.00 cm**-1
   1:         0.00 cm**-1
   2:         0.00 cm**-1
   3:         0.00 cm**-1
   4:         0.00 cm**-1
   5:         0.00 cm**-1
   6:        28.14 cm**-1
   7:        90.97 cm**-1
   8:       109.04 cm**-1
   9:       214.78 cm**-1
  10:       229.63 cm**-1
  11:       253.27 cm**-1
  12:       282.78 cm**-1
  13:       333.13 cm**-1
  14:       341.62 cm**-1
  15:       463.62 cm**-1
  16:       527.54 cm**-1
  17:       601.61 cm**-1
  18:       721.25 cm**-1
  19:       814.77 cm**-1
  20:       937.25 cm**-1
  21:       955.86 cm**-1
  22:       960.34 cm**-1
  23:      1056.17 cm**-1
  24:      1084.43 cm**-1
  25:      1107.03 cm**-1
  26:      1165.11 cm**-1
  27:      1216.46 cm**-1
  28:      1221.85 cm**-1
  29:      1361.72 cm**-1
  30:      1381.81 cm**-1
  31:      1382.33 cm**-1
  32:      1395.59 cm**-1
  33:      1416.30 cm**-1
  34:      1461.87 cm**-1
  35:      1474.56 cm**-1
  36:      1488.41 cm**-1
  37:      1490.71 cm**-1
  38:      1642.23 cm**-1
  39:      1654.17 cm**-1
  40:      2358.84 cm**-1
  41:      3038.25 cm**-1
  42:      3061.70 cm**-1
  43:      3080.65 cm**-1
  44:      3097.32 cm**-1
  45:      3144.65 cm**-1
  46:      3165.32 cm**-1
  47:      3411.79 cm**-1
  48:      3501.87 cm**-1
  49:      3511.79 cm**-1
  50:      3860.35 cm**-1

IR SPECTRUM
-----------

 Mode    freq (cm**-1)   T**2         TX         TY         TZ
-------------------------------------------------------------------
   7:        90.97    8.738208  ( -0.612818  -0.744080  -2.794460)
   8:       109.04   15.939833  (  0.722888  -2.691464   2.858896)
   9:       214.78    1.619893  ( -0.212572  -0.473089   1.162279)
  10:       229.63    9.234067  (  1.066851   1.139325  -2.607266)
  11:       253.27   63.735126  ( -2.819065  -2.957274   6.858756)
  12:       282.78   19.423230  (  2.421263   2.614307  -2.593475)
  13:       333.13   55.419114  ( -4.003372  -2.927796   5.551588)
  14:       341.62   14.844196  (  2.321241  -2.455556  -1.851021)
  15:       463.62    6.173951  (  1.817564   1.215354  -1.180392)
  16:       527.54   10.385976  (  2.725096  -1.342120  -1.076354)
  17:       601.61    0.461175  (  0.391466  -0.435648  -0.343716)
  18:       721.25   10.162630  ( -1.187957  -1.293330   2.660580)
  19:       814.77   10.391313  ( -2.278409   1.249937   1.907308)
  20:       937.25   12.410578  ( -0.223705  -3.218586   1.414652)
  21:       955.86    8.579327  (  2.483316   0.433117  -1.491602)
  22:       960.34   29.117068  ( -1.031933  -2.522415  -4.657210)
  23:      1056.17   14.759591  (  1.620648   0.461805   3.452510)
  24:      1084.43   25.902576  (  4.955179  -0.620303  -0.981834)
  25:      1107.03   78.316478  ( -2.308423  -5.830537  -6.244397)
  26:      1165.11   25.457322  (  0.979852   2.364726   4.348021)
  27:      1216.46   22.425547  (  1.901387   2.690374   3.401788)
  28:      1221.85   31.943667  (  0.989094   2.979707  -4.699650)
  29:      1361.72    9.061827  (  0.978248  -2.507680   1.347739)
  30:      1381.81   96.951839  (  2.584516   1.153319  -9.430905)
  31:      1382.33    4.586539  (  0.755852   1.220907   1.588903)
  32:      1395.59   34.261526  (  1.696739   2.296493   5.109670)
  33:      1416.30   21.703444  ( -3.180613   3.403987  -0.003621)
  34:      1461.87   11.595958  ( -0.982023  -2.376226   2.232742)
  35:      1474.56    5.904560  (  1.757730   0.376560   1.634976)
  36:      1488.41   18.273627  (  4.107340   1.151889  -0.276653)
  37:      1490.71  139.715552  ( 11.191022  -0.577962  -3.760657)
  38:      1642.23   48.585318  (  0.957067   6.442624   2.482325)
  39:      1654.17   38.920623  (  0.941209  -1.406476   6.004713)
  40:      2358.84   69.542119  (  2.039097   2.394216  -7.723466)
  41:      3038.25   10.112686  (  1.761506   2.185607   1.494290)
  42:      3061.70    5.113086  ( -1.570699  -0.675803   1.479622)
  43:      3080.65    0.644214  (  0.352509   0.128154  -0.709597)
  44:      3097.32    1.427337  ( -0.371705   0.631019   0.943921)
  45:      3144.65    4.580169  (  0.338889  -0.129824   2.109139)
  46:      3165.32    1.233101  (  0.556252  -0.866780   0.415185)
  47:      3411.79   41.422653  ( -6.074394   0.420360   2.085110)
  48:      3501.87   89.562849  (  1.725448   6.811931   6.339028)
  49:      3511.79   79.627378  ( -1.562258   6.735234  -5.641219)
  50:      3860.35   66.966690  (  3.700924  -5.899369  -4.297359)

--------------------------
THERMOCHEMISTRY AT 298.15K
--------------------------

Temperature         ... 298.15 K
Pressure            ... 1.00 atm
Total Mass          ... 100.14 AMU

Throughout the following assumptions are being made:
  (1) The electronic state is orbitally nondegenerate
  (2) There are no thermally accessible electronically excited states
  (3) Hindered rotations indicated by low frequency modes) are not
      treated as such but are treated as vibrations and this may
      case some error
  (4) All equations used are the standard statistical mechanics
      equations for an ideal gas
  (5) All vibrations are strinctly harmonic

------------
INNER ENERGY
------------

The inner energy is: U= E(el) + E(ZPE) + E(vib) + E(rot) + E(trans)
    E(el)   - is the total energy from the electronic structure calculation
              = E(kin-el) + E(nuc-el) + E(el-el) + E(nuc-nuc)
    E(ZPE)  - the the zero temperature vibrational energy from the frequency calculation
    E(vib)  - the the finite temperature correction to E(ZPE) due to population
              of excietd vibrational states
    E(rot)  - is the rotational thermal energy
    E(trans)- is the translational thermal energy

Summary of contributions to the inner energy U:
Electronic energy                ...   -325.95141921 Eh
Zero point energy                ...      0.15052018 Eh      94.45 kcal/mol
Thermal vibrational correction   ...      0.00532345 Eh       3.34 kcal/mol
Thermal rotational correction    ...      0.00141627 Eh       0.89 kcal/mol
Thermal translational correction ...      0.00141627 Eh       0.89 kcal/mol
-----------------------------------------------------------------------
Total thermal energy                   -325.79274304 Eh

Summary of corrections to the electronic energy:
(perhaps to be used in another calculation)
Total thermal correction                  0.00815599 Eh       5.12 kcal/mol
Non-thermal (ZPE) correction              0.15052018 Eh      94.45 kcal/mol
-----------------------------------------------------------------------
Total correction                          0.15867617 Eh      99.57 kcal/mol

--------
ENTHALPY
--------

The enthalpy is H = U + kB*T
                kB is Boltzmann's constant
Total free energy                 ...   -325.79274304 Eh
Thermal Enthalpy correction       ...      0.00094421 Eh       0.59 kcal/mol
-----------------------------------------------------------------------
Total Enthalpy                    ...   -325.79179883 Eh

-------
ENTROPY
-------

The entropy contributions are T*S = T*(S(el)+S(vib)+S(rot)+S(trans)
     S(el)   - electronic entropy
     S(vib)  - vibrational entropy
     S(rot)  - rotational entropy
     S(trans)- translational entropy
The entropies will be listed as mutliplied by the temperature to get
units of energy

Electronic entropy                ...      0.00000000 Eh      0.00 kcal/mol
Vibrational entropy               ...      0.00930473 Eh      5.84 kcal/mol
Rotational entropy                ...      0.01244859 Eh      7.81 kcal/mol
Translational entropy             ...      0.01887324 Eh     11.84 kcal/mol
-----------------------------------------------------------------------
Final entropy term                ...      0.04062656 Eh     25.49 kcal/mol

CAUTION: The rotational entropy is not quite correctly treated here
         because it includes a symmetry number that is not yet correctly
         implemented in ORCA!
For a nonlinear molecule the correct rotational entropy is:
    S(rot) = R*(ln(qrot/sn)+1.5)
    R    = 8.31441 J/mol/K = 1.987191683e-3 kcal/mol/K
    qrot = 356165.9940029
    sn is the rotational symmetry number. We have assumed 3 here
       if it is different for your molecule then you should correct
       the printed rotational entropy by manually evaluating the equation
       as given above

For convenience we print out the resulting values for sn=1 - 12:
 sn= 1  qrot/sn=  356165.9940 T*S(rot)=     8.46 kcal/mol T*S(tot)=    26.14 kcal/mol
 sn= 2  qrot/sn=  178082.9970 T*S(rot)=     8.05 kcal/mol T*S(tot)=    25.73 kcal/mol
 sn= 3  qrot/sn=  118721.9980 T*S(rot)=     7.81 kcal/mol T*S(tot)=    25.49 kcal/mol
 sn= 4  qrot/sn=   89041.4985 T*S(rot)=     7.64 kcal/mol T*S(tot)=    25.32 kcal/mol
 sn= 5  qrot/sn=   71233.1988 T*S(rot)=     7.51 kcal/mol T*S(tot)=    25.19 kcal/mol
 sn= 6  qrot/sn=   59360.9990 T*S(rot)=     7.40 kcal/mol T*S(tot)=    25.08 kcal/mol
 sn= 7  qrot/sn=   50880.8563 T*S(rot)=     7.31 kcal/mol T*S(tot)=    24.99 kcal/mol
 sn= 8  qrot/sn=   44520.7493 T*S(rot)=     7.23 kcal/mol T*S(tot)=    24.91 kcal/mol
 sn= 9  qrot/sn=   39573.9993 T*S(rot)=     7.16 kcal/mol T*S(tot)=    24.84 kcal/mol
 sn=10  qrot/sn=   35616.5994 T*S(rot)=     7.10 kcal/mol T*S(tot)=    24.78 kcal/mol
 sn=11  qrot/sn=   32378.7267 T*S(rot)=     7.04 kcal/mol T*S(tot)=    24.72 kcal/mol
 sn=12  qrot/sn=   29680.4995 T*S(rot)=     6.99 kcal/mol T*S(tot)=    24.67 kcal/mol

-------------------
GIBBS FREE ENTHALPY
-------------------

The Gibbs free enthalpy is G = H - T*S

Total enthalpy                    ...   -325.79179883 Eh
Total entropy correction          ...     -0.04062656 Eh    -25.49 kcal/mol
-----------------------------------------------------------------------
Final Gibbs free enthalpy         ...   -325.83242539 Eh

For completeness - the Gibbs free enthalpy minus the electronic energy
G-E(el)                           ...      0.11899382 Eh     74.67 kcal/mol

                             ****ORCA TERMINATED NORMALLY****
TOTAL RUN TIME: 0 days 0 hours 42 minutes 27 seconds 190 msec
