                         Program Version 3.0.3 - RELEASE   -
|  1> ! NORI PBE0 def2-TZVP UseSym TightOPT Freq TightSCF Grid3 FinalGrid5 XYZFile
|  2> % pal
|  3>     nprocs 8
|  4> end
|  5> %method
|  6>     SymThresh 5.0e-2
|  7> end
|  8> % geom
|  9>     MaxIter 10
| 10> end
| 11> % maxcore 2000
| 12> % output
| 13>     printlevel mini
| 14>     print[ P_Basis ] 0
| 15>     print[ P_SCFInfo ] 1
| 16>     print[ P_SCFIterInfo ] 1
| 17>     print[ P_OrbEn ] 0
| 18>     print[ P_Cartesian ] 0
| 19> end
| 20> % elprop
| 21>     Dipole false
| 22> end
| 23> *xyz 1 1
| 24>  C        1.0701323062    -0.1379662110    -0.0498455691
| 25>  C        2.5804418537    -0.1480909314    -0.1011407439
| 26>  N        3.0387307608    -0.1214118105    -1.5421569170
| 27>  C        3.2273048526     1.0277816408     0.6155675794
| 28>  C        4.7470163145     0.9719111693     0.7448757333
| 29>  C        5.2596326433    -0.1146225268     1.6642464683
| 30>  O        5.2605996770     0.8133008513    -0.5896064360
| 31>  H        0.6374849572    -0.9635350810    -0.6200789472
| 32>  H        0.6638576359     0.8033611537    -0.4309303112
| 33>  H        0.7383634297    -0.2460957520     0.9830882728
| 34>  H        2.9646812866    -1.0914754693     0.2937678490
| 35>  H        2.5814450896     0.6363028155    -2.0508943456
| 36>  H        2.8343467297    -0.9946229132    -2.0264484585
| 37>  H        4.0670463242     0.0742176012    -1.5225634796
| 38>  H        2.7984324408     1.0841181211     1.6181057310
| 39>  H        2.9392854921     1.9565252311     0.1096069334
| 40>  H        5.0740905973     1.9458268093     1.1244289762
| 41>  H        4.9704370666    -1.1133982570     1.3289379016
| 42>  H        4.8819228110     0.0329468280     2.6780175288
| 43>  H        6.3505232063    -0.0860092574     1.7193497655
| 44>  H        6.2224545250     0.7984859883    -0.5784075311
| 45> *
| 46>
| 47>                          ****END OF INPUT****
 Total Charge           Charge          ....    1
 Multiplicity           Mult            ....    1
 Number of Electrons    NEL             ....   58
FINAL SINGLE POINT ENERGY      -328.458802556673
FINAL SINGLE POINT ENERGY      -328.458803893906
FINAL SINGLE POINT ENERGY      -328.458803768481

CARTESIAN COORDINATES (ANGSTROEM)
---------------------------------
  C      0.961789    0.438994   -2.372652
  C      0.568035   -0.065967   -1.003550
  N      1.760856    0.004019   -0.075720
  C     -0.566711    0.718892   -0.361362
  C     -1.121093    0.139646    0.937561
  C     -1.863758   -1.168294    0.773615
  O      0.000211   -0.004660    1.827636
  H      1.814070   -0.110349   -2.779663
  H      1.209102    1.504138   -2.348445
  H      0.129259    0.308854   -3.064608
  H      0.315996   -1.127924   -1.051124
  H      2.185221    0.932008   -0.105257
  H      2.477729   -0.677895   -0.319390
  H      1.393378   -0.156047    0.891363
  H     -1.381755    0.780767   -1.085548
  H     -0.234899    1.749291   -0.188181
  H     -1.800699    0.887209    1.360438
  H     -1.228910   -1.957538    0.364484
  H     -2.724840   -1.038993    0.114757
  H     -2.244278   -1.515348    1.737054
  H     -0.290010   -0.344703    2.679272

FINAL SINGLE POINT ENERGY      -328.458805094477
                    ***********************HURRAY********************
 Multiplicity           Mult            ....    1
 Number of Electrons    NEL             ....   58
 Basis Dimension        Dim             ....  301
FINAL SINGLE POINT ENERGY      -328.458805154031

VIBRATIONAL FREQUENCIES
-----------------------

   0:         0.00 cm**-1
   1:         0.00 cm**-1
   2:         0.00 cm**-1
   3:         0.00 cm**-1
   4:         0.00 cm**-1
   5:         0.00 cm**-1
   6:        65.35 cm**-1
   7:       148.83 cm**-1
   8:       230.50 cm**-1
   9:       241.55 cm**-1
  10:       276.31 cm**-1
  11:       317.96 cm**-1
  12:       318.92 cm**-1
  13:       336.32 cm**-1
  14:       364.60 cm**-1
  15:       398.46 cm**-1
  16:       442.40 cm**-1
  17:       452.04 cm**-1
  18:       619.30 cm**-1
  19:       804.13 cm**-1
  20:       828.63 cm**-1
  21:       879.27 cm**-1
  22:       922.37 cm**-1
  23:       968.46 cm**-1
  24:       977.77 cm**-1
  25:      1012.55 cm**-1
  26:      1034.75 cm**-1
  27:      1054.54 cm**-1
  28:      1119.03 cm**-1
  29:      1154.29 cm**-1
  30:      1193.96 cm**-1
  31:      1223.57 cm**-1
  32:      1228.87 cm**-1
  33:      1307.51 cm**-1
  34:      1332.55 cm**-1
  35:      1378.18 cm**-1
  36:      1397.86 cm**-1
  37:      1406.70 cm**-1
  38:      1413.74 cm**-1
  39:      1421.67 cm**-1
  40:      1426.51 cm**-1
  41:      1464.66 cm**-1
  42:      1484.07 cm**-1
  43:      1484.87 cm**-1
  44:      1488.44 cm**-1
  45:      1493.90 cm**-1
  46:      1506.34 cm**-1
  47:      1639.31 cm**-1
  48:      1670.22 cm**-1
  49:      3038.54 cm**-1
  50:      3049.12 cm**-1
  51:      3054.22 cm**-1
  52:      3057.21 cm**-1
  53:      3062.68 cm**-1
  54:      3099.68 cm**-1
  55:      3123.90 cm**-1
  56:      3131.28 cm**-1
  57:      3133.06 cm**-1
  58:      3141.75 cm**-1
  59:      3154.09 cm**-1
  60:      3470.08 cm**-1
  61:      3536.34 cm**-1
  62:      3855.39 cm**-1

IR SPECTRUM
-----------

 Mode    freq (cm**-1)   T**2         TX         TY         TZ
-------------------------------------------------------------------
   6:        65.35    8.202426  (  1.015450   2.670107   0.204492)
   7:       148.83    0.939894  (  0.138639  -0.746823  -0.602436)
   8:       230.50    3.890121  (  1.486909   0.120755  -1.290210)
   9:       241.55    0.397480  (  0.125472  -0.540891   0.298621)
  10:       276.31   22.892040  (  3.921761   2.629491  -0.773049)
  11:       317.96   87.187875  (  0.788528  -7.356793  -5.695937)
  12:       318.92   11.706594  ( -0.572435   3.366577   0.212296)
  13:       336.32   23.024733  (  2.319857   3.887922  -1.589673)
  14:       364.60    6.702795  (  0.910353  -2.391336   0.394416)
  15:       398.46   37.427448  ( -2.755882   3.215812   4.414874)
  16:       442.40   13.692252  (  2.873166   0.194328  -2.323662)
  17:       452.04   13.410737  (  0.848623   3.042209  -1.853520)
  18:       619.30   11.338601  (  0.949127   0.081618   3.229721)
  19:       804.13    6.032181  ( -1.608149   1.018445  -1.552033)
  20:       828.63    3.435619  (  0.896572   0.814540  -1.402962)
  21:       879.27   11.759412  ( -0.636410  -0.221451  -3.362343)
  22:       922.37    6.299490  ( -1.888952  -0.387116  -1.606702)
  23:       968.46   15.377491  ( -1.139608   0.667797  -3.692266)
  24:       977.77    3.151562  (  1.557565   0.810055  -0.263368)
  25:      1012.55   29.301751  (  3.183757   0.361780  -4.362861)
  26:      1034.75    9.627535  (  1.768592  -0.815451   2.415504)
  27:      1054.54    7.987808  ( -2.705247   0.817691  -0.028793)
  28:      1119.03    2.158130  ( -0.637306   1.240164  -0.462563)
  29:      1154.29   60.719006  (  6.309703  -1.186801   4.415672)
  30:      1193.96   14.902111  ( -0.869119  -1.714359  -3.347793)
  31:      1223.57   43.950222  ( -4.328650  -1.394084  -4.823852)
  32:      1228.87   35.694630  (  2.412896   0.742327  -5.414934)
  33:      1307.51   12.283223  (  3.446651  -0.463001  -0.435256)
  34:      1332.55   10.672441  ( -2.961543  -0.407722  -1.317370)
  35:      1378.18   14.670301  ( -3.407512   0.244602  -1.731858)
  36:      1397.86   10.671150  ( -1.382332   1.866467  -2.297087)
  37:      1406.70    8.004813  ( -0.616443  -0.286159   2.746438)
  38:      1413.74   12.835301  ( -2.628443  -1.155677   2.142662)
  39:      1421.67   27.959125  (  3.633270   0.799463   3.757570)
  40:      1426.51   14.794337  (  0.598747   3.632736  -1.113133)
  41:      1464.66    8.126148  ( -0.653634   2.371370  -1.440664)
  42:      1484.07   27.605936  ( -5.134962  -1.086631  -0.239448)
  43:      1484.87    8.998609  (  1.922156  -1.337505  -1.874835)
  44:      1488.44    0.448018  (  0.129035  -0.091477  -0.650385)
  45:      1493.90   23.323071  (  2.990599  -3.791411  -0.067798)
  46:      1506.34  182.835136  (-13.287250  -1.244685  -2.175980)
  47:      1639.31   19.273509  (  0.099823   4.362725   0.479768)
  48:      1670.22   36.324836  ( -3.713304   3.621856   3.068936)
  49:      3038.54  553.171992  ( 13.688579   2.168581 -19.002422)
  50:      3049.12    2.712740  ( -0.917691  -0.985496  -0.948357)
  51:      3054.22    4.860959  ( -1.965338  -0.892144   0.449981)
  52:      3057.21    6.141748  (  1.593458  -1.408128  -1.272720)
  53:      3062.68   16.371877  (  0.201625   3.422134  -2.149470)
  54:      3099.68    4.467353  ( -1.164779  -1.285392   1.207646)
  55:      3123.90    1.450735  ( -0.937829  -0.665109   0.358946)
  56:      3131.28    4.632602  (  0.941417   1.296865  -1.436829)
  57:      3133.06   20.808904  (  2.187871  -2.450506  -3.164988)
  58:      3141.75    8.811052  (  2.179796  -1.916687   0.621170)
  59:      3154.09    2.892413  ( -1.472467  -0.547205   0.651783)
  60:      3470.08   70.149943  (  7.674331   2.316453  -2.426651)
  61:      3536.34   70.190801  ( -3.057422   7.679714   1.365635)
  62:      3855.39   91.588611  ( -0.791296  -2.553349   9.189280)

--------------------------
THERMOCHEMISTRY AT 298.15K
--------------------------

Temperature         ... 298.15 K
Pressure            ... 1.00 atm
Total Mass          ... 104.17 AMU

Throughout the following assumptions are being made:
  (1) The electronic state is orbitally nondegenerate
  (2) There are no thermally accessible electronically excited states
  (3) Hindered rotations indicated by low frequency modes) are not
      treated as such but are treated as vibrations and this may
      case some error
  (4) All equations used are the standard statistical mechanics
      equations for an ideal gas
  (5) All vibrations are strinctly harmonic

------------
INNER ENERGY
------------

The inner energy is: U= E(el) + E(ZPE) + E(vib) + E(rot) + E(trans)
    E(el)   - is the total energy from the electronic structure calculation
              = E(kin-el) + E(nuc-el) + E(el-el) + E(nuc-nuc)
    E(ZPE)  - the the zero temperature vibrational energy from the frequency calculation
    E(vib)  - the the finite temperature correction to E(ZPE) due to population
              of excietd vibrational states
    E(rot)  - is the rotational thermal energy
    E(trans)- is the translational thermal energy

Summary of contributions to the inner energy U:
Electronic energy                ...   -328.45880515 Eh
Zero point energy                ...      0.19783290 Eh     124.14 kcal/mol
Thermal vibrational correction   ...      0.00604812 Eh       3.80 kcal/mol
Thermal rotational correction    ...      0.00141627 Eh       0.89 kcal/mol
Thermal translational correction ...      0.00141627 Eh       0.89 kcal/mol
-----------------------------------------------------------------------
Total thermal energy                   -328.25209159 Eh

Summary of corrections to the electronic energy:
(perhaps to be used in another calculation)
Total thermal correction                  0.00888066 Eh       5.57 kcal/mol
Non-thermal (ZPE) correction              0.19783290 Eh     124.14 kcal/mol
-----------------------------------------------------------------------
Total correction                          0.20671356 Eh     129.71 kcal/mol

--------
ENTHALPY
--------

The enthalpy is H = U + kB*T
                kB is Boltzmann's constant
Total free energy                 ...   -328.25209159 Eh
Thermal Enthalpy correction       ...      0.00094421 Eh       0.59 kcal/mol
-----------------------------------------------------------------------
Total Enthalpy                    ...   -328.25114738 Eh

-------
ENTROPY
-------

The entropy contributions are T*S = T*(S(el)+S(vib)+S(rot)+S(trans)
     S(el)   - electronic entropy
     S(vib)  - vibrational entropy
     S(rot)  - rotational entropy
     S(trans)- translational entropy
The entropies will be listed as mutliplied by the temperature to get
units of energy

Electronic entropy                ...      0.00000000 Eh      0.00 kcal/mol
Vibrational entropy               ...      0.01033450 Eh      6.48 kcal/mol
Rotational entropy                ...      0.01221819 Eh      7.67 kcal/mol
Translational entropy             ...      0.01892914 Eh     11.88 kcal/mol
-----------------------------------------------------------------------
Final entropy term                ...      0.04148183 Eh     26.03 kcal/mol

CAUTION: The rotational entropy is not quite correctly treated here
         because it includes a symmetry number that is not yet correctly
         implemented in ORCA!
For a nonlinear molecule the correct rotational entropy is:
    S(rot) = R*(ln(qrot/sn)+1.5)
    R    = 8.31441 J/mol/K = 1.987191683e-3 kcal/mol/K
    qrot = 279044.2040418
    sn is the rotational symmetry number. We have assumed 3 here
       if it is different for your molecule then you should correct
       the printed rotational entropy by manually evaluating the equation
       as given above

For convenience we print out the resulting values for sn=1 - 12:
 sn= 1  qrot/sn=  279044.2040 T*S(rot)=     8.32 kcal/mol T*S(tot)=    26.68 kcal/mol
 sn= 2  qrot/sn=  139522.1020 T*S(rot)=     7.91 kcal/mol T*S(tot)=    26.27 kcal/mol
 sn= 3  qrot/sn=   93014.7347 T*S(rot)=     7.67 kcal/mol T*S(tot)=    26.03 kcal/mol
 sn= 4  qrot/sn=   69761.0510 T*S(rot)=     7.50 kcal/mol T*S(tot)=    25.86 kcal/mol
 sn= 5  qrot/sn=   55808.8408 T*S(rot)=     7.36 kcal/mol T*S(tot)=    25.73 kcal/mol
 sn= 6  qrot/sn=   46507.3673 T*S(rot)=     7.26 kcal/mol T*S(tot)=    25.62 kcal/mol
 sn= 7  qrot/sn=   39863.4577 T*S(rot)=     7.17 kcal/mol T*S(tot)=    25.53 kcal/mol
 sn= 8  qrot/sn=   34880.5255 T*S(rot)=     7.09 kcal/mol T*S(tot)=    25.45 kcal/mol
 sn= 9  qrot/sn=   31004.9116 T*S(rot)=     7.02 kcal/mol T*S(tot)=    25.38 kcal/mol
 sn=10  qrot/sn=   27904.4204 T*S(rot)=     6.95 kcal/mol T*S(tot)=    25.32 kcal/mol
 sn=11  qrot/sn=   25367.6549 T*S(rot)=     6.90 kcal/mol T*S(tot)=    25.26 kcal/mol
 sn=12  qrot/sn=   23253.6837 T*S(rot)=     6.85 kcal/mol T*S(tot)=    25.21 kcal/mol

-------------------
GIBBS FREE ENTHALPY
-------------------

The Gibbs free enthalpy is G = H - T*S

Total enthalpy                    ...   -328.25114738 Eh
Total entropy correction          ...     -0.04148183 Eh    -26.03 kcal/mol
-----------------------------------------------------------------------
Final Gibbs free enthalpy         ...   -328.29262921 Eh

For completeness - the Gibbs free enthalpy minus the electronic energy
G-E(el)                           ...      0.16617594 Eh    104.28 kcal/mol

                             ****ORCA TERMINATED NORMALLY****
TOTAL RUN TIME: 0 days 1 hours 2 minutes 32 seconds 676 msec
