                         Program Version 3.0.3 - RELEASE   -
|  1> ! NORI PBE0 def2-TZVP UseSym TightOPT Freq TightSCF Grid3 FinalGrid5 XYZFile
|  2> % pal
|  3>     nprocs 8
|  4> end
|  5> %method
|  6>     SymThresh 5.0e-2
|  7> end
|  8> % geom
|  9>     MaxIter 10
| 10> end
| 11> % maxcore 2000
| 12> % output
| 13>     printlevel mini
| 14>     print[ P_Basis ] 0
| 15>     print[ P_SCFInfo ] 1
| 16>     print[ P_SCFIterInfo ] 1
| 17>     print[ P_OrbEn ] 0
| 18>     print[ P_Cartesian ] 0
| 19> end
| 20> % elprop
| 21>     Dipole false
| 22> end
| 23> *xyz 1 1
| 24>  C        0.6708969607    -0.4023751115    -0.1112538735
| 25>  C        1.8159583504    -0.7960430477     0.7906866544
| 26>  N        2.7984030155     0.3183364146     1.0079203912
| 27>  C        2.2428187175     1.4141883438     1.8383529184
| 28>  C        4.1063559365    -0.1714896002     1.5474942885
| 29>  C        4.9197507186    -0.7951637326     0.4326208819
| 30>  O        4.8300262115     0.1145818449    -0.6413787611
| 31>  H        0.0564826024    -1.2847603554    -0.2955109886
| 32>  H        1.0274137986    -0.0465150183    -1.0805836916
| 33>  H        0.0213079179     0.3545381376     0.3287474167
| 34>  H        2.3782316703    -1.6216524292     0.3547239627
| 35>  H        1.4755271277    -1.1030543082     1.7816266675
| 36>  H        3.0426481011     0.6944929104     0.0821106684
| 37>  H        2.0593513665     1.0338160790     2.8423603106
| 38>  H        1.3137308516     1.7684173703     1.4000059145
| 39>  H        2.9633367103     2.2291435882     1.8756760497
| 40>  H        4.6294336869     0.7018010165     1.9382860481
| 41>  H        3.9115865041    -0.8668244613     2.3641950577
| 42>  H        5.9468838590    -0.9195368381     0.7904515584
| 43>  H        4.5403622947    -1.7850443967     0.1539340099
| 44>  H        5.3627235981    -0.1786464061    -1.3857054841
| 45> *
| 46>
| 47>                          ****END OF INPUT****
 Total Charge           Charge          ....    1
 Multiplicity           Mult            ....    1
 Number of Electrons    NEL             ....   58
FINAL SINGLE POINT ENERGY      -328.436402537395
FINAL SINGLE POINT ENERGY      -328.436405462560
FINAL SINGLE POINT ENERGY      -328.436408055886

CARTESIAN COORDINATES (ANGSTROEM)
---------------------------------
  C     -0.818582   -1.908341   -1.497324
  C     -0.835919   -0.440079   -1.145312
  N      0.393711   -0.000742   -0.404824
  C      1.604368    0.000975   -1.261274
  C      0.203235    1.315639    0.283774
  C     -0.584263    1.115046    1.561167
  O      0.018484    0.008703    2.194939
  H     -1.777933   -2.167682   -1.947199
  H     -0.696870   -2.533633   -0.609283
  H     -0.045053   -2.164728   -2.221285
  H     -1.682958   -0.213521   -0.498026
  H     -0.905388    0.196270   -2.029792
  H      0.538200   -0.662496    0.369364
  H      1.486310    0.760025   -2.033691
  H      1.729008   -0.977648   -1.717663
  H      2.472318    0.229241   -0.645625
  H      1.198666    1.690795    0.522090
  H     -0.284275    2.005689   -0.405251
  H     -0.505370    2.030995    2.155621
  H     -1.647127    0.934397    1.362740
  H     -0.382716   -0.157638    3.052408

FINAL SINGLE POINT ENERGY      -328.436408408508
                    ***********************HURRAY********************
 Multiplicity           Mult            ....    1
 Number of Electrons    NEL             ....   58
 Basis Dimension        Dim             ....  301
FINAL SINGLE POINT ENERGY      -328.436408513769

VIBRATIONAL FREQUENCIES
-----------------------

   0:         0.00 cm**-1
   1:         0.00 cm**-1
   2:         0.00 cm**-1
   3:         0.00 cm**-1
   4:         0.00 cm**-1
   5:         0.00 cm**-1
   6:        61.92 cm**-1
   7:        68.58 cm**-1
   8:       155.55 cm**-1
   9:       213.15 cm**-1
  10:       222.90 cm**-1
  11:       262.54 cm**-1
  12:       287.43 cm**-1
  13:       309.09 cm**-1
  14:       380.74 cm**-1
  15:       429.99 cm**-1
  16:       461.53 cm**-1
  17:       563.12 cm**-1
  18:       772.46 cm**-1
  19:       807.30 cm**-1
  20:       893.68 cm**-1
  21:       916.39 cm**-1
  22:       993.38 cm**-1
  23:      1017.74 cm**-1
  24:      1052.17 cm**-1
  25:      1080.77 cm**-1
  26:      1090.48 cm**-1
  27:      1111.71 cm**-1
  28:      1145.73 cm**-1
  29:      1185.18 cm**-1
  30:      1222.87 cm**-1
  31:      1237.11 cm**-1
  32:      1267.39 cm**-1
  33:      1305.30 cm**-1
  34:      1339.17 cm**-1
  35:      1381.65 cm**-1
  36:      1395.79 cm**-1
  37:      1424.66 cm**-1
  38:      1430.42 cm**-1
  39:      1449.07 cm**-1
  40:      1451.62 cm**-1
  41:      1464.99 cm**-1
  42:      1477.18 cm**-1
  43:      1486.50 cm**-1
  44:      1487.57 cm**-1
  45:      1499.05 cm**-1
  46:      1502.74 cm**-1
  47:      1507.19 cm**-1
  48:      1523.59 cm**-1
  49:      3039.44 cm**-1
  50:      3066.12 cm**-1
  51:      3086.13 cm**-1
  52:      3091.56 cm**-1
  53:      3094.37 cm**-1
  54:      3106.20 cm**-1
  55:      3138.51 cm**-1
  56:      3150.25 cm**-1
  57:      3162.96 cm**-1
  58:      3166.16 cm**-1
  59:      3185.42 cm**-1
  60:      3200.76 cm**-1
  61:      3356.86 cm**-1
  62:      3869.60 cm**-1

IR SPECTRUM
-----------

 Mode    freq (cm**-1)   T**2         TX         TY         TZ
-------------------------------------------------------------------
   6:        61.92    1.243410  ( -0.806462  -0.765602   0.082955)
   7:        68.58    2.073084  ( -1.212752  -0.741085  -0.230456)
   8:       155.55   11.209427  ( -0.135441  -0.849279  -3.235708)
   9:       213.15    2.663974  (  0.949141   1.020305   0.849755)
  10:       222.90    3.266652  (  1.305012   1.095829   0.602292)
  11:       262.54    6.857666  (  1.182086   0.519687   2.278215)
  12:       287.43   89.356550  ( -6.888694  -5.342437  -3.655244)
  13:       309.09   32.994886  ( -3.439529  -3.050244  -3.443913)
  14:       380.74    1.283662  ( -0.112586  -0.146066   1.117878)
  15:       429.99    7.155604  (  0.381355   0.616671  -2.574857)
  16:       461.53    1.272824  ( -0.393228  -0.696627  -0.795554)
  17:       563.12   11.273923  ( -1.301016   2.633567  -1.626531)
  18:       772.46    1.258522  ( -0.687238   0.619462   0.634422)
  19:       807.30    5.581523  (  1.565224   0.906530  -1.519803)
  20:       893.68    4.559476  ( -1.267477   1.382002  -1.021297)
  21:       916.39   15.642062  ( -0.456316  -3.617804  -1.531448)
  22:       993.38    8.404821  ( -0.035393  -2.759378   0.888483)
  23:      1017.74   27.984071  (  0.904649   3.759240   3.610235)
  24:      1052.17   20.311074  (  4.460345   0.338659   0.549278)
  25:      1080.77    0.528688  (  0.349636  -0.336548   0.541459)
  26:      1090.48    0.587933  (  0.454317   0.153787   0.598230)
  27:      1111.71   78.873457  ( -3.239872   5.935683  -5.757113)
  28:      1145.73    4.086804  ( -0.836158  -0.598221  -1.740625)
  29:      1185.18    4.198610  (  0.998608   0.195080  -1.778577)
  30:      1222.87    0.359163  (  0.341206   0.136954  -0.473271)
  31:      1237.11   16.690871  (  2.400549  -2.761902   1.816627)
  32:      1267.39    2.565121  ( -1.595297   0.132428   0.051081)
  33:      1305.30   36.204381  ( -3.747995   4.683405  -0.471846)
  34:      1339.17    6.879598  ( -1.138774   2.185573   0.897810)
  35:      1381.65    7.113450  (  0.485933  -0.470846  -2.579849)
  36:      1395.79    1.196299  ( -0.449737  -0.284596  -0.955532)
  37:      1424.66   30.062238  (  0.908532   4.554503   2.914328)
  38:      1430.42   37.417498  (  0.688149  -2.293698  -5.628756)
  39:      1449.07    6.028948  (  1.495407   1.568284  -1.154639)
  40:      1451.62   11.138046  ( -1.929962   1.753125   2.083230)
  41:      1464.99    4.929432  (  1.743746   0.856390  -1.074885)
  42:      1477.18   14.629081  (  1.895541   0.816387  -3.220174)
  43:      1486.50    8.416404  (  0.959628   2.298969  -1.486693)
  44:      1487.57    2.593154  ( -0.364893  -0.416073   1.512247)
  45:      1499.05   30.675680  ( -0.871335  -4.958510  -2.308601)
  46:      1502.74   15.415763  (  0.271184  -1.201905   3.727955)
  47:      1507.19   35.958836  (  5.706150  -1.451283   1.136868)
  48:      1523.59   13.148751  ( -2.239049   1.683596   2.302372)
  49:      3039.44   21.863886  ( -4.164023   1.616455  -1.382704)
  50:      3066.12    2.039279  ( -1.088004   0.801351  -0.461913)
  51:      3086.13    7.979924  ( -1.110963  -2.356704  -1.091618)
  52:      3091.56    0.935070  ( -0.472651   0.443287   0.717752)
  53:      3094.37    4.120606  (  1.241453  -1.521270   0.514918)
  54:      3106.20    3.203814  ( -1.080491  -1.407757   0.233611)
  55:      3138.51    0.989420  (  0.047094  -0.187930   0.975646)
  56:      3150.25    1.191171  (  0.248384  -0.779444   0.722457)
  57:      3162.96    5.879745  (  1.360137   0.058202  -2.006586)
  58:      3166.16    1.360854  (  1.162344   0.092564   0.035245)
  59:      3185.42    0.370758  (  0.286292  -0.170502   0.509631)
  60:      3200.76    0.585986  (  0.525569  -0.419807  -0.365410)
  61:      3356.86  111.452310  (  0.147818  -3.700073   9.886350)
  62:      3869.60  127.247654  (  2.690594   3.299155 -10.446240)

--------------------------
THERMOCHEMISTRY AT 298.15K
--------------------------

Temperature         ... 298.15 K
Pressure            ... 1.00 atm
Total Mass          ... 104.17 AMU

Throughout the following assumptions are being made:
  (1) The electronic state is orbitally nondegenerate
  (2) There are no thermally accessible electronically excited states
  (3) Hindered rotations indicated by low frequency modes) are not
      treated as such but are treated as vibrations and this may
      case some error
  (4) All equations used are the standard statistical mechanics
      equations for an ideal gas
  (5) All vibrations are strinctly harmonic

------------
INNER ENERGY
------------

The inner energy is: U= E(el) + E(ZPE) + E(vib) + E(rot) + E(trans)
    E(el)   - is the total energy from the electronic structure calculation
              = E(kin-el) + E(nuc-el) + E(el-el) + E(nuc-nuc)
    E(ZPE)  - the the zero temperature vibrational energy from the frequency calculation
    E(vib)  - the the finite temperature correction to E(ZPE) due to population
              of excietd vibrational states
    E(rot)  - is the rotational thermal energy
    E(trans)- is the translational thermal energy

Summary of contributions to the inner energy U:
Electronic energy                ...   -328.43640851 Eh
Zero point energy                ...      0.19831834 Eh     124.45 kcal/mol
Thermal vibrational correction   ...      0.00629747 Eh       3.95 kcal/mol
Thermal rotational correction    ...      0.00141627 Eh       0.89 kcal/mol
Thermal translational correction ...      0.00141627 Eh       0.89 kcal/mol
-----------------------------------------------------------------------
Total thermal energy                   -328.22896016 Eh

Summary of corrections to the electronic energy:
(perhaps to be used in another calculation)
Total thermal correction                  0.00913002 Eh       5.73 kcal/mol
Non-thermal (ZPE) correction              0.19831834 Eh     124.45 kcal/mol
-----------------------------------------------------------------------
Total correction                          0.20744835 Eh     130.18 kcal/mol

--------
ENTHALPY
--------

The enthalpy is H = U + kB*T
                kB is Boltzmann's constant
Total free energy                 ...   -328.22896016 Eh
Thermal Enthalpy correction       ...      0.00094421 Eh       0.59 kcal/mol
-----------------------------------------------------------------------
Total Enthalpy                    ...   -328.22801595 Eh

-------
ENTROPY
-------

The entropy contributions are T*S = T*(S(el)+S(vib)+S(rot)+S(trans)
     S(el)   - electronic entropy
     S(vib)  - vibrational entropy
     S(rot)  - rotational entropy
     S(trans)- translational entropy
The entropies will be listed as mutliplied by the temperature to get
units of energy

Electronic entropy                ...      0.00000000 Eh      0.00 kcal/mol
Vibrational entropy               ...      0.01160390 Eh      7.28 kcal/mol
Rotational entropy                ...      0.01228063 Eh      7.71 kcal/mol
Translational entropy             ...      0.01892914 Eh     11.88 kcal/mol
-----------------------------------------------------------------------
Final entropy term                ...      0.04281368 Eh     26.87 kcal/mol

CAUTION: The rotational entropy is not quite correctly treated here
         because it includes a symmetry number that is not yet correctly
         implemented in ORCA!
For a nonlinear molecule the correct rotational entropy is:
    S(rot) = R*(ln(qrot/sn)+1.5)
    R    = 8.31441 J/mol/K = 1.987191683e-3 kcal/mol/K
    qrot = 298123.5777034
    sn is the rotational symmetry number. We have assumed 3 here
       if it is different for your molecule then you should correct
       the printed rotational entropy by manually evaluating the equation
       as given above

For convenience we print out the resulting values for sn=1 - 12:
 sn= 1  qrot/sn=  298123.5777 T*S(rot)=     8.36 kcal/mol T*S(tot)=    27.52 kcal/mol
 sn= 2  qrot/sn=  149061.7889 T*S(rot)=     7.95 kcal/mol T*S(tot)=    27.11 kcal/mol
 sn= 3  qrot/sn=   99374.5259 T*S(rot)=     7.71 kcal/mol T*S(tot)=    26.87 kcal/mol
 sn= 4  qrot/sn=   74530.8944 T*S(rot)=     7.54 kcal/mol T*S(tot)=    26.70 kcal/mol
 sn= 5  qrot/sn=   59624.7155 T*S(rot)=     7.40 kcal/mol T*S(tot)=    26.56 kcal/mol
 sn= 6  qrot/sn=   49687.2630 T*S(rot)=     7.30 kcal/mol T*S(tot)=    26.46 kcal/mol
 sn= 7  qrot/sn=   42589.0825 T*S(rot)=     7.20 kcal/mol T*S(tot)=    26.36 kcal/mol
 sn= 8  qrot/sn=   37265.4472 T*S(rot)=     7.13 kcal/mol T*S(tot)=    26.28 kcal/mol
 sn= 9  qrot/sn=   33124.8420 T*S(rot)=     7.06 kcal/mol T*S(tot)=    26.22 kcal/mol
 sn=10  qrot/sn=   29812.3578 T*S(rot)=     6.99 kcal/mol T*S(tot)=    26.15 kcal/mol
 sn=11  qrot/sn=   27102.1434 T*S(rot)=     6.94 kcal/mol T*S(tot)=    26.10 kcal/mol
 sn=12  qrot/sn=   24843.6315 T*S(rot)=     6.88 kcal/mol T*S(tot)=    26.04 kcal/mol

-------------------
GIBBS FREE ENTHALPY
-------------------

The Gibbs free enthalpy is G = H - T*S

Total enthalpy                    ...   -328.22801595 Eh
Total entropy correction          ...     -0.04281368 Eh    -26.87 kcal/mol
-----------------------------------------------------------------------
Final Gibbs free enthalpy         ...   -328.27082963 Eh

For completeness - the Gibbs free enthalpy minus the electronic energy
G-E(el)                           ...      0.16557889 Eh    103.90 kcal/mol

                             ****ORCA TERMINATED NORMALLY****
TOTAL RUN TIME: 0 days 1 hours 1 minutes 5 seconds 241 msec
