                         Program Version 3.0.3 - RELEASE   -
|  1> ! NORI PBE0 def2-TZVP UseSym TightOPT Freq TightSCF Grid3 FinalGrid5 XYZFile
|  2> % pal
|  3>     nprocs 8
|  4> end
|  5> %method
|  6>     SymThresh 5.0e-2
|  7> end
|  8> % geom
|  9>     MaxIter 10
| 10> end
| 11> % maxcore 2000
| 12> % output
| 13>     printlevel mini
| 14>     print[ P_Basis ] 0
| 15>     print[ P_SCFInfo ] 1
| 16>     print[ P_SCFIterInfo ] 1
| 17>     print[ P_OrbEn ] 0
| 18>     print[ P_Cartesian ] 0
| 19> end
| 20> % elprop
| 21>     Dipole false
| 22> end
| 23> *xyz 1 1
| 24>  C        3.3179553786     2.0381672397    -0.3654177302
| 25>  C        2.5685647986     1.3618949617    -1.4864333671
| 26>  N        3.0201414828    -0.0581168770    -1.7266435255
| 27>  C        2.0518505770    -0.7934934378    -2.5873689953
| 28>  C        4.3981439876    -0.1405887335    -2.2869768462
| 29>  C        4.9488890157    -1.5570962129    -2.2394653215
| 30>  O        5.6672023142    -1.9809620691    -3.0869666608
| 31>  H        2.8583328724     3.0112501532    -0.1868972428
| 32>  H        4.3678240040     2.2208483113    -0.5961422991
| 33>  H        3.2477963875     1.4748639927     0.5691549328
| 34>  H        1.5031374682     1.2973121287    -1.2602480216
| 35>  H        2.6823931820     1.8816615347    -2.4394355391
| 36>  H        3.0326793905    -0.5172158919    -0.8119351059
| 37>  H        1.9803984643    -0.2758670997    -3.5425140708
| 38>  H        1.0805357036    -0.8096407300    -2.0966020812
| 39>  H        2.4051800430    -1.8114164757    -2.7468847951
| 40>  H        4.3815495232     0.2255059862    -3.3133881457
| 41>  H        5.0526189815     0.4973239045    -1.6883609342
| 42>  H        4.6738064252    -2.1589006852    -1.3431442508
| 43> *
| 44>
| 45>                          ****END OF INPUT****
 Total Charge           Charge          ....    1
 Multiplicity           Mult            ....    1
 Number of Electrons    NEL             ....   56
FINAL SINGLE POINT ENERGY      -327.199751894076
FINAL SINGLE POINT ENERGY      -327.199752702241
FINAL SINGLE POINT ENERGY      -327.199753743093

CARTESIAN COORDINATES (ANGSTROEM)
---------------------------------
  C     -1.351841   -0.794496   -2.255384
  C     -0.347404    0.275694   -1.907417
  N      0.387898   -0.000406   -0.618592
  C      1.582652    0.878500   -0.481630
  C     -0.489153    0.102945    0.581766
  C      0.176298   -0.466589    1.824924
  O     -0.005863   -0.001640    2.903899
  H     -1.757369   -0.572451   -3.243721
  H     -2.196778   -0.833220   -1.567199
  H     -0.890505   -1.783897   -2.313787
  H      0.423487    0.352618   -2.675794
  H     -0.807709    1.258141   -1.789395
  H      0.719613   -0.967269   -0.675297
  H      1.248023    1.914860   -0.480979
  H      2.252279    0.701794   -1.321257
  H      2.093830    0.656729    0.454343
  H     -0.749251    1.150131    0.737225
  H     -1.400824   -0.469117    0.393484
  H      0.810228   -1.368939    1.668920

FINAL SINGLE POINT ENERGY      -327.199754659037
                    ***********************HURRAY********************
 Multiplicity           Mult            ....    1
 Number of Electrons    NEL             ....   56
 Basis Dimension        Dim             ....  289
FINAL SINGLE POINT ENERGY      -327.199755034617

VIBRATIONAL FREQUENCIES
-----------------------

   0:         0.00 cm**-1
   1:         0.00 cm**-1
   2:         0.00 cm**-1
   3:         0.00 cm**-1
   4:         0.00 cm**-1
   5:         0.00 cm**-1
   6:        55.85 cm**-1
   7:        69.60 cm**-1
   8:       101.02 cm**-1
   9:       199.06 cm**-1
  10:       220.15 cm**-1
  11:       250.09 cm**-1
  12:       264.88 cm**-1
  13:       387.58 cm**-1
  14:       428.62 cm**-1
  15:       461.24 cm**-1
  16:       522.14 cm**-1
  17:       746.29 cm**-1
  18:       803.57 cm**-1
  19:       844.26 cm**-1
  20:       950.95 cm**-1
  21:      1010.41 cm**-1
  22:      1022.04 cm**-1
  23:      1035.12 cm**-1
  24:      1060.94 cm**-1
  25:      1077.22 cm**-1
  26:      1154.40 cm**-1
  27:      1185.21 cm**-1
  28:      1210.67 cm**-1
  29:      1269.45 cm**-1
  30:      1312.32 cm**-1
  31:      1356.62 cm**-1
  32:      1383.17 cm**-1
  33:      1411.53 cm**-1
  34:      1418.15 cm**-1
  35:      1425.43 cm**-1
  36:      1441.16 cm**-1
  37:      1451.42 cm**-1
  38:      1465.21 cm**-1
  39:      1479.90 cm**-1
  40:      1486.18 cm**-1
  41:      1491.43 cm**-1
  42:      1496.17 cm**-1
  43:      1506.23 cm**-1
  44:      1878.22 cm**-1
  45:      2888.15 cm**-1
  46:      3062.70 cm**-1
  47:      3085.48 cm**-1
  48:      3092.98 cm**-1
  49:      3093.98 cm**-1
  50:      3134.59 cm**-1
  51:      3149.12 cm**-1
  52:      3159.53 cm**-1
  53:      3163.97 cm**-1
  54:      3183.92 cm**-1
  55:      3191.30 cm**-1
  56:      3427.86 cm**-1

IR SPECTRUM
-----------

 Mode    freq (cm**-1)   T**2         TX         TY         TZ
-------------------------------------------------------------------
   6:        55.85    9.797137  (  1.816397   2.433325  -0.759451)
   7:        69.60    5.826398  (  2.353871  -0.361441  -0.393766)
   8:       101.02    1.689914  ( -1.117693   0.507186   0.428297)
   9:       199.06    3.757471  ( -0.966709   1.673985   0.143938)
  10:       220.15    0.648088  ( -0.507237   0.614125  -0.116833)
  11:       250.09    0.935248  (  0.283129  -0.861968  -0.334809)
  12:       264.88    0.268256  ( -0.150676   0.485080  -0.101243)
  13:       387.58    1.780695  ( -1.143058   0.392336  -0.565850)
  14:       428.62    1.618467  (  0.078071  -1.112499  -0.612143)
  15:       461.24    2.125707  (  0.077567  -0.964041   1.091016)
  16:       522.14   10.444899  (  1.787143  -1.211751   2.404720)
  17:       746.29    3.411211  ( -1.217722  -1.070620  -0.884385)
  18:       803.57    5.650453  (  1.597763  -0.346670  -1.725522)
  19:       844.26    5.143124  ( -0.998430   0.251079  -2.020698)
  20:       950.95   10.048313  ( -1.012373  -0.858400  -2.878639)
  21:      1010.41   13.516032  (  2.858101   1.869021  -1.361635)
  22:      1022.04   72.087251  (  3.324835  -1.940335   7.567551)
  23:      1035.12    6.308293  (  0.580737  -1.822690   1.627525)
  24:      1060.94    1.064867  (  0.024074   0.950938  -0.400005)
  25:      1077.22    3.892623  (  1.599329   0.001765   1.155321)
  26:      1154.40    5.139711  (  2.231020   0.263707   0.304495)
  27:      1185.21    3.317557  ( -0.046752  -1.301818   1.273044)
  28:      1210.67    2.513492  ( -0.031183  -0.870754   1.324502)
  29:      1269.45    0.903740  (  0.544855   0.711944   0.316242)
  30:      1312.32    5.999989  (  1.030916  -0.639063   2.128098)
  31:      1356.62    0.989422  (  0.210249   0.211212   0.949003)
  32:      1383.17    3.233087  (  1.329041   1.206830  -0.101479)
  33:      1411.53    8.848965  (  0.225129   2.089726   2.105072)
  34:      1418.15   20.830306  ( -2.548316  -0.384309  -3.766789)
  35:      1425.43   18.376128  ( -1.639846  -2.476420  -3.091015)
  36:      1441.16   11.718206  (  1.786993   0.630006  -2.850957)
  37:      1451.42   13.723297  (  3.617188   0.665042   0.443813)
  38:      1465.21    5.074928  ( -0.403374   1.884491   1.166581)
  39:      1479.90   10.565663  (  1.331768   0.441625   2.932068)
  40:      1486.18    3.847742  ( -0.952032  -1.475387  -0.874419)
  41:      1491.43   16.979186  (  3.575351  -1.094693  -1.731385)
  42:      1496.17   31.822782  (  4.989722  -2.609904   0.337421)
  43:      1506.23   29.043494  ( -0.211242   3.875316  -3.739090)
  44:      1878.22  153.246006  (  0.779969  -2.948893 -11.997570)
  45:      2888.15   54.532330  (  4.300524  -5.682373  -1.936095)
  46:      3062.70    3.829438  (  0.449668  -1.187371   1.489089)
  47:      3085.48    0.494630  ( -0.355189  -0.479204   0.372604)
  48:      3092.98    3.416068  (  0.200632  -1.278442   1.319621)
  49:      3093.98    3.120859  (  1.409581   0.505185   0.937405)
  50:      3134.59    1.572580  ( -0.833351   0.619305   0.703254)
  51:      3149.12    1.108924  ( -0.305693  -0.919266  -0.412827)
  52:      3159.53    2.705724  (  1.315702  -0.199155  -0.966948)
  53:      3163.97    3.745230  (  0.074148  -0.981796  -1.666076)
  54:      3183.92    0.113971  (  0.099067  -0.142783  -0.289430)
  55:      3191.30    0.116670  (  0.045486   0.336692  -0.035213)
  56:      3427.86   35.368557  ( -1.882891   5.640878   0.061442)

--------------------------
THERMOCHEMISTRY AT 298.15K
--------------------------

Temperature         ... 298.15 K
Pressure            ... 1.00 atm
Total Mass          ... 102.16 AMU

Throughout the following assumptions are being made:
  (1) The electronic state is orbitally nondegenerate
  (2) There are no thermally accessible electronically excited states
  (3) Hindered rotations indicated by low frequency modes) are not
      treated as such but are treated as vibrations and this may
      case some error
  (4) All equations used are the standard statistical mechanics
      equations for an ideal gas
  (5) All vibrations are strinctly harmonic

------------
INNER ENERGY
------------

The inner energy is: U= E(el) + E(ZPE) + E(vib) + E(rot) + E(trans)
    E(el)   - is the total energy from the electronic structure calculation
              = E(kin-el) + E(nuc-el) + E(el-el) + E(nuc-nuc)
    E(ZPE)  - the the zero temperature vibrational energy from the frequency calculation
    E(vib)  - the the finite temperature correction to E(ZPE) due to population
              of excietd vibrational states
    E(rot)  - is the rotational thermal energy
    E(trans)- is the translational thermal energy

Summary of contributions to the inner energy U:
Electronic energy                ...   -327.19975503 Eh
Zero point energy                ...      0.17306661 Eh     108.60 kcal/mol
Thermal vibrational correction   ...      0.00606197 Eh       3.80 kcal/mol
Thermal rotational correction    ...      0.00141627 Eh       0.89 kcal/mol
Thermal translational correction ...      0.00141627 Eh       0.89 kcal/mol
-----------------------------------------------------------------------
Total thermal energy                   -327.01779391 Eh

Summary of corrections to the electronic energy:
(perhaps to be used in another calculation)
Total thermal correction                  0.00889451 Eh       5.58 kcal/mol
Non-thermal (ZPE) correction              0.17306661 Eh     108.60 kcal/mol
-----------------------------------------------------------------------
Total correction                          0.18196113 Eh     114.18 kcal/mol

--------
ENTHALPY
--------

The enthalpy is H = U + kB*T
                kB is Boltzmann's constant
Total free energy                 ...   -327.01779391 Eh
Thermal Enthalpy correction       ...      0.00094421 Eh       0.59 kcal/mol
-----------------------------------------------------------------------
Total Enthalpy                    ...   -327.01684970 Eh

-------
ENTROPY
-------

The entropy contributions are T*S = T*(S(el)+S(vib)+S(rot)+S(trans)
     S(el)   - electronic entropy
     S(vib)  - vibrational entropy
     S(rot)  - rotational entropy
     S(trans)- translational entropy
The entropies will be listed as mutliplied by the temperature to get
units of energy

Electronic entropy                ...      0.00000000 Eh      0.00 kcal/mol
Vibrational entropy               ...      0.01160820 Eh      7.28 kcal/mol
Rotational entropy                ...      0.01232793 Eh      7.74 kcal/mol
Translational entropy             ...      0.01890147 Eh     11.86 kcal/mol
-----------------------------------------------------------------------
Final entropy term                ...      0.04283759 Eh     26.88 kcal/mol

CAUTION: The rotational entropy is not quite correctly treated here
         because it includes a symmetry number that is not yet correctly
         implemented in ORCA!
For a nonlinear molecule the correct rotational entropy is:
    S(rot) = R*(ln(qrot/sn)+1.5)
    R    = 8.31441 J/mol/K = 1.987191683e-3 kcal/mol/K
    qrot = 313437.6007373
    sn is the rotational symmetry number. We have assumed 3 here
       if it is different for your molecule then you should correct
       the printed rotational entropy by manually evaluating the equation
       as given above

For convenience we print out the resulting values for sn=1 - 12:
 sn= 1  qrot/sn=  313437.6007 T*S(rot)=     8.39 kcal/mol T*S(tot)=    27.53 kcal/mol
 sn= 2  qrot/sn=  156718.8004 T*S(rot)=     7.98 kcal/mol T*S(tot)=    27.12 kcal/mol
 sn= 3  qrot/sn=  104479.2002 T*S(rot)=     7.74 kcal/mol T*S(tot)=    26.88 kcal/mol
 sn= 4  qrot/sn=   78359.4002 T*S(rot)=     7.57 kcal/mol T*S(tot)=    26.71 kcal/mol
 sn= 5  qrot/sn=   62687.5201 T*S(rot)=     7.43 kcal/mol T*S(tot)=    26.58 kcal/mol
 sn= 6  qrot/sn=   52239.6001 T*S(rot)=     7.33 kcal/mol T*S(tot)=    26.47 kcal/mol
 sn= 7  qrot/sn=   44776.8001 T*S(rot)=     7.23 kcal/mol T*S(tot)=    26.38 kcal/mol
 sn= 8  qrot/sn=   39179.7001 T*S(rot)=     7.15 kcal/mol T*S(tot)=    26.30 kcal/mol
 sn= 9  qrot/sn=   34826.4001 T*S(rot)=     7.08 kcal/mol T*S(tot)=    26.23 kcal/mol
 sn=10  qrot/sn=   31343.7601 T*S(rot)=     7.02 kcal/mol T*S(tot)=    26.17 kcal/mol
 sn=11  qrot/sn=   28494.3273 T*S(rot)=     6.97 kcal/mol T*S(tot)=    26.11 kcal/mol
 sn=12  qrot/sn=   26119.8001 T*S(rot)=     6.91 kcal/mol T*S(tot)=    26.06 kcal/mol

-------------------
GIBBS FREE ENTHALPY
-------------------

The Gibbs free enthalpy is G = H - T*S

Total enthalpy                    ...   -327.01684970 Eh
Total entropy correction          ...     -0.04283759 Eh    -26.88 kcal/mol
-----------------------------------------------------------------------
Final Gibbs free enthalpy         ...   -327.05968729 Eh

For completeness - the Gibbs free enthalpy minus the electronic energy
G-E(el)                           ...      0.14006774 Eh     87.89 kcal/mol

                             ****ORCA TERMINATED NORMALLY****
TOTAL RUN TIME: 0 days 0 hours 57 minutes 26 seconds 184 msec
