                         Program Version 3.0.3 - RELEASE   -
|  1> ! NORI PBE0 def2-TZVP UseSym TightOPT Freq TightSCF Grid3 FinalGrid5 XYZFile
|  2> % pal
|  3>     nprocs 8
|  4> end
|  5> %method
|  6>     SymThresh 5.0e-2
|  7> end
|  8> % geom
|  9>     MaxIter 10
| 10> end
| 11> % maxcore 2000
| 12> % output
| 13>     printlevel mini
| 14>     print[ P_Basis ] 0
| 15>     print[ P_SCFInfo ] 1
| 16>     print[ P_SCFIterInfo ] 1
| 17>     print[ P_OrbEn ] 0
| 18>     print[ P_Cartesian ] 0
| 19> end
| 20> % elprop
| 21>     Dipole false
| 22> end
| 23> *xyz 1 1
| 24>  C        1.4151804194     0.2028120257     3.0910369809
| 25>  C        2.9011536936     0.2165978012     2.8220654024
| 26>  N        3.2194533720    -0.6060419207     1.6143604275
| 27>  C        4.6737077366    -0.7887887072     1.2398362990
| 28>  C        5.4267639246     0.5152338666     1.1460577094
| 29>  C        5.2687005450    -1.7855748372     2.2182347195
| 30>  O        4.3249297776    -2.8268217540     2.3299516725
| 31>  H        1.2049231851     0.8119472385     3.9706754916
| 32>  H        1.0486668227    -0.8060119652     3.2929743156
| 33>  H        0.8472062170     0.6250270732     2.2582599416
| 34>  H        3.2689032172     1.2247123069     2.6336051434
| 35>  H        3.4637990987    -0.2090554122     3.6529419484
| 36>  H        2.8728042386    -1.5611236915     1.7747077878
| 37>  H        2.7115871541    -0.2261345435     0.8151427431
| 38>  H        4.6272635043    -1.2706329067     0.2591267613
| 39>  H        5.5532187548     0.9950138573     2.1172798249
| 40>  H        4.9415198242     1.2158459590     0.4629320252
| 41>  H        6.4217551496     0.3153269292     0.7453191295
| 42>  H        5.4687234393    -1.3148375377     3.1890202410
| 43>  H        6.2228810514    -2.1317761209     1.8092466317
| 44>  H        4.6787788741    -3.5628476608     2.8363148036
| 45> *
| 46>
| 47>                          ****END OF INPUT****
 Total Charge           Charge          ....    1
 Multiplicity           Mult            ....    1
 Number of Electrons    NEL             ....   58
FINAL SINGLE POINT ENERGY      -328.445657833254
FINAL SINGLE POINT ENERGY      -328.445660638917
FINAL SINGLE POINT ENERGY      -328.445663492835
FINAL SINGLE POINT ENERGY      -328.445664957800
FINAL SINGLE POINT ENERGY      -328.445666261127

CARTESIAN COORDINATES (ANGSTROEM)
---------------------------------
  C      1.146837   -2.230344   -1.315739
  C      0.126676   -1.142868   -1.075962
  N      0.750618    0.006185   -0.349758
  C     -0.148056    1.141144    0.089681
  C     -1.010236    1.674774   -1.027256
  C     -0.925755    0.656011    1.300003
  O      0.010786   -0.001650    2.123116
  H      0.672371   -3.056622   -1.845954
  H      1.545492   -2.625461   -0.378609
  H      1.977612   -1.880079   -1.933235
  H     -0.278030   -0.755021   -2.009947
  H     -0.699851   -1.496073   -0.459562
  H      1.161006   -0.349971    0.523641
  H      1.512150    0.379457   -0.916647
  H      0.553839    1.908188    0.428485
  H     -1.761710    0.954244   -1.352940
  H     -0.415126    1.981766   -1.890045
  H     -1.536776    2.561305   -0.670221
  H     -1.742454   -0.013370    1.001722
  H     -1.367691    1.529591    1.789628
  H     -0.380902   -0.248813    2.965089

FINAL SINGLE POINT ENERGY      -328.445666693900
                    ***********************HURRAY********************
 Multiplicity           Mult            ....    1
 Number of Electrons    NEL             ....   58
 Basis Dimension        Dim             ....  301
FINAL SINGLE POINT ENERGY      -328.445666870216

VIBRATIONAL FREQUENCIES
-----------------------

   0:         0.00 cm**-1
   1:         0.00 cm**-1
   2:         0.00 cm**-1
   3:         0.00 cm**-1
   4:         0.00 cm**-1
   5:         0.00 cm**-1
   6:        71.51 cm**-1
   7:        83.03 cm**-1
   8:       165.10 cm**-1
   9:       207.14 cm**-1
  10:       239.50 cm**-1
  11:       250.27 cm**-1
  12:       269.81 cm**-1
  13:       272.15 cm**-1
  14:       334.02 cm**-1
  15:       379.68 cm**-1
  16:       513.30 cm**-1
  17:       553.65 cm**-1
  18:       780.74 cm**-1
  19:       796.93 cm**-1
  20:       866.16 cm**-1
  21:       897.18 cm**-1
  22:       937.12 cm**-1
  23:       955.24 cm**-1
  24:      1041.93 cm**-1
  25:      1085.56 cm**-1
  26:      1088.35 cm**-1
  27:      1104.58 cm**-1
  28:      1119.71 cm**-1
  29:      1168.45 cm**-1
  30:      1211.57 cm**-1
  31:      1241.49 cm**-1
  32:      1269.39 cm**-1
  33:      1297.56 cm**-1
  34:      1343.79 cm**-1
  35:      1361.45 cm**-1
  36:      1398.93 cm**-1
  37:      1414.35 cm**-1
  38:      1422.78 cm**-1
  39:      1425.29 cm**-1
  40:      1450.49 cm**-1
  41:      1465.24 cm**-1
  42:      1482.77 cm**-1
  43:      1486.30 cm**-1
  44:      1490.63 cm**-1
  45:      1500.12 cm**-1
  46:      1504.92 cm**-1
  47:      1519.72 cm**-1
  48:      1621.34 cm**-1
  49:      3030.82 cm**-1
  50:      3059.59 cm**-1
  51:      3066.88 cm**-1
  52:      3081.82 cm**-1
  53:      3095.78 cm**-1
  54:      3109.41 cm**-1
  55:      3131.02 cm**-1
  56:      3144.62 cm**-1
  57:      3153.29 cm**-1
  58:      3154.58 cm**-1
  59:      3170.65 cm**-1
  60:      3362.28 cm**-1
  61:      3492.19 cm**-1
  62:      3872.32 cm**-1

IR SPECTRUM
-----------

 Mode    freq (cm**-1)   T**2         TX         TY         TZ
-------------------------------------------------------------------
   6:        71.51    0.106795  ( -0.016283   0.311932  -0.096064)
   7:        83.03    4.294263  (  0.617245   1.960277   0.265678)
   8:       165.10   13.753950  (  0.731930   2.563838   2.577783)
   9:       207.14    0.778431  ( -0.441488  -0.762563  -0.044909)
  10:       239.50    0.385916  ( -0.190581   0.272055   0.524958)
  11:       250.27    2.890700  (  0.030894   0.995238   1.378132)
  12:       269.81  102.204946  ( -3.635068  -9.084038  -2.543912)
  13:       272.15   30.268127  ( -0.108502  -2.985405  -4.619926)
  14:       334.02   21.476778  ( -0.136528   0.919065   4.540205)
  15:       379.68    1.336885  (  0.064625  -0.270665   1.122252)
  16:       513.30    7.104851  (  1.183021  -1.707681   1.670071)
  17:       553.65    2.024017  (  1.292709  -0.191130   0.562486)
  18:       780.74   20.832076  (  0.504277   1.325418  -4.338323)
  19:       796.93    0.541567  (  0.724854  -0.021522  -0.125264)
  20:       866.16    8.441837  (  0.216282  -1.107851   2.677261)
  21:       897.18    0.786488  ( -0.199137  -0.497020   0.706968)
  22:       937.12    4.213776  (  0.603965  -1.950235   0.213513)
  23:       955.24    6.218954  ( -1.363332  -0.314547  -2.064301)
  24:      1041.93   16.925384  (  0.931929   3.065534   2.580580)
  25:      1085.56    9.091220  ( -1.592895   2.459577   0.710200)
  26:      1088.35    6.724079  (  0.980721  -2.343163   0.521396)
  27:      1104.58  105.643421  (  6.600195  -6.429613   4.554219)
  28:      1119.71   15.911449  (  0.444918   0.876539   3.865899)
  29:      1168.45    5.916952  (  1.789249   0.468190   1.579981)
  30:      1211.57    7.276465  (  1.146677  -0.497158  -2.390488)
  31:      1241.49   20.791449  ( -3.436863   0.145153  -2.993050)
  32:      1269.39    9.847633  ( -1.827225   0.208526  -2.542715)
  33:      1297.56    8.718839  (  0.529386   0.346839  -2.884145)
  34:      1343.79   23.068957  ( -1.465282   4.090183   2.047513)
  35:      1361.45   22.074295  (  3.298608  -2.991417  -1.498300)
  36:      1398.93   19.276928  ( -2.213848   3.134697   2.132951)
  37:      1414.35    7.490070  ( -2.330482   1.030049  -0.998960)
  38:      1422.78   17.588470  ( -1.863271   3.696102  -0.674921)
  39:      1425.29   17.580753  ( -2.387347   3.161490   1.373430)
  40:      1450.49    7.258573  (  1.173056  -1.344118  -2.018876)
  41:      1465.24   23.444336  (  0.360932   3.768299   3.018938)
  42:      1482.77    3.696043  ( -0.607782   0.677393   1.693453)
  43:      1486.30   18.053933  ( -1.756845  -3.824567  -0.583193)
  44:      1490.63   18.714516  (  1.534902   0.718920  -3.980169)
  45:      1500.12    6.231860  (  1.922747  -1.488717   0.564471)
  46:      1504.92    4.102567  (  1.652794  -0.841439   0.814137)
  47:      1519.72   14.379743  ( -2.930263  -0.072224   2.405844)
  48:      1621.34   66.345553  (  8.105450  -0.201913  -0.778763)
  49:      3030.82   19.842572  ( -3.859137  -0.526821  -2.161503)
  50:      3059.59    2.996752  (  1.697475   0.204942   0.270791)
  51:      3066.88    2.421878  ( -0.083201   0.830889   1.313232)
  52:      3081.82    4.084595  ( -1.118653   1.678763  -0.122326)
  53:      3095.78    7.000650  (  0.653079   2.295052   1.143186)
  54:      3109.41    3.630154  (  1.688749  -0.777347   0.417150)
  55:      3131.02    2.908792  (  0.526173   0.695807  -1.465533)
  56:      3144.62    3.158548  ( -1.266025  -0.592529   1.097561)
  57:      3153.29    3.505990  ( -1.055772  -1.523703  -0.263940)
  58:      3154.58    1.591720  ( -1.210736  -0.227596  -0.272102)
  59:      3170.65    2.782088  ( -0.282703  -0.447404   1.581770)
  60:      3362.28   90.832519  (  2.968311  -1.168485   8.980885)
  61:      3492.19   61.594741  (  4.789405   2.610801  -5.642700)
  62:      3872.32  129.992801  ( -2.167103  -3.353157  10.679551)

--------------------------
THERMOCHEMISTRY AT 298.15K
--------------------------

Temperature         ... 298.15 K
Pressure            ... 1.00 atm
Total Mass          ... 104.17 AMU

Throughout the following assumptions are being made:
  (1) The electronic state is orbitally nondegenerate
  (2) There are no thermally accessible electronically excited states
  (3) Hindered rotations indicated by low frequency modes) are not
      treated as such but are treated as vibrations and this may
      case some error
  (4) All equations used are the standard statistical mechanics
      equations for an ideal gas
  (5) All vibrations are strinctly harmonic

------------
INNER ENERGY
------------

The inner energy is: U= E(el) + E(ZPE) + E(vib) + E(rot) + E(trans)
    E(el)   - is the total energy from the electronic structure calculation
              = E(kin-el) + E(nuc-el) + E(el-el) + E(nuc-nuc)
    E(ZPE)  - the the zero temperature vibrational energy from the frequency calculation
    E(vib)  - the the finite temperature correction to E(ZPE) due to population
              of excietd vibrational states
    E(rot)  - is the rotational thermal energy
    E(trans)- is the translational thermal energy

Summary of contributions to the inner energy U:
Electronic energy                ...   -328.44566687 Eh
Zero point energy                ...      0.19823361 Eh     124.39 kcal/mol
Thermal vibrational correction   ...      0.00640448 Eh       4.02 kcal/mol
Thermal rotational correction    ...      0.00141627 Eh       0.89 kcal/mol
Thermal translational correction ...      0.00141627 Eh       0.89 kcal/mol
-----------------------------------------------------------------------
Total thermal energy                   -328.23819624 Eh

Summary of corrections to the electronic energy:
(perhaps to be used in another calculation)
Total thermal correction                  0.00923702 Eh       5.80 kcal/mol
Non-thermal (ZPE) correction              0.19823361 Eh     124.39 kcal/mol
-----------------------------------------------------------------------
Total correction                          0.20747063 Eh     130.19 kcal/mol

--------
ENTHALPY
--------

The enthalpy is H = U + kB*T
                kB is Boltzmann's constant
Total free energy                 ...   -328.23819624 Eh
Thermal Enthalpy correction       ...      0.00094421 Eh       0.59 kcal/mol
-----------------------------------------------------------------------
Total Enthalpy                    ...   -328.23725203 Eh

-------
ENTROPY
-------

The entropy contributions are T*S = T*(S(el)+S(vib)+S(rot)+S(trans)
     S(el)   - electronic entropy
     S(vib)  - vibrational entropy
     S(rot)  - rotational entropy
     S(trans)- translational entropy
The entropies will be listed as mutliplied by the temperature to get
units of energy

Electronic entropy                ...      0.00000000 Eh      0.00 kcal/mol
Vibrational entropy               ...      0.01156549 Eh      7.26 kcal/mol
Rotational entropy                ...      0.01233830 Eh      7.74 kcal/mol
Translational entropy             ...      0.01892914 Eh     11.88 kcal/mol
-----------------------------------------------------------------------
Final entropy term                ...      0.04283293 Eh     26.88 kcal/mol

CAUTION: The rotational entropy is not quite correctly treated here
         because it includes a symmetry number that is not yet correctly
         implemented in ORCA!
For a nonlinear molecule the correct rotational entropy is:
    S(rot) = R*(ln(qrot/sn)+1.5)
    R    = 8.31441 J/mol/K = 1.987191683e-3 kcal/mol/K
    qrot = 316899.7459869
    sn is the rotational symmetry number. We have assumed 3 here
       if it is different for your molecule then you should correct
       the printed rotational entropy by manually evaluating the equation
       as given above

For convenience we print out the resulting values for sn=1 - 12:
 sn= 1  qrot/sn=  316899.7460 T*S(rot)=     8.39 kcal/mol T*S(tot)=    27.53 kcal/mol
 sn= 2  qrot/sn=  158449.8730 T*S(rot)=     7.98 kcal/mol T*S(tot)=    27.12 kcal/mol
 sn= 3  qrot/sn=  105633.2487 T*S(rot)=     7.74 kcal/mol T*S(tot)=    26.88 kcal/mol
 sn= 4  qrot/sn=   79224.9365 T*S(rot)=     7.57 kcal/mol T*S(tot)=    26.71 kcal/mol
 sn= 5  qrot/sn=   63379.9492 T*S(rot)=     7.44 kcal/mol T*S(tot)=    26.58 kcal/mol
 sn= 6  qrot/sn=   52816.6243 T*S(rot)=     7.33 kcal/mol T*S(tot)=    26.47 kcal/mol
 sn= 7  qrot/sn=   45271.3923 T*S(rot)=     7.24 kcal/mol T*S(tot)=    26.38 kcal/mol
 sn= 8  qrot/sn=   39612.4682 T*S(rot)=     7.16 kcal/mol T*S(tot)=    26.30 kcal/mol
 sn= 9  qrot/sn=   35211.0829 T*S(rot)=     7.09 kcal/mol T*S(tot)=    26.23 kcal/mol
 sn=10  qrot/sn=   31689.9746 T*S(rot)=     7.03 kcal/mol T*S(tot)=    26.16 kcal/mol
 sn=11  qrot/sn=   28809.0678 T*S(rot)=     6.97 kcal/mol T*S(tot)=    26.11 kcal/mol
 sn=12  qrot/sn=   26408.3122 T*S(rot)=     6.92 kcal/mol T*S(tot)=    26.06 kcal/mol

-------------------
GIBBS FREE ENTHALPY
-------------------

The Gibbs free enthalpy is G = H - T*S

Total enthalpy                    ...   -328.23725203 Eh
Total entropy correction          ...     -0.04283293 Eh    -26.88 kcal/mol
-----------------------------------------------------------------------
Final Gibbs free enthalpy         ...   -328.28008496 Eh

For completeness - the Gibbs free enthalpy minus the electronic energy
G-E(el)                           ...      0.16558191 Eh    103.90 kcal/mol

                             ****ORCA TERMINATED NORMALLY****
TOTAL RUN TIME: 0 days 1 hours 5 minutes 22 seconds 169 msec
