                         Program Version 3.0.3 - RELEASE   -
|  1> ! NORI PBE0 def2-TZVP UseSym TightOPT Freq TightSCF Grid3 FinalGrid5 XYZFile
|  2> % pal
|  3>     nprocs 8
|  4> end
|  5> %method
|  6>     SymThresh 5.0e-2
|  7> end
|  8> % geom
|  9>     MaxIter 10
| 10> end
| 11> % maxcore 2000
| 12> % output
| 13>     printlevel mini
| 14>     print[ P_Basis ] 0
| 15>     print[ P_SCFInfo ] 1
| 16>     print[ P_SCFIterInfo ] 1
| 17>     print[ P_OrbEn ] 0
| 18>     print[ P_Cartesian ] 0
| 19> end
| 20> % elprop
| 21>     Dipole false
| 22> end
| 23> *xyz 1 1
| 24>  C        0.9611739346     0.4057631910    -0.1452063363
| 25>  C        2.3714576258    -0.0306219844     0.1649844780
| 26>  N        3.1910284316    -0.1155577639    -1.0874781192
| 27>  C        4.6316798987    -0.4694329222    -0.9033088339
| 28>  C        5.0853545283    -1.5580146169    -1.8600520229
| 29>  C        5.4013359907     0.8228319113    -1.1326485187
| 30>  O        4.8354906527     1.8135767309    -1.5029475308
| 31>  H        0.3948914792     0.4648764273     0.7849643273
| 32>  H        0.4482719522    -0.3061867320    -0.7965240787
| 33>  H        0.9363867112     1.3941004069    -0.6097099090
| 34>  H        2.8831609720     0.6795238183     0.8169176038
| 35>  H        2.4045148382    -1.0161639641     0.6325876766
| 36>  H        2.7462263812    -0.7580487956    -1.7432193549
| 37>  H        3.2174767897     0.8248869079    -1.5291225335
| 38>  H        4.7736465138    -0.7899406246     0.1329234504
| 39>  H        4.9373791891    -1.2618777115    -2.9019262975
| 40>  H        4.5534421451    -2.4920221167    -1.6702562461
| 41>  H        6.1494202015    -1.7533734402    -1.7167404311
| 42>  H        6.4897217645     0.7869512783    -0.9621973233
| 43> *
| 44>
| 45>                          ****END OF INPUT****
 Total Charge           Charge          ....    1
 Multiplicity           Mult            ....    1
 Number of Electrons    NEL             ....   56
FINAL SINGLE POINT ENERGY      -327.224713127523
FINAL SINGLE POINT ENERGY      -327.224712481952
FINAL SINGLE POINT ENERGY      -327.224714136464

CARTESIAN COORDINATES (ANGSTROEM)
---------------------------------
  C      1.666410    1.915578   -1.441176
  C      0.312374    1.318955   -1.148122
  N      0.450002   -0.000062   -0.449415
  C     -0.827948   -0.659101   -0.040600
  C     -0.869252   -2.127493   -0.427274
  C     -0.913083   -0.482086    1.468401
  O     -0.000427   -0.000217    2.079530
  H      1.531377    2.873889   -1.943821
  H      2.257304    1.278877   -2.103949
  H      2.234065    2.100375   -0.526598
  H     -0.277427    1.955089   -0.486037
  H     -0.263179    1.136905   -2.057112
  H      1.011188   -0.631962   -1.020573
  H      0.952546    0.151685    0.447714
  H     -1.654797   -0.118481   -0.510121
  H     -0.039854   -2.681696    0.018826
  H     -0.842841   -2.247236   -1.511914
  H     -1.798935   -2.574771   -0.072003
  H     -1.835039   -0.836856    1.956488

FINAL SINGLE POINT ENERGY      -327.224714304611
                    ***********************HURRAY********************
 Multiplicity           Mult            ....    1
 Number of Electrons    NEL             ....   56
 Basis Dimension        Dim             ....  289
FINAL SINGLE POINT ENERGY      -327.224714391226

VIBRATIONAL FREQUENCIES
-----------------------

   0:         0.00 cm**-1
   1:         0.00 cm**-1
   2:         0.00 cm**-1
   3:         0.00 cm**-1
   4:         0.00 cm**-1
   5:         0.00 cm**-1
   6:        34.74 cm**-1
   7:        88.11 cm**-1
   8:       147.36 cm**-1
   9:       191.18 cm**-1
  10:       241.22 cm**-1
  11:       248.92 cm**-1
  12:       297.67 cm**-1
  13:       347.93 cm**-1
  14:       415.46 cm**-1
  15:       449.93 cm**-1
  16:       701.06 cm**-1
  17:       791.79 cm**-1
  18:       831.43 cm**-1
  19:       890.26 cm**-1
  20:       899.07 cm**-1
  21:       929.65 cm**-1
  22:       944.42 cm**-1
  23:      1049.95 cm**-1
  24:      1064.77 cm**-1
  25:      1087.18 cm**-1
  26:      1146.44 cm**-1
  27:      1166.78 cm**-1
  28:      1201.53 cm**-1
  29:      1272.21 cm**-1
  30:      1321.69 cm**-1
  31:      1336.40 cm**-1
  32:      1378.49 cm**-1
  33:      1391.63 cm**-1
  34:      1409.43 cm**-1
  35:      1421.77 cm**-1
  36:      1428.57 cm**-1
  37:      1438.36 cm**-1
  38:      1483.25 cm**-1
  39:      1487.50 cm**-1
  40:      1488.40 cm**-1
  41:      1491.83 cm**-1
  42:      1503.68 cm**-1
  43:      1619.52 cm**-1
  44:      1833.98 cm**-1
  45:      3031.37 cm**-1
  46:      3060.25 cm**-1
  47:      3060.89 cm**-1
  48:      3089.90 cm**-1
  49:      3093.05 cm**-1
  50:      3130.27 cm**-1
  51:      3144.62 cm**-1
  52:      3151.39 cm**-1
  53:      3154.03 cm**-1
  54:      3156.23 cm**-1
  55:      3197.95 cm**-1
  56:      3488.57 cm**-1

IR SPECTRUM
-----------

 Mode    freq (cm**-1)   T**2         TX         TY         TZ
-------------------------------------------------------------------
   7:        88.11    1.077355  ( -0.684080  -0.718191   0.305926)
   8:       147.36    9.492932  ( -0.896507   2.804336  -0.908244)
   9:       191.18    2.651481  (  1.333250  -0.011876  -0.934764)
  10:       241.22    2.261175  ( -1.058113  -0.273536   1.032835)
  11:       248.92    0.081014  (  0.145061   0.210750  -0.124722)
  12:       297.67    7.910060  (  1.775049  -0.482385  -2.127573)
  13:       347.93   40.350494  ( -2.016853  -0.543292   5.998969)
  14:       415.46   16.285913  (  2.231673   1.763391  -2.862865)
  15:       449.93    3.855845  ( -0.430725   1.827035  -0.576424)
  16:       701.06    0.640134  ( -0.108124   0.791503   0.044341)
  17:       791.79   16.237687  (  0.458838  -1.168163  -3.829171)
  18:       831.43   15.097012  (  0.125175   0.653482  -3.828094)
  19:       890.26    3.109718  (  0.026158  -0.834213  -1.553423)
  20:       899.07   25.842424  ( -1.472397   0.016479   4.865614)
  21:       929.65    9.479571  ( -0.327999   1.522138   2.656141)
  22:       944.42    5.134562  (  0.193148  -0.925643  -2.059233)
  23:      1049.95   27.255145  ( -1.250914  -4.662333   1.988219)
  24:      1064.77    2.227835  ( -1.320678  -0.461627   0.520141)
  25:      1087.18   15.091029  ( -2.332177  -3.074995   0.443153)
  26:      1146.44    3.353024  (  0.122303   1.811425   0.238337)
  27:      1166.78   19.695564  (  0.919595  -0.490617   4.313839)
  28:      1201.53    7.366596  (  1.466185  -0.932937  -2.084832)
  29:      1272.21    7.426946  (  0.538708  -1.045901  -2.458217)
  30:      1321.69    8.074781  (  2.404679   0.759668  -1.309659)
  31:      1336.40    6.441711  ( -1.890164  -1.448607   0.877798)
  32:      1378.49    4.560975  (  2.011095   0.679706   0.233392)
  33:      1391.63    4.396459  (  1.002595   1.475643  -1.101699)
  34:      1409.43   14.412703  ( -1.145253  -3.218035   1.656910)
  35:      1421.77   29.592808  ( -3.363782  -4.098603   1.216239)
  36:      1428.57   29.959542  ( -4.337106  -2.097256   2.598187)
  37:      1438.36  119.191628  (  6.422433   6.916664  -5.486687)
  38:      1483.25    2.713032  ( -0.334376  -1.218837   1.056248)
  39:      1487.50   26.403763  ( -2.455098  -1.249799  -4.337541)
  40:      1488.40   10.247133  (  2.331294  -1.203053  -1.834357)
  41:      1491.83    4.920074  ( -2.083271   0.659306   0.381274)
  42:      1503.68   10.753184  ( -3.115172   0.959114  -0.359151)
  43:      1619.52   47.826641  ( -6.684640   1.760592   0.206250)
  44:      1833.98  105.471091  (  5.352827   4.053956   7.770700)
  45:      3031.37   16.657713  (  3.270681   1.399259  -2.000608)
  46:      3060.25    0.550487  ( -0.697178   0.150079   0.204708)
  47:      3060.89    2.538271  ( -1.046698   1.197149  -0.097617)
  48:      3089.90    2.638199  ( -1.102747  -0.275020  -1.160393)
  49:      3093.05    2.635157  ( -1.617658  -0.111240  -0.077229)
  50:      3130.27    0.833767  (  0.245406  -0.819044  -0.320485)
  51:      3144.62    0.899941  (  0.558479  -0.396375   0.656452)
  52:      3151.39    0.089057  ( -0.134086   0.264240   0.035420)
  53:      3154.03    1.867726  ( -0.779120   0.239931   1.096873)
  54:      3156.23    4.955370  (  0.314665   0.412785   2.164709)
  55:      3197.95  165.700170  ( -0.307078   1.592642 -12.769862)
  56:      3488.57   56.743600  (  3.946379  -3.903218  -5.092600)

--------------------------
THERMOCHEMISTRY AT 298.15K
--------------------------

Temperature         ... 298.15 K
Pressure            ... 1.00 atm
Total Mass          ... 102.16 AMU

Throughout the following assumptions are being made:
  (1) The electronic state is orbitally nondegenerate
  (2) There are no thermally accessible electronically excited states
  (3) Hindered rotations indicated by low frequency modes) are not
      treated as such but are treated as vibrations and this may
      case some error
  (4) All equations used are the standard statistical mechanics
      equations for an ideal gas
  (5) All vibrations are strinctly harmonic

------------
INNER ENERGY
------------

The inner energy is: U= E(el) + E(ZPE) + E(vib) + E(rot) + E(trans)
    E(el)   - is the total energy from the electronic structure calculation
              = E(kin-el) + E(nuc-el) + E(el-el) + E(nuc-nuc)
    E(ZPE)  - the the zero temperature vibrational energy from the frequency calculation
    E(vib)  - the the finite temperature correction to E(ZPE) due to population
              of excietd vibrational states
    E(rot)  - is the rotational thermal energy
    E(trans)- is the translational thermal energy

Summary of contributions to the inner energy U:
Electronic energy                ...   -327.22471439 Eh
Zero point energy                ...      0.17359031 Eh     108.93 kcal/mol
Thermal vibrational correction   ...      0.00502614 Eh       3.15 kcal/mol
Thermal rotational correction    ...      0.00141627 Eh       0.89 kcal/mol
Thermal translational correction ...      0.00141627 Eh       0.89 kcal/mol
-----------------------------------------------------------------------
Total thermal energy                   -327.04326541 Eh

Summary of corrections to the electronic energy:
(perhaps to be used in another calculation)
Total thermal correction                  0.00785868 Eh       4.93 kcal/mol
Non-thermal (ZPE) correction              0.17359031 Eh     108.93 kcal/mol
-----------------------------------------------------------------------
Total correction                          0.18144898 Eh     113.86 kcal/mol

--------
ENTHALPY
--------

The enthalpy is H = U + kB*T
                kB is Boltzmann's constant
Total free energy                 ...   -327.04326541 Eh
Thermal Enthalpy correction       ...      0.00094421 Eh       0.59 kcal/mol
-----------------------------------------------------------------------
Total Enthalpy                    ...   -327.04232120 Eh

-------
ENTROPY
-------

The entropy contributions are T*S = T*(S(el)+S(vib)+S(rot)+S(trans)
     S(el)   - electronic entropy
     S(vib)  - vibrational entropy
     S(rot)  - rotational entropy
     S(trans)- translational entropy
The entropies will be listed as mutliplied by the temperature to get
units of energy

Electronic entropy                ...      0.00000000 Eh      0.00 kcal/mol
Vibrational entropy               ...      0.00869565 Eh      5.46 kcal/mol
Rotational entropy                ...      0.01230899 Eh      7.72 kcal/mol
Translational entropy             ...      0.01890147 Eh     11.86 kcal/mol
-----------------------------------------------------------------------
Final entropy term                ...      0.03990611 Eh     25.04 kcal/mol

CAUTION: The rotational entropy is not quite correctly treated here
         because it includes a symmetry number that is not yet correctly
         implemented in ORCA!
For a nonlinear molecule the correct rotational entropy is:
    S(rot) = R*(ln(qrot/sn)+1.5)
    R    = 8.31441 J/mol/K = 1.987191683e-3 kcal/mol/K
    qrot = 307213.3866353
    sn is the rotational symmetry number. We have assumed 3 here
       if it is different for your molecule then you should correct
       the printed rotational entropy by manually evaluating the equation
       as given above

For convenience we print out the resulting values for sn=1 - 12:
 sn= 1  qrot/sn=  307213.3866 T*S(rot)=     8.37 kcal/mol T*S(tot)=    25.69 kcal/mol
 sn= 2  qrot/sn=  153606.6933 T*S(rot)=     7.96 kcal/mol T*S(tot)=    25.28 kcal/mol
 sn= 3  qrot/sn=  102404.4622 T*S(rot)=     7.72 kcal/mol T*S(tot)=    25.04 kcal/mol
 sn= 4  qrot/sn=   76803.3467 T*S(rot)=     7.55 kcal/mol T*S(tot)=    24.87 kcal/mol
 sn= 5  qrot/sn=   61442.6773 T*S(rot)=     7.42 kcal/mol T*S(tot)=    24.74 kcal/mol
 sn= 6  qrot/sn=   51202.2311 T*S(rot)=     7.31 kcal/mol T*S(tot)=    24.63 kcal/mol
 sn= 7  qrot/sn=   43887.6267 T*S(rot)=     7.22 kcal/mol T*S(tot)=    24.54 kcal/mol
 sn= 8  qrot/sn=   38401.6733 T*S(rot)=     7.14 kcal/mol T*S(tot)=    24.46 kcal/mol
 sn= 9  qrot/sn=   34134.8207 T*S(rot)=     7.07 kcal/mol T*S(tot)=    24.39 kcal/mol
 sn=10  qrot/sn=   30721.3387 T*S(rot)=     7.01 kcal/mol T*S(tot)=    24.33 kcal/mol
 sn=11  qrot/sn=   27928.4897 T*S(rot)=     6.95 kcal/mol T*S(tot)=    24.27 kcal/mol
 sn=12  qrot/sn=   25601.1156 T*S(rot)=     6.90 kcal/mol T*S(tot)=    24.22 kcal/mol

-------------------
GIBBS FREE ENTHALPY
-------------------

The Gibbs free enthalpy is G = H - T*S

Total enthalpy                    ...   -327.04232120 Eh
Total entropy correction          ...     -0.03990611 Eh    -25.04 kcal/mol
-----------------------------------------------------------------------
Final Gibbs free enthalpy         ...   -327.08222731 Eh

For completeness - the Gibbs free enthalpy minus the electronic energy
G-E(el)                           ...      0.14248709 Eh     89.41 kcal/mol

                             ****ORCA TERMINATED NORMALLY****
TOTAL RUN TIME: 0 days 0 hours 54 minutes 57 seconds 29 msec
