                         Program Version 3.0.3 - RELEASE   -
|  1> ! NORI PBE0 def2-TZVP UseSym TightOPT Freq TightSCF Grid3 FinalGrid5 XYZFile
|  2> % pal
|  3>     nprocs 8
|  4> end
|  5> %method
|  6>     SymThresh 5.0e-2
|  7> end
|  8> % geom
|  9>     MaxIter 10
| 10> end
| 11> % maxcore 2000
| 12> % output
| 13>     printlevel mini
| 14>     print[ P_Basis ] 0
| 15>     print[ P_SCFInfo ] 1
| 16>     print[ P_SCFIterInfo ] 1
| 17>     print[ P_OrbEn ] 0
| 18>     print[ P_Cartesian ] 0
| 19> end
| 20> % elprop
| 21>     Dipole false
| 22> end
| 23> *xyz 1 1
| 24>  C        1.3913560287    -1.0165491360     0.9919422761
| 25>  C        2.7581664499    -0.4116055159     1.1978438744
| 26>  N        3.3710838685    -0.8890329315     2.4751619450
| 27>  C        4.7137142889    -0.3216424155     2.7950301914
| 28>  C        5.3673328136    -1.1746050287     3.8729133008
| 29>  C        4.7820989814    -0.9829062943     5.2577041720
| 30>  O        5.1996981153    -2.4966934771     3.3883902516
| 31>  H        0.9802631965    -0.6559976914     0.0484633421
| 32>  H        0.6940923886    -0.7282136965     1.7826821882
| 33>  H        1.4337767239    -2.1067844936     0.9363405667
| 34>  H        2.7201783337     0.6775475802     1.2545616527
| 35>  H        3.4519559516    -0.6877981574     0.4024439624
| 36>  H        3.5075864040    -1.9094173792     2.4576953574
| 37>  H        2.7252838024    -0.7060334185     3.2447057752
| 38>  H        4.5975094865     0.7189892383     3.0954647511
| 39>  H        5.2940123410    -0.3698726952     1.8732327765
| 40>  H        6.4292748322    -0.9015932664     3.8853127546
| 41>  H        3.7212061369    -1.2481967302     5.3018725813
| 42>  H        4.9009395378     0.0499937581     5.5920009589
| 43>  H        5.3004340084    -1.6191302465     5.9773592802
| 44>  H        5.6073363102    -3.1317480028     3.9842380414
| 45> *
| 46>
| 47>                          ****END OF INPUT****
 Total Charge           Charge          ....    1
 Multiplicity           Mult            ....    1
 Number of Electrons    NEL             ....   58
FINAL SINGLE POINT ENERGY      -328.447373945248

CARTESIAN COORDINATES (ANGSTROEM)
---------------------------------
  C      2.301822   -0.104187   -2.168940
  C      1.136149    0.718521   -1.677996
  N      0.385501    0.000043   -0.603092
  C     -0.811830    0.712744   -0.069073
  C     -1.220098    0.072886    1.250286
  C     -1.891850   -1.277926    1.104633
  O      0.000534    0.000164    1.968445
  H      2.831187    0.453159   -2.942430
  H      1.976609   -1.048468   -2.612218
  H      3.015444   -0.314998   -1.369374
  H      0.420427    0.931285   -2.473723
  H      1.457910    1.667093   -1.246173
  H      0.986754   -0.165927    0.215861
  H      0.115453   -0.923624   -0.944004
  H     -1.605526    0.682102   -0.814617
  H     -0.506356    1.746668    0.092751
  H     -1.910659    0.772673    1.735875
  H     -1.240618   -2.017252    0.628577
  H     -2.813629   -1.194959    0.524765
  H     -2.160029   -1.673635    2.086142
  H     -0.142177   -0.366661    2.845721

FINAL SINGLE POINT ENERGY      -328.447374768315
                    ***********************HURRAY********************
 Multiplicity           Mult            ....    1
 Number of Electrons    NEL             ....   58
 Basis Dimension        Dim             ....  301
FINAL SINGLE POINT ENERGY      -328.447375092449

VIBRATIONAL FREQUENCIES
-----------------------

   0:         0.00 cm**-1
   1:         0.00 cm**-1
   2:         0.00 cm**-1
   3:         0.00 cm**-1
   4:         0.00 cm**-1
   5:         0.00 cm**-1
   6:        72.87 cm**-1
   7:        74.37 cm**-1
   8:       121.22 cm**-1
   9:       177.18 cm**-1
  10:       244.06 cm**-1
  11:       250.00 cm**-1
  12:       282.92 cm**-1
  13:       302.47 cm**-1
  14:       376.64 cm**-1
  15:       412.18 cm**-1
  16:       433.80 cm**-1
  17:       626.28 cm**-1
  18:       786.74 cm**-1
  19:       830.84 cm**-1
  20:       842.98 cm**-1
  21:       897.19 cm**-1
  22:       942.19 cm**-1
  23:       960.58 cm**-1
  24:      1001.96 cm**-1
  25:      1057.15 cm**-1
  26:      1067.65 cm**-1
  27:      1085.94 cm**-1
  28:      1114.96 cm**-1
  29:      1162.28 cm**-1
  30:      1187.69 cm**-1
  31:      1233.91 cm**-1
  32:      1266.93 cm**-1
  33:      1333.17 cm**-1
  34:      1356.82 cm**-1
  35:      1366.99 cm**-1
  36:      1399.17 cm**-1
  37:      1405.03 cm**-1
  38:      1411.70 cm**-1
  39:      1421.94 cm**-1
  40:      1425.22 cm**-1
  41:      1432.63 cm**-1
  42:      1481.45 cm**-1
  43:      1484.34 cm**-1
  44:      1488.28 cm**-1
  45:      1489.67 cm**-1
  46:      1495.20 cm**-1
  47:      1507.95 cm**-1
  48:      1660.51 cm**-1
  49:      3047.18 cm**-1
  50:      3053.22 cm**-1
  51:      3061.07 cm**-1
  52:      3095.88 cm**-1
  53:      3109.12 cm**-1
  54:      3126.38 cm**-1
  55:      3130.45 cm**-1
  56:      3141.31 cm**-1
  57:      3154.56 cm**-1
  58:      3157.71 cm**-1
  59:      3172.23 cm**-1
  60:      3356.67 cm**-1
  61:      3481.48 cm**-1
  62:      3863.10 cm**-1

IR SPECTRUM
-----------

 Mode    freq (cm**-1)   T**2         TX         TY         TZ
-------------------------------------------------------------------
   6:        72.87    0.993036  ( -0.921926  -0.367080   0.091327)
   7:        74.37    1.036871  (  0.274846   0.950781   0.239473)
   8:       121.22    3.672696  (  1.622792   0.949530   0.370993)
   9:       177.18   13.078887  (  0.574145   1.977211   2.973194)
  10:       244.06    0.242168  (  0.404575   0.060396  -0.273567)
  11:       250.00    2.336940  ( -0.639488  -1.315620  -0.444005)
  12:       282.92   54.043142  (  1.152971  -4.923140  -5.336337)
  13:       302.47   77.653034  (  0.396312   8.663684   1.560945)
  14:       376.64   14.632224  (  0.736868  -0.697014  -3.688282)
  15:       412.18    4.224982  (  1.156428  -0.971090  -1.394504)
  16:       433.80    8.030562  ( -0.566440   2.599147  -0.976801)
  17:       626.28   13.811016  ( -3.577171   0.267798  -0.971159)
  18:       786.74   11.518320  (  1.975178   1.448058   2.349494)
  19:       830.84    1.085399  ( -0.357589  -0.750124  -0.628366)
  20:       842.98    2.236833  ( -1.390515   0.344844  -0.429398)
  21:       897.19    4.095846  ( -1.892187  -0.216767   0.684461)
  22:       942.19    4.967520  (  1.793475  -0.318628   1.284307)
  23:       960.58   11.361391  ( -1.638836  -0.609135  -2.881764)
  24:      1001.96   10.686074  (  3.186192  -0.712551   0.162865)
  25:      1057.15   15.163062  ( -3.248864  -0.813834   1.986358)
  26:      1067.65    3.522075  (  1.198292  -1.130940   0.898412)
  27:      1085.94   25.117691  (  4.045241   0.973033   2.794087)
  28:      1114.96   65.976954  ( -2.709636   1.892769  -7.419721)
  29:      1162.28   19.335672  (  4.395078  -0.056271   0.125665)
  30:      1187.69    1.947889  (  1.293406  -0.428297   0.302575)
  31:      1233.91   16.297366  ( -2.694135  -1.122905  -2.788923)
  32:      1266.93   18.801079  (  3.574394   1.469564   1.966002)
  33:      1333.17   54.748324  (  6.298400   0.275523  -3.873315)
  34:      1356.82    4.033254  (  1.196276   0.947452   1.305570)
  35:      1366.99    4.673825  ( -1.613753  -0.606231  -1.304649)
  36:      1399.17    4.067441  ( -0.841062   0.656997  -1.711260)
  37:      1405.03   20.143472  (  2.617731  -0.765321  -3.564441)
  38:      1411.70   20.237151  ( -3.788809  -1.789699   1.636782)
  39:      1421.94   74.439504  ( -7.626642  -2.254983   3.344979)
  40:      1425.22   68.450516  ( -4.413172   2.463575   6.550208)
  41:      1432.63   12.857868  ( -2.303392  -1.317623   2.411664)
  42:      1481.45   17.329573  (  1.408617   1.080931  -3.765230)
  43:      1484.34    3.038734  (  1.224586   0.356168   1.188388)
  44:      1488.28    4.461855  ( -0.301084   0.787016   1.936959)
  45:      1489.67   14.986986  (  2.746029   1.722948   2.116072)
  46:      1495.20   12.046366  (  2.716062  -2.089234  -0.551794)
  47:      1507.95   20.755855  (  1.762180  -4.022311   1.213091)
  48:      1660.51   33.776738  (  1.195358  -5.088123   2.541428)
  49:      3047.18    1.710550  ( -0.707958  -0.166817  -1.086976)
  50:      3053.22   14.157063  (  2.361800  -2.741084  -1.032192)
  51:      3061.07    2.933270  (  0.054265  -1.631313   0.518789)
  52:      3095.88    3.160314  (  1.180272  -1.314802   0.196388)
  53:      3109.12    1.537902  ( -0.143911   0.866119  -0.875803)
  54:      3126.38   14.593830  (  2.912053  -1.537214  -1.936685)
  55:      3130.45    2.254562  (  0.970704   0.777818   0.841008)
  56:      3141.31    3.860963  (  1.008486  -0.747679   1.511587)
  57:      3154.56    0.899698  (  0.281865  -0.904638  -0.043350)
  58:      3157.71    3.677215  (  1.032407   0.569468   1.512302)
  59:      3172.23    0.579912  (  0.613468   0.291439   0.344431)
  60:      3356.67  104.748049  ( -1.929264   2.650809  -9.695319)
  61:      3481.48   45.653037  (  2.196007   4.967404   4.019389)
  62:      3863.10  101.257043  (  1.054981  -2.698698   9.636446)

--------------------------
THERMOCHEMISTRY AT 298.15K
--------------------------

Temperature         ... 298.15 K
Pressure            ... 1.00 atm
Total Mass          ... 104.17 AMU

Throughout the following assumptions are being made:
  (1) The electronic state is orbitally nondegenerate
  (2) There are no thermally accessible electronically excited states
  (3) Hindered rotations indicated by low frequency modes) are not
      treated as such but are treated as vibrations and this may
      case some error
  (4) All equations used are the standard statistical mechanics
      equations for an ideal gas
  (5) All vibrations are strinctly harmonic

------------
INNER ENERGY
------------

The inner energy is: U= E(el) + E(ZPE) + E(vib) + E(rot) + E(trans)
    E(el)   - is the total energy from the electronic structure calculation
              = E(kin-el) + E(nuc-el) + E(el-el) + E(nuc-nuc)
    E(ZPE)  - the the zero temperature vibrational energy from the frequency calculation
    E(vib)  - the the finite temperature correction to E(ZPE) due to population
              of excietd vibrational states
    E(rot)  - is the rotational thermal energy
    E(trans)- is the translational thermal energy

Summary of contributions to the inner energy U:
Electronic energy                ...   -328.44737509 Eh
Zero point energy                ...      0.19802600 Eh     124.26 kcal/mol
Thermal vibrational correction   ...      0.00643355 Eh       4.04 kcal/mol
Thermal rotational correction    ...      0.00141627 Eh       0.89 kcal/mol
Thermal translational correction ...      0.00141627 Eh       0.89 kcal/mol
-----------------------------------------------------------------------
Total thermal energy                   -328.24008300 Eh

Summary of corrections to the electronic energy:
(perhaps to be used in another calculation)
Total thermal correction                  0.00926609 Eh       5.81 kcal/mol
Non-thermal (ZPE) correction              0.19802600 Eh     124.26 kcal/mol
-----------------------------------------------------------------------
Total correction                          0.20729209 Eh     130.08 kcal/mol

--------
ENTHALPY
--------

The enthalpy is H = U + kB*T
                kB is Boltzmann's constant
Total free energy                 ...   -328.24008300 Eh
Thermal Enthalpy correction       ...      0.00094421 Eh       0.59 kcal/mol
-----------------------------------------------------------------------
Total Enthalpy                    ...   -328.23913879 Eh

-------
ENTROPY
-------

The entropy contributions are T*S = T*(S(el)+S(vib)+S(rot)+S(trans)
     S(el)   - electronic entropy
     S(vib)  - vibrational entropy
     S(rot)  - rotational entropy
     S(trans)- translational entropy
The entropies will be listed as mutliplied by the temperature to get
units of energy

Electronic entropy                ...      0.00000000 Eh      0.00 kcal/mol
Vibrational entropy               ...      0.01183511 Eh      7.43 kcal/mol
Rotational entropy                ...      0.01236507 Eh      7.76 kcal/mol
Translational entropy             ...      0.01892914 Eh     11.88 kcal/mol
-----------------------------------------------------------------------
Final entropy term                ...      0.04312932 Eh     27.06 kcal/mol

CAUTION: The rotational entropy is not quite correctly treated here
         because it includes a symmetry number that is not yet correctly
         implemented in ORCA!
For a nonlinear molecule the correct rotational entropy is:
    S(rot) = R*(ln(qrot/sn)+1.5)
    R    = 8.31441 J/mol/K = 1.987191683e-3 kcal/mol/K
    qrot = 326012.8408776
    sn is the rotational symmetry number. We have assumed 3 here
       if it is different for your molecule then you should correct
       the printed rotational entropy by manually evaluating the equation
       as given above

For convenience we print out the resulting values for sn=1 - 12:
 sn= 1  qrot/sn=  326012.8409 T*S(rot)=     8.41 kcal/mol T*S(tot)=    27.71 kcal/mol
 sn= 2  qrot/sn=  163006.4204 T*S(rot)=     8.00 kcal/mol T*S(tot)=    27.30 kcal/mol
 sn= 3  qrot/sn=  108670.9470 T*S(rot)=     7.76 kcal/mol T*S(tot)=    27.06 kcal/mol
 sn= 4  qrot/sn=   81503.2102 T*S(rot)=     7.59 kcal/mol T*S(tot)=    26.89 kcal/mol
 sn= 5  qrot/sn=   65202.5682 T*S(rot)=     7.46 kcal/mol T*S(tot)=    26.76 kcal/mol
 sn= 6  qrot/sn=   54335.4735 T*S(rot)=     7.35 kcal/mol T*S(tot)=    26.65 kcal/mol
 sn= 7  qrot/sn=   46573.2630 T*S(rot)=     7.26 kcal/mol T*S(tot)=    26.56 kcal/mol
 sn= 8  qrot/sn=   40751.6051 T*S(rot)=     7.18 kcal/mol T*S(tot)=    26.48 kcal/mol
 sn= 9  qrot/sn=   36223.6490 T*S(rot)=     7.11 kcal/mol T*S(tot)=    26.41 kcal/mol
 sn=10  qrot/sn=   32601.2841 T*S(rot)=     7.05 kcal/mol T*S(tot)=    26.35 kcal/mol
 sn=11  qrot/sn=   29637.5310 T*S(rot)=     6.99 kcal/mol T*S(tot)=    26.29 kcal/mol
 sn=12  qrot/sn=   27167.7367 T*S(rot)=     6.94 kcal/mol T*S(tot)=    26.24 kcal/mol

-------------------
GIBBS FREE ENTHALPY
-------------------

The Gibbs free enthalpy is G = H - T*S

Total enthalpy                    ...   -328.23913879 Eh
Total entropy correction          ...     -0.04312932 Eh    -27.06 kcal/mol
-----------------------------------------------------------------------
Final Gibbs free enthalpy         ...   -328.28226811 Eh

For completeness - the Gibbs free enthalpy minus the electronic energy
G-E(el)                           ...      0.16510698 Eh    103.61 kcal/mol

                             ****ORCA TERMINATED NORMALLY****
TOTAL RUN TIME: 0 days 0 hours 52 minutes 32 seconds 39 msec
