                         Program Version 3.0.3 - RELEASE   -
|  1> ! NORI PBE0 def2-TZVP UseSym TightOPT Freq TightSCF Grid3 FinalGrid5 XYZFile
|  2> % pal
|  3>     nprocs 8
|  4> end
|  5> %method
|  6>     SymThresh 5.0e-2
|  7> end
|  8> % geom
|  9>     MaxIter 10
| 10> end
| 11> % maxcore 2000
| 12> % output
| 13>     printlevel mini
| 14>     print[ P_Basis ] 0
| 15>     print[ P_SCFInfo ] 1
| 16>     print[ P_SCFIterInfo ] 1
| 17>     print[ P_OrbEn ] 0
| 18>     print[ P_Cartesian ] 0
| 19> end
| 20> % elprop
| 21>     Dipole false
| 22> end
| 23> *xyz 1 1
| 24>  C        1.4450301063     0.8589603923    -1.5021128842
| 25>  C        2.8095475665     0.8685475262    -0.8598244195
| 26>  N        2.8907073068    -0.1536401183     0.2328479923
| 27>  C        4.2113750666    -0.2931591547     0.8908729346
| 28>  C        4.7868807838    -1.6407546731     0.4381175024
| 29>  C        6.1585866006    -1.9927928974     0.8780462265
| 30>  O        4.0800899267    -2.3335764705    -0.2531144646
| 31>  H        1.4182690391     1.6097021942    -2.2928545442
| 32>  H        0.6574758819     1.1092222923    -0.7873211975
| 33>  H        1.2182297664    -0.1077361159    -1.9564544395
| 34>  H        3.0460768139     1.8344654916    -0.4103170535
| 35>  H        3.5963463574     0.6149193580    -1.5718983345
| 36>  H        2.7438470329    -1.1038262074    -0.1789104224
| 37>  H        2.1510149498     0.0171450114     0.9123882157
| 38>  H        4.0984244744    -0.2795530420     1.9766018583
| 39>  H        4.8628382099     0.5348306928     0.6079708126
| 40>  H        6.3925479415    -3.0165082820     0.5947347517
| 41>  H        6.2626459261    -1.8648134032     1.9594795495
| 42>  H        6.8765462496    -1.3122025943     0.4087579164
| 43> *
| 44>
| 45>                          ****END OF INPUT****
 Total Charge           Charge          ....    1
 Multiplicity           Mult            ....    1
 Number of Electrons    NEL             ....   56
FINAL SINGLE POINT ENERGY      -327.237895828942

CARTESIAN COORDINATES (ANGSTROEM)
---------------------------------
  C      1.499001    2.118042   -1.741402
  C      0.354913    1.150950   -1.567532
  N      0.758782   -0.000695   -0.697868
  C     -0.307866   -0.982335   -0.388736
  C     -0.660345   -0.794299    1.092068
  C     -1.780284   -1.593013    1.645637
  O      0.002269   -0.001365    1.716167
  H      1.173827    2.944150   -2.374658
  H      2.356609    1.649638   -2.230422
  H      1.821052    2.540302   -0.787137
  H      0.023191    0.730768   -2.518247
  H     -0.500972    1.616914   -1.076247
  H      1.011134    0.361638    0.250387
  H      1.580441   -0.454015   -1.095034
  H      0.049058   -1.999062   -0.563090
  H     -1.173622   -0.812775   -1.030303
  H     -1.841765   -1.457121    2.723145
  H     -1.656631   -2.652203    1.403141
  H     -2.719690   -1.270710    1.183854

FINAL SINGLE POINT ENERGY      -327.237896548055
                    ***********************HURRAY********************
 Multiplicity           Mult            ....    1
 Number of Electrons    NEL             ....   56
 Basis Dimension        Dim             ....  289
FINAL SINGLE POINT ENERGY      -327.237896706080

VIBRATIONAL FREQUENCIES
-----------------------

   0:         0.00 cm**-1
   1:         0.00 cm**-1
   2:         0.00 cm**-1
   3:         0.00 cm**-1
   4:         0.00 cm**-1
   5:         0.00 cm**-1
   6:        40.34 cm**-1
   7:        64.53 cm**-1
   8:        88.85 cm**-1
   9:       114.54 cm**-1
  10:       246.76 cm**-1
  11:       268.79 cm**-1
  12:       304.11 cm**-1
  13:       355.98 cm**-1
  14:       460.20 cm**-1
  15:       483.84 cm**-1
  16:       636.01 cm**-1
  17:       771.95 cm**-1
  18:       803.99 cm**-1
  19:       823.98 cm**-1
  20:       888.94 cm**-1
  21:       920.17 cm**-1
  22:       990.87 cm**-1
  23:      1037.44 cm**-1
  24:      1064.34 cm**-1
  25:      1077.52 cm**-1
  26:      1136.32 cm**-1
  27:      1177.45 cm**-1
  28:      1216.17 cm**-1
  29:      1262.59 cm**-1
  30:      1289.08 cm**-1
  31:      1358.55 cm**-1
  32:      1379.74 cm**-1
  33:      1393.69 cm**-1
  34:      1416.26 cm**-1
  35:      1427.04 cm**-1
  36:      1431.31 cm**-1
  37:      1443.03 cm**-1
  38:      1457.89 cm**-1
  39:      1472.45 cm**-1
  40:      1484.03 cm**-1
  41:      1489.29 cm**-1
  42:      1504.30 cm**-1
  43:      1621.59 cm**-1
  44:      1823.73 cm**-1
  45:      3053.65 cm**-1
  46:      3060.86 cm**-1
  47:      3088.15 cm**-1
  48:      3095.80 cm**-1
  49:      3108.13 cm**-1
  50:      3118.77 cm**-1
  51:      3130.95 cm**-1
  52:      3154.20 cm**-1
  53:      3154.84 cm**-1
  54:      3157.02 cm**-1
  55:      3185.68 cm**-1
  56:      3501.96 cm**-1

IR SPECTRUM
-----------

 Mode    freq (cm**-1)   T**2         TX         TY         TZ
-------------------------------------------------------------------
   6:        40.34    0.505163  (  0.340976  -0.579375  -0.230702)
   7:        64.53    1.872809  (  0.314237  -1.331278  -0.041989)
   8:        88.85    1.534642  (  0.980161   0.687347  -0.318562)
   9:       114.54    3.638046  ( -0.541470   1.689620  -0.700028)
  10:       246.76    0.678658  ( -0.525801   0.019259   0.633893)
  11:       268.79    4.342160  (  1.112778  -0.975785  -1.466877)
  12:       304.11   15.886772  ( -0.834959  -0.339153   3.882601)
  13:       355.98   30.773595  ( -2.873455  -1.296774   4.564563)
  14:       460.20    0.372651  ( -0.212553  -0.215929   0.529950)
  15:       483.84   41.292395  (  3.809600   2.819104  -4.339585)
  16:       636.01    6.482742  (  1.111486   0.387139  -2.257757)
  17:       771.95   26.346859  (  2.148649  -0.182859  -4.657975)
  18:       803.99    1.728655  ( -0.135352   0.997873   0.845331)
  19:       823.98    4.056711  ( -0.592598  -1.409009   1.311576)
  20:       888.94    1.827365  (  0.731019   0.452355  -1.043241)
  21:       920.17    2.448796  (  0.182913  -0.268510  -1.530765)
  22:       990.87    2.025941  ( -1.165677  -0.076097   0.813233)
  23:      1037.44   17.189481  ( -0.903342   3.128939  -2.565774)
  24:      1064.34   20.990527  ( -0.833701  -3.987540   2.096424)
  25:      1077.52    1.315343  (  1.056248   0.178492  -0.409664)
  26:      1136.32    5.480057  (  0.565115   1.553299  -1.657699)
  27:      1177.45   11.716332  (  0.615254  -0.023927  -3.367079)
  28:      1216.17   51.435230  (  2.761757   1.102484  -6.526290)
  29:      1262.59   10.584384  ( -2.632427  -1.117056   1.551418)
  30:      1289.08   51.241476  ( -3.678637  -0.586095   6.112741)
  31:      1358.55   19.798125  (  1.256058   0.928520  -4.166329)
  32:      1379.74    0.680323  (  0.008357   0.824051  -0.034533)
  33:      1393.69   82.174125  (  6.988321   4.431052  -3.701793)
  34:      1416.26   40.263998  ( -3.302726  -5.167681  -1.628212)
  35:      1427.04   39.663949  (  3.387660   4.048315  -3.434946)
  36:      1431.31  123.709340  ( -5.415245  -8.793345   4.130561)
  37:      1443.03    5.476345  ( -0.136982   0.558611   2.268377)
  38:      1457.89   15.303222  (  2.484585  -2.769353   1.208612)
  39:      1472.45   19.711011  (  0.242279  -0.271693   4.424759)
  40:      1484.03    4.438106  (  0.598309  -0.923702   1.796360)
  41:      1489.29   21.308286  ( -1.972986   1.752301   3.787487)
  42:      1504.30   10.592226  (  3.078807   0.024894   1.054778)
  43:      1621.59   55.319732  ( -7.302413  -0.455308  -1.336856)
  44:      1823.73  110.092347  (  5.958219   6.846675   5.264505)
  45:      3053.65    7.587285  ( -2.004324  -0.989746   1.609463)
  46:      3060.86    2.454946  (  1.386951  -0.715285  -0.140290)
  47:      3088.15   74.912629  (  0.109137   0.689989  -8.626971)
  48:      3095.80   27.898739  (  1.780018   1.391889  -4.774193)
  49:      3108.13  155.613957  (  3.004383   1.717137 -11.984952)
  50:      3118.77    0.200101  (  0.444067  -0.047964   0.024609)
  51:      3130.95   10.283096  ( -1.082223   0.435216   2.987051)
  52:      3154.20    0.906666  (  0.912697  -0.265536  -0.056039)
  53:      3154.84    2.853445  (  0.750131  -1.062843   1.077550)
  54:      3157.02    1.034818  (  0.127391   0.718997   0.708260)
  55:      3185.68    1.090948  ( -0.572728  -0.525087  -0.698007)
  56:      3501.96   71.510397  (  6.664380  -2.940397  -4.295404)

--------------------------
THERMOCHEMISTRY AT 298.15K
--------------------------

Temperature         ... 298.15 K
Pressure            ... 1.00 atm
Total Mass          ... 102.16 AMU

Throughout the following assumptions are being made:
  (1) The electronic state is orbitally nondegenerate
  (2) There are no thermally accessible electronically excited states
  (3) Hindered rotations indicated by low frequency modes) are not
      treated as such but are treated as vibrations and this may
      case some error
  (4) All equations used are the standard statistical mechanics
      equations for an ideal gas
  (5) All vibrations are strinctly harmonic

------------
INNER ENERGY
------------

The inner energy is: U= E(el) + E(ZPE) + E(vib) + E(rot) + E(trans)
    E(el)   - is the total energy from the electronic structure calculation
              = E(kin-el) + E(nuc-el) + E(el-el) + E(nuc-nuc)
    E(ZPE)  - the the zero temperature vibrational energy from the frequency calculation
    E(vib)  - the the finite temperature correction to E(ZPE) due to population
              of excietd vibrational states
    E(rot)  - is the rotational thermal energy
    E(trans)- is the translational thermal energy

Summary of contributions to the inner energy U:
Electronic energy                ...   -327.23789671 Eh
Zero point energy                ...      0.17322660 Eh     108.70 kcal/mol
Thermal vibrational correction   ...      0.00610819 Eh       3.83 kcal/mol
Thermal rotational correction    ...      0.00141627 Eh       0.89 kcal/mol
Thermal translational correction ...      0.00141627 Eh       0.89 kcal/mol
-----------------------------------------------------------------------
Total thermal energy                   -327.05572937 Eh

Summary of corrections to the electronic energy:
(perhaps to be used in another calculation)
Total thermal correction                  0.00894074 Eh       5.61 kcal/mol
Non-thermal (ZPE) correction              0.17322660 Eh     108.70 kcal/mol
-----------------------------------------------------------------------
Total correction                          0.18216733 Eh     114.31 kcal/mol

--------
ENTHALPY
--------

The enthalpy is H = U + kB*T
                kB is Boltzmann's constant
Total free energy                 ...   -327.05572937 Eh
Thermal Enthalpy correction       ...      0.00094421 Eh       0.59 kcal/mol
-----------------------------------------------------------------------
Total Enthalpy                    ...   -327.05478517 Eh

-------
ENTROPY
-------

The entropy contributions are T*S = T*(S(el)+S(vib)+S(rot)+S(trans)
     S(el)   - electronic entropy
     S(vib)  - vibrational entropy
     S(rot)  - rotational entropy
     S(trans)- translational entropy
The entropies will be listed as mutliplied by the temperature to get
units of energy

Electronic entropy                ...      0.00000000 Eh      0.00 kcal/mol
Vibrational entropy               ...      0.01225481 Eh      7.69 kcal/mol
Rotational entropy                ...      0.01224614 Eh      7.68 kcal/mol
Translational entropy             ...      0.01890147 Eh     11.86 kcal/mol
-----------------------------------------------------------------------
Final entropy term                ...      0.04340242 Eh     27.24 kcal/mol

CAUTION: The rotational entropy is not quite correctly treated here
         because it includes a symmetry number that is not yet correctly
         implemented in ORCA!
For a nonlinear molecule the correct rotational entropy is:
    S(rot) = R*(ln(qrot/sn)+1.5)
    R    = 8.31441 J/mol/K = 1.987191683e-3 kcal/mol/K
    qrot = 287430.1971736
    sn is the rotational symmetry number. We have assumed 3 here
       if it is different for your molecule then you should correct
       the printed rotational entropy by manually evaluating the equation
       as given above

For convenience we print out the resulting values for sn=1 - 12:
 sn= 1  qrot/sn=  287430.1972 T*S(rot)=     8.34 kcal/mol T*S(tot)=    27.89 kcal/mol
 sn= 2  qrot/sn=  143715.0986 T*S(rot)=     7.92 kcal/mol T*S(tot)=    27.48 kcal/mol
 sn= 3  qrot/sn=   95810.0657 T*S(rot)=     7.68 kcal/mol T*S(tot)=    27.24 kcal/mol
 sn= 4  qrot/sn=   71857.5493 T*S(rot)=     7.51 kcal/mol T*S(tot)=    27.06 kcal/mol
 sn= 5  qrot/sn=   57486.0394 T*S(rot)=     7.38 kcal/mol T*S(tot)=    26.93 kcal/mol
 sn= 6  qrot/sn=   47905.0329 T*S(rot)=     7.27 kcal/mol T*S(tot)=    26.82 kcal/mol
 sn= 7  qrot/sn=   41061.4567 T*S(rot)=     7.18 kcal/mol T*S(tot)=    26.73 kcal/mol
 sn= 8  qrot/sn=   35928.7746 T*S(rot)=     7.10 kcal/mol T*S(tot)=    26.65 kcal/mol
 sn= 9  qrot/sn=   31936.6886 T*S(rot)=     7.03 kcal/mol T*S(tot)=    26.58 kcal/mol
 sn=10  qrot/sn=   28743.0197 T*S(rot)=     6.97 kcal/mol T*S(tot)=    26.52 kcal/mol
 sn=11  qrot/sn=   26130.0179 T*S(rot)=     6.91 kcal/mol T*S(tot)=    26.47 kcal/mol
 sn=12  qrot/sn=   23952.5164 T*S(rot)=     6.86 kcal/mol T*S(tot)=    26.41 kcal/mol

-------------------
GIBBS FREE ENTHALPY
-------------------

The Gibbs free enthalpy is G = H - T*S

Total enthalpy                    ...   -327.05478517 Eh
Total entropy correction          ...     -0.04340242 Eh    -27.24 kcal/mol
-----------------------------------------------------------------------
Final Gibbs free enthalpy         ...   -327.09818759 Eh

For completeness - the Gibbs free enthalpy minus the electronic energy
G-E(el)                           ...      0.13970912 Eh     87.67 kcal/mol

                             ****ORCA TERMINATED NORMALLY****
TOTAL RUN TIME: 0 days 0 hours 47 minutes 46 seconds 179 msec
