                         Program Version 3.0.3 - RELEASE   -
|  1> ! NORI PBE0 def2-TZVP UseSym TightOPT Freq TightSCF Grid3 FinalGrid5 XYZFile
|  2> % pal
|  3>     nprocs 8
|  4> end
|  5> %method
|  6>     SymThresh 5.0e-2
|  7> end
|  8> % geom
|  9>     MaxIter 10
| 10> end
| 11> % maxcore 2000
| 12> % output
| 13>     printlevel mini
| 14>     print[ P_Basis ] 0
| 15>     print[ P_SCFInfo ] 1
| 16>     print[ P_SCFIterInfo ] 1
| 17>     print[ P_OrbEn ] 0
| 18>     print[ P_Cartesian ] 0
| 19> end
| 20> % elprop
| 21>     Dipole false
| 22> end
| 23> *xyz 1 1
| 24>  C        0.9796117093     0.0355229678    -0.1216378673
| 25>  C        2.4864212408     0.0376881287    -0.1795353111
| 26>  N        3.0564734151    -1.1661244430     0.5155479959
| 27>  C        4.5496616846    -1.2359567311     0.5108026054
| 28>  C        5.0623345705    -2.4653996971     1.2260624510
| 29>  C        6.5773304393    -2.4795285231     1.2018954777
| 30>  O        7.2139703328    -1.6139847880     0.6755126938
| 31>  H        0.6036423205     0.9226826431    -0.6324689990
| 32>  H        0.6099080527     0.0712062575     0.9058358151
| 33>  H        0.5515415950    -0.8350514824    -0.6243086833
| 34>  H        2.9176435065     0.9088336680     0.3153583192
| 35>  H        2.8617449654     0.0061212331    -1.2028691385
| 36>  H        2.6734035598    -2.0078137789     0.0793545234
| 37>  H        2.7170363000    -1.1778719451     1.4798792975
| 38>  H        4.9168604173    -0.3231133262     0.9796757061
| 39>  H        4.8699162629    -1.2202810420    -0.5309281186
| 40>  H        4.7103086313    -3.3954420359     0.7625924697
| 41>  H        4.7432561775    -2.5012722514     2.2750048922
| 42>  H        7.0545848188    -3.3413948540     1.7033558710
| 43> *
| 44>
| 45>                          ****END OF INPUT****
 Total Charge           Charge          ....    1
 Multiplicity           Mult            ....    1
 Number of Electrons    NEL             ....   56
FINAL SINGLE POINT ENERGY      -327.219529348487

CARTESIAN COORDINATES (ANGSTROEM)
---------------------------------
  C     -1.029806    0.009353   -3.424745
  C     -1.249211    0.028046   -1.932814
  N      0.058017   -0.001247   -1.192855
  C     -0.071713    0.008410    0.296533
  C      1.274875   -0.023915    0.983305
  C      1.084474   -0.023118    2.486604
  O     -0.000311    0.002680    2.990684
  H     -1.998287    0.029544   -3.925701
  H     -0.513881   -0.896906   -3.750958
  H     -0.468157    0.881765   -3.767167
  H     -1.815244   -0.837974   -1.587427
  H     -1.767737    0.928738   -1.601824
  H      0.621351    0.797851   -1.492053
  H      0.580479   -0.830224   -1.484918
  H     -0.678358   -0.853813    0.573279
  H     -0.633036    0.903178    0.565538
  H      1.897249    0.841340    0.723041
  H      1.856871   -0.915742    0.719160
  H      2.013322   -0.044959    3.085637

FINAL SINGLE POINT ENERGY      -327.219529821085
                    ***********************HURRAY********************
 Multiplicity           Mult            ....    1
 Number of Electrons    NEL             ....   56
 Basis Dimension        Dim             ....  289
FINAL SINGLE POINT ENERGY      -327.219530362170

VIBRATIONAL FREQUENCIES
-----------------------

   0:         0.00 cm**-1
   1:         0.00 cm**-1
   2:         0.00 cm**-1
   3:         0.00 cm**-1
   4:         0.00 cm**-1
   5:         0.00 cm**-1
   6:        47.74 cm**-1
   7:        90.86 cm**-1
   8:       112.31 cm**-1
   9:       119.21 cm**-1
  10:       197.15 cm**-1
  11:       224.57 cm**-1
  12:       251.87 cm**-1
  13:       369.72 cm**-1
  14:       418.52 cm**-1
  15:       689.70 cm**-1
  16:       696.58 cm**-1
  17:       779.44 cm**-1
  18:       822.82 cm**-1
  19:       878.68 cm**-1
  20:       913.16 cm**-1
  21:       915.35 cm**-1
  22:      1017.28 cm**-1
  23:      1046.89 cm**-1
  24:      1051.50 cm**-1
  25:      1076.17 cm**-1
  26:      1147.51 cm**-1
  27:      1161.30 cm**-1
  28:      1245.39 cm**-1
  29:      1292.01 cm**-1
  30:      1301.61 cm**-1
  31:      1360.10 cm**-1
  32:      1361.29 cm**-1
  33:      1396.90 cm**-1
  34:      1401.47 cm**-1
  35:      1411.96 cm**-1
  36:      1426.55 cm**-1
  37:      1428.74 cm**-1
  38:      1463.09 cm**-1
  39:      1481.22 cm**-1
  40:      1488.26 cm**-1
  41:      1488.95 cm**-1
  42:      1506.91 cm**-1
  43:      1655.38 cm**-1
  44:      1845.32 cm**-1
  45:      2981.08 cm**-1
  46:      3037.44 cm**-1
  47:      3058.72 cm**-1
  48:      3078.60 cm**-1
  49:      3097.91 cm**-1
  50:      3112.22 cm**-1
  51:      3128.87 cm**-1
  52:      3153.87 cm**-1
  53:      3159.32 cm**-1
  54:      3167.52 cm**-1
  55:      3432.98 cm**-1
  56:      3483.43 cm**-1

IR SPECTRUM
-----------

 Mode    freq (cm**-1)   T**2         TX         TY         TZ
-------------------------------------------------------------------
   6:        47.74    3.134007  ( -0.042890  -1.769791   0.002953)
   7:        90.86    0.083426  (  0.059081   0.281177   0.029579)
   8:       112.31    6.657235  ( -2.140643   0.015378  -1.440363)
   9:       119.21    1.714028  (  0.021976  -1.308132   0.048338)
  10:       197.15    6.129659  ( -0.056695  -2.474979   0.030356)
  11:       224.57    9.013903  ( -0.150550   0.031970   2.998369)
  12:       251.87    0.920073  (  0.025329   0.958586  -0.023320)
  13:       369.72    1.229502  ( -0.943672   0.018399  -0.581933)
  14:       418.52   17.188837  ( -1.043285   0.012131  -4.012511)
  15:       689.70    7.188550  (  0.065550   2.680264  -0.020946)
  16:       696.58    5.523554  ( -0.458541  -0.013058  -2.305021)
  17:       779.44   12.817475  ( -0.094610  -3.578843   0.020251)
  18:       822.82    0.063549  (  0.006469   0.251677  -0.012891)
  19:       878.68   20.122175  ( -0.277345  -0.004881  -4.477190)
  20:       913.16    0.395641  ( -0.035980  -0.600326  -0.184271)
  21:       915.35   27.608420  (  0.611593  -0.024780   5.218598)
  22:      1017.28   17.720049  ( -2.142569   0.029021  -3.623342)
  23:      1046.89   13.884453  ( -2.986938   0.073030  -2.226504)
  24:      1051.50    0.405174  ( -0.040967  -0.635181  -0.006402)
  25:      1076.17    2.526150  (  0.969718  -0.026340  -1.259009)
  26:      1147.51   22.092152  ( -2.820585   0.068073  -3.759231)
  27:      1161.30    0.010678  (  0.012147   0.096509   0.034873)
  28:      1245.39    0.802798  (  0.022895   0.895554  -0.016060)
  29:      1292.01   58.617308  (  1.252982  -0.008068   7.552965)
  30:      1301.61    0.022774  (  0.005232  -0.096764   0.115688)
  31:      1360.10    7.634560  ( -0.979820  -0.343389   2.560585)
  32:      1361.29    7.708199  ( -0.064170   2.757455   0.317056)
  33:      1396.90    1.890194  ( -0.023343   1.368040  -0.134595)
  34:      1401.47   40.724909  ( -2.951893   0.039277  -5.657711)
  35:      1411.96   19.092994  (  2.050199  -0.051297  -3.858374)
  36:      1426.55   70.315141  (  3.444132  -0.033780   7.645388)
  37:      1428.74    4.285413  (  0.564561  -0.015769   1.991591)
  38:      1463.09    5.360422  ( -2.029354   0.048340   1.113466)
  39:      1481.22    6.873079  (  2.485741  -0.055159   0.831342)
  40:      1488.26    1.466217  ( -0.839174  -0.057154   0.871055)
  41:      1488.95   16.061909  ( -0.078591  -4.006951   0.008687)
  42:      1506.91   18.800789  (  3.389062  -0.102152  -2.702704)
  43:      1655.38   40.321541  ( -5.584549   0.158193   3.018166)
  44:      1845.32  139.416106  ( -8.672069   0.200454   8.010689)
  45:      2981.08   48.447024  ( -5.511847   0.114021  -4.248949)
  46:      3037.44    3.430840  (  1.714071  -0.078366   0.697609)
  47:      3058.72    3.445142  (  1.835849  -0.079328  -0.261736)
  48:      3078.60    0.856680  ( -0.076102  -0.922249  -0.018582)
  49:      3097.91    2.822669  (  0.501895  -0.020300  -1.603234)
  50:      3112.22    1.137693  ( -0.538771   0.004733  -0.920541)
  51:      3128.87    3.146693  (  0.045292   1.773017   0.032452)
  52:      3153.87    0.768471  ( -0.302377   0.084029   0.818522)
  53:      3159.32    1.926854  ( -0.074726  -1.381775   0.109400)
  54:      3167.52    0.000399  ( -0.000377   0.018017   0.008628)
  55:      3432.98   29.599385  ( -4.620451   0.270223   2.859685)
  56:      3483.43   55.446869  (  0.286407   7.440235  -0.088024)

--------------------------
THERMOCHEMISTRY AT 298.15K
--------------------------

Temperature         ... 298.15 K
Pressure            ... 1.00 atm
Total Mass          ... 102.16 AMU

Throughout the following assumptions are being made:
  (1) The electronic state is orbitally nondegenerate
  (2) There are no thermally accessible electronically excited states
  (3) Hindered rotations indicated by low frequency modes) are not
      treated as such but are treated as vibrations and this may
      case some error
  (4) All equations used are the standard statistical mechanics
      equations for an ideal gas
  (5) All vibrations are strinctly harmonic

------------
INNER ENERGY
------------

The inner energy is: U= E(el) + E(ZPE) + E(vib) + E(rot) + E(trans)
    E(el)   - is the total energy from the electronic structure calculation
              = E(kin-el) + E(nuc-el) + E(el-el) + E(nuc-nuc)
    E(ZPE)  - the the zero temperature vibrational energy from the frequency calculation
    E(vib)  - the the finite temperature correction to E(ZPE) due to population
              of excietd vibrational states
    E(rot)  - is the rotational thermal energy
    E(trans)- is the translational thermal energy

Summary of contributions to the inner energy U:
Electronic energy                ...   -327.21953036 Eh
Zero point energy                ...      0.17422382 Eh     109.33 kcal/mol
Thermal vibrational correction   ...      0.00603658 Eh       3.79 kcal/mol
Thermal rotational correction    ...      0.00141627 Eh       0.89 kcal/mol
Thermal translational correction ...      0.00141627 Eh       0.89 kcal/mol
-----------------------------------------------------------------------
Total thermal energy                   -327.03643742 Eh

Summary of corrections to the electronic energy:
(perhaps to be used in another calculation)
Total thermal correction                  0.00886912 Eh       5.57 kcal/mol
Non-thermal (ZPE) correction              0.17422382 Eh     109.33 kcal/mol
-----------------------------------------------------------------------
Total correction                          0.18309294 Eh     114.89 kcal/mol

--------
ENTHALPY
--------

The enthalpy is H = U + kB*T
                kB is Boltzmann's constant
Total free energy                 ...   -327.03643742 Eh
Thermal Enthalpy correction       ...      0.00094421 Eh       0.59 kcal/mol
-----------------------------------------------------------------------
Total Enthalpy                    ...   -327.03549321 Eh

-------
ENTROPY
-------

The entropy contributions are T*S = T*(S(el)+S(vib)+S(rot)+S(trans)
     S(el)   - electronic entropy
     S(vib)  - vibrational entropy
     S(rot)  - rotational entropy
     S(trans)- translational entropy
The entropies will be listed as mutliplied by the temperature to get
units of energy

Electronic entropy                ...      0.00000000 Eh      0.00 kcal/mol
Vibrational entropy               ...      0.01179563 Eh      7.40 kcal/mol
Rotational entropy                ...      0.01233750 Eh      7.74 kcal/mol
Translational entropy             ...      0.01890147 Eh     11.86 kcal/mol
-----------------------------------------------------------------------
Final entropy term                ...      0.04303459 Eh     27.00 kcal/mol

CAUTION: The rotational entropy is not quite correctly treated here
         because it includes a symmetry number that is not yet correctly
         implemented in ORCA!
For a nonlinear molecule the correct rotational entropy is:
    S(rot) = R*(ln(qrot/sn)+1.5)
    R    = 8.31441 J/mol/K = 1.987191683e-3 kcal/mol/K
    qrot = 316629.9253458
    sn is the rotational symmetry number. We have assumed 3 here
       if it is different for your molecule then you should correct
       the printed rotational entropy by manually evaluating the equation
       as given above

For convenience we print out the resulting values for sn=1 - 12:
 sn= 1  qrot/sn=  316629.9253 T*S(rot)=     8.39 kcal/mol T*S(tot)=    27.66 kcal/mol
 sn= 2  qrot/sn=  158314.9627 T*S(rot)=     7.98 kcal/mol T*S(tot)=    27.24 kcal/mol
 sn= 3  qrot/sn=  105543.3084 T*S(rot)=     7.74 kcal/mol T*S(tot)=    27.00 kcal/mol
 sn= 4  qrot/sn=   79157.4813 T*S(rot)=     7.57 kcal/mol T*S(tot)=    26.83 kcal/mol
 sn= 5  qrot/sn=   63325.9851 T*S(rot)=     7.44 kcal/mol T*S(tot)=    26.70 kcal/mol
 sn= 6  qrot/sn=   52771.6542 T*S(rot)=     7.33 kcal/mol T*S(tot)=    26.59 kcal/mol
 sn= 7  qrot/sn=   45232.8465 T*S(rot)=     7.24 kcal/mol T*S(tot)=    26.50 kcal/mol
 sn= 8  qrot/sn=   39578.7407 T*S(rot)=     7.16 kcal/mol T*S(tot)=    26.42 kcal/mol
 sn= 9  qrot/sn=   35181.1028 T*S(rot)=     7.09 kcal/mol T*S(tot)=    26.35 kcal/mol
 sn=10  qrot/sn=   31662.9925 T*S(rot)=     7.03 kcal/mol T*S(tot)=    26.29 kcal/mol
 sn=11  qrot/sn=   28784.5387 T*S(rot)=     6.97 kcal/mol T*S(tot)=    26.23 kcal/mol
 sn=12  qrot/sn=   26385.8271 T*S(rot)=     6.92 kcal/mol T*S(tot)=    26.18 kcal/mol

-------------------
GIBBS FREE ENTHALPY
-------------------

The Gibbs free enthalpy is G = H - T*S

Total enthalpy                    ...   -327.03549321 Eh
Total entropy correction          ...     -0.04303459 Eh    -27.00 kcal/mol
-----------------------------------------------------------------------
Final Gibbs free enthalpy         ...   -327.07852780 Eh

For completeness - the Gibbs free enthalpy minus the electronic energy
G-E(el)                           ...      0.14100256 Eh     88.48 kcal/mol

                             ****ORCA TERMINATED NORMALLY****
TOTAL RUN TIME: 0 days 0 hours 42 minutes 54 seconds 833 msec
