                         Program Version 3.0.3 - RELEASE   -
|  1> ! NORI PBE0 def2-TZVP UseSym TightOPT Freq TightSCF Grid3 FinalGrid5 XYZFile
|  2> % pal
|  3>     nprocs 8
|  4> end
|  5> %method
|  6>     SymThresh 5.0e-2
|  7> end
|  8> % geom
|  9>     MaxIter 10
| 10> end
| 11> % maxcore 2000
| 12> % output
| 13>     printlevel mini
| 14>     print[ P_Basis ] 0
| 15>     print[ P_SCFInfo ] 1
| 16>     print[ P_SCFIterInfo ] 1
| 17>     print[ P_OrbEn ] 0
| 18>     print[ P_Cartesian ] 0
| 19> end
| 20> % elprop
| 21>     Dipole false
| 22> end
| 23> *xyz 1 1
| 24>  C        1.0073587355     0.0548383329     0.5306451163
| 25>  C        2.4662800276     0.0789261193     0.1277846146
| 26>  N        3.1352919526    -1.1927559348     0.6014360892
| 27>  C        2.6454282659     0.0677703756    -1.3919243520
| 28>  O        2.2783652267    -1.2269191492    -1.8181729065
| 29>  C        3.2268628293     1.2343808887     0.7653911280
| 30>  O        4.5982965296     0.9414721979     0.6216186852
| 31>  H        0.4740061973    -0.7568557400     0.0339534894
| 32>  H        0.5350600568     0.9932535985     0.2353408722
| 33>  H        0.8899239204    -0.0462423483     1.6130089572
| 34>  H        2.9615940236    -1.9083622154    -0.1183202271
| 35>  H        2.7783203829    -1.5080148322     1.5020209177
| 36>  H        4.1428045738    -1.0034511233     0.6827850220
| 37>  H        1.9958817688     0.8389729079    -1.8182389647
| 38>  H        3.6843692723     0.2972785409    -1.6507782230
| 39>  H        2.4297386083    -1.3314179688    -2.7617338358
| 40>  H        2.9439051917     1.3324114807     1.8206912776
| 41>  H        2.9446785373     2.1602461004     0.2513932721
| 42>  H        5.1402238996     1.6316587691     1.0140990675
| 43> *
| 44>
| 45>                          ****END OF INPUT****
 Total Charge           Charge          ....    1
 Multiplicity           Mult            ....    1
 Number of Electrons    NEL             ....   58
FINAL SINGLE POINT ENERGY      -364.348090476946
FINAL SINGLE POINT ENERGY      -364.348091869460
FINAL SINGLE POINT ENERGY      -364.348092959964

CARTESIAN COORDINATES (ANGSTROEM)
---------------------------------
  C     -1.885051   -0.215298   -0.108007
  C     -0.378837   -0.067448   -0.154076
  N     -0.016347    1.392597    0.007192
  C      0.304829   -0.768021    1.022224
  O      0.000810    0.001093    2.165765
  C      0.211393   -0.518341   -1.484013
  O      1.521330   -0.000523   -1.539583
  H     -2.278823    0.069630    0.868814
  H     -2.152007   -1.258648   -0.283604
  H     -2.372613    0.383741   -0.881407
  H      0.005429    1.586727    1.018037
  H     -0.681252    2.012220   -0.453456
  H      0.916420    1.529483   -0.403457
  H     -0.096257   -1.784199    1.093070
  H      1.385407   -0.825245    0.851461
  H      0.447980   -0.349333    2.941193
  H     -0.404403   -0.146539   -2.312321
  H      0.197469   -1.613607   -1.515503
  H      1.951908   -0.242248   -2.364344

FINAL SINGLE POINT ENERGY      -364.348093426921
                    ***********************HURRAY********************
 Multiplicity           Mult            ....    1
 Number of Electrons    NEL             ....   58
 Basis Dimension        Dim             ....  289
FINAL SINGLE POINT ENERGY      -364.348093691166

VIBRATIONAL FREQUENCIES
-----------------------

   0:         0.00 cm**-1
   1:         0.00 cm**-1
   2:         0.00 cm**-1
   3:         0.00 cm**-1
   4:         0.00 cm**-1
   5:         0.00 cm**-1
   6:       132.17 cm**-1
   7:       148.91 cm**-1
   8:       229.17 cm**-1
   9:       258.57 cm**-1
  10:       277.05 cm**-1
  11:       284.40 cm**-1
  12:       304.22 cm**-1
  13:       314.38 cm**-1
  14:       359.74 cm**-1
  15:       368.75 cm**-1
  16:       403.93 cm**-1
  17:       498.88 cm**-1
  18:       603.36 cm**-1
  19:       747.85 cm**-1
  20:       885.59 cm**-1
  21:       926.07 cm**-1
  22:       963.92 cm**-1
  23:       973.85 cm**-1
  24:      1020.59 cm**-1
  25:      1055.67 cm**-1
  26:      1111.39 cm**-1
  27:      1116.54 cm**-1
  28:      1156.69 cm**-1
  29:      1205.44 cm**-1
  30:      1218.26 cm**-1
  31:      1238.87 cm**-1
  32:      1288.07 cm**-1
  33:      1326.18 cm**-1
  34:      1352.25 cm**-1
  35:      1416.22 cm**-1
  36:      1427.00 cm**-1
  37:      1440.76 cm**-1
  38:      1473.60 cm**-1
  39:      1484.93 cm**-1
  40:      1494.45 cm**-1
  41:      1514.82 cm**-1
  42:      1520.06 cm**-1
  43:      1633.64 cm**-1
  44:      1662.36 cm**-1
  45:      3031.10 cm**-1
  46:      3046.30 cm**-1
  47:      3060.88 cm**-1
  48:      3080.82 cm**-1
  49:      3097.50 cm**-1
  50:      3139.83 cm**-1
  51:      3155.40 cm**-1
  52:      3329.23 cm**-1
  53:      3393.60 cm**-1
  54:      3524.35 cm**-1
  55:      3868.68 cm**-1
  56:      3869.61 cm**-1

IR SPECTRUM
-----------

 Mode    freq (cm**-1)   T**2         TX         TY         TZ
-------------------------------------------------------------------
   6:       132.17    3.106905  (  1.703882   0.246605   0.377992)
   7:       148.91   17.374528  ( -0.589372   3.910724  -1.316590)
   8:       229.17    7.145362  (  2.074456  -0.662685  -1.550111)
   9:       258.57   11.043284  ( -2.538778   1.644362   1.376213)
  10:       277.05   19.736735  (  2.677331   3.528706  -0.341861)
  11:       284.40   82.704937  ( -0.464558  -7.162638   5.584419)
  12:       304.22   86.116102  (  8.510746  -2.444349   2.776410)
  13:       314.38   58.854452  ( -4.280010  -5.338330   3.469612)
  14:       359.74   29.598545  (  2.916611  -1.124667  -4.452757)
  15:       368.75    9.980775  (  1.288525  -2.120140   1.955884)
  16:       403.93    7.862904  (  1.073789   2.538345   0.516415)
  17:       498.88    9.312547  ( -0.942356  -2.681286  -1.111402)
  18:       603.36   12.573349  (  2.723669  -0.022937  -2.270341)
  19:       747.85    4.833340  (  0.595741   1.768843   1.161735)
  20:       885.59   11.124378  ( -0.354875  -1.755625  -2.813578)
  21:       926.07   18.420204  ( -1.855708  -1.012415   3.735180)
  22:       963.92    3.262421  ( -0.855886   0.257588   1.569563)
  23:       973.85   14.022831  (  2.876442  -0.233477  -2.386294)
  24:      1020.59   29.861022  (  0.342360   1.456447  -5.255718)
  25:      1055.67   33.534910  ( -4.976959  -2.959802  -0.066054)
  26:      1111.39   56.223730  ( -2.995018  -4.387626  -5.291723)
  27:      1116.54   77.159437  ( -7.147845   0.232672   5.100354)
  28:      1156.69   39.304175  ( -2.677714  -4.558270  -3.369895)
  29:      1205.44   66.148951  (  5.057775  -4.388500  -4.616160)
  30:      1218.26   25.234480  (  4.289747   1.531177   2.118502)
  31:      1238.87   12.544130  ( -3.266193  -1.359839  -0.164174)
  32:      1288.07    0.936103  (  0.059689   0.537973   0.801951)
  33:      1326.18    8.181138  (  0.332492   0.630180  -2.770101)
  34:      1352.25    0.257338  ( -0.047400  -0.264345  -0.430364)
  35:      1416.22   57.080239  ( -4.314618  -6.153530  -0.773551)
  36:      1427.00   92.446049  (  0.605046   9.593529  -0.210147)
  37:      1440.76    5.292590  (  1.726309  -0.365856  -1.476007)
  38:      1473.60   96.487022  (  0.483931   9.637274   1.837328)
  39:      1484.93   18.631888  (  0.426142   4.089230   1.314721)
  40:      1494.45    9.304481  ( -0.221577   2.683084  -1.434031)
  41:      1514.82    9.178327  ( -0.727682   1.113071   2.722109)
  42:      1520.06    8.940202  ( -1.102907   1.881765  -2.045179)
  43:      1633.64   21.472388  ( -4.460940   1.198051   0.370240)
  44:      1662.36   34.116428  ( -1.893333   1.932023  -5.176776)
  45:      3031.10   18.430696  ( -3.801162  -0.793990  -1.830696)
  46:      3046.30   12.885950  (  1.557113  -2.580255  -1.950290)
  47:      3060.88    3.284092  ( -0.847677   0.860963  -1.350659)
  48:      3080.82    8.971277  (  0.597720  -2.462291   1.597225)
  49:      3097.50    7.876940  ( -2.389809  -1.418963  -0.390251)
  50:      3139.83    3.843938  ( -0.589119   1.336152  -1.308271)
  51:      3155.40    0.561767  ( -0.299755   0.414615   0.547730)
  52:      3329.23   61.538513  ( -5.033675  -1.165985  -5.902635)
  53:      3393.60  206.177080  ( -6.902434  -0.424725  12.583843)
  54:      3524.35   85.432662  ( -6.509609   5.500242  -3.578407)
  55:      3868.68  197.221896  ( -2.896824  -0.323266  13.737751)
  56:      3869.61   72.421494  ( -7.796775   2.718272  -2.059804)

--------------------------
THERMOCHEMISTRY AT 298.15K
--------------------------

Temperature         ... 298.15 K
Pressure            ... 1.00 atm
Total Mass          ... 106.14 AMU

Throughout the following assumptions are being made:
  (1) The electronic state is orbitally nondegenerate
  (2) There are no thermally accessible electronically excited states
  (3) Hindered rotations indicated by low frequency modes) are not
      treated as such but are treated as vibrations and this may
      case some error
  (4) All equations used are the standard statistical mechanics
      equations for an ideal gas
  (5) All vibrations are strinctly harmonic

------------
INNER ENERGY
------------

The inner energy is: U= E(el) + E(ZPE) + E(vib) + E(rot) + E(trans)
    E(el)   - is the total energy from the electronic structure calculation
              = E(kin-el) + E(nuc-el) + E(el-el) + E(nuc-nuc)
    E(ZPE)  - the the zero temperature vibrational energy from the frequency calculation
    E(vib)  - the the finite temperature correction to E(ZPE) due to population
              of excietd vibrational states
    E(rot)  - is the rotational thermal energy
    E(trans)- is the translational thermal energy

Summary of contributions to the inner energy U:
Electronic energy                ...   -364.34809369 Eh
Zero point energy                ...      0.17413385 Eh     109.27 kcal/mol
Thermal vibrational correction   ...      0.00594065 Eh       3.73 kcal/mol
Thermal rotational correction    ...      0.00141627 Eh       0.89 kcal/mol
Thermal translational correction ...      0.00141627 Eh       0.89 kcal/mol
-----------------------------------------------------------------------
Total thermal energy                   -364.16518665 Eh

Summary of corrections to the electronic energy:
(perhaps to be used in another calculation)
Total thermal correction                  0.00877319 Eh       5.51 kcal/mol
Non-thermal (ZPE) correction              0.17413385 Eh     109.27 kcal/mol
-----------------------------------------------------------------------
Total correction                          0.18290704 Eh     114.78 kcal/mol

--------
ENTHALPY
--------

The enthalpy is H = U + kB*T
                kB is Boltzmann's constant
Total free energy                 ...   -364.16518665 Eh
Thermal Enthalpy correction       ...      0.00094421 Eh       0.59 kcal/mol
-----------------------------------------------------------------------
Total Enthalpy                    ...   -364.16424244 Eh

-------
ENTROPY
-------

The entropy contributions are T*S = T*(S(el)+S(vib)+S(rot)+S(trans)
     S(el)   - electronic entropy
     S(vib)  - vibrational entropy
     S(rot)  - rotational entropy
     S(trans)- translational entropy
The entropies will be listed as mutliplied by the temperature to get
units of energy

Electronic entropy                ...      0.00000000 Eh      0.00 kcal/mol
Vibrational entropy               ...      0.00978204 Eh      6.14 kcal/mol
Rotational entropy                ...      0.01210484 Eh      7.60 kcal/mol
Translational entropy             ...      0.01895570 Eh     11.89 kcal/mol
-----------------------------------------------------------------------
Final entropy term                ...      0.04084259 Eh     25.63 kcal/mol

CAUTION: The rotational entropy is not quite correctly treated here
         because it includes a symmetry number that is not yet correctly
         implemented in ORCA!
For a nonlinear molecule the correct rotational entropy is:
    S(rot) = R*(ln(qrot/sn)+1.5)
    R    = 8.31441 J/mol/K = 1.987191683e-3 kcal/mol/K
    qrot = 247478.9945617
    sn is the rotational symmetry number. We have assumed 3 here
       if it is different for your molecule then you should correct
       the printed rotational entropy by manually evaluating the equation
       as given above

For convenience we print out the resulting values for sn=1 - 12:
 sn= 1  qrot/sn=  247478.9946 T*S(rot)=     8.25 kcal/mol T*S(tot)=    26.28 kcal/mol
 sn= 2  qrot/sn=  123739.4973 T*S(rot)=     7.84 kcal/mol T*S(tot)=    25.87 kcal/mol
 sn= 3  qrot/sn=   82492.9982 T*S(rot)=     7.60 kcal/mol T*S(tot)=    25.63 kcal/mol
 sn= 4  qrot/sn=   61869.7486 T*S(rot)=     7.43 kcal/mol T*S(tot)=    25.46 kcal/mol
 sn= 5  qrot/sn=   49495.7989 T*S(rot)=     7.29 kcal/mol T*S(tot)=    25.33 kcal/mol
 sn= 6  qrot/sn=   41246.4991 T*S(rot)=     7.19 kcal/mol T*S(tot)=    25.22 kcal/mol
 sn= 7  qrot/sn=   35354.1421 T*S(rot)=     7.09 kcal/mol T*S(tot)=    25.13 kcal/mol
 sn= 8  qrot/sn=   30934.8743 T*S(rot)=     7.01 kcal/mol T*S(tot)=    25.05 kcal/mol
 sn= 9  qrot/sn=   27497.6661 T*S(rot)=     6.94 kcal/mol T*S(tot)=    24.98 kcal/mol
 sn=10  qrot/sn=   24747.8995 T*S(rot)=     6.88 kcal/mol T*S(tot)=    24.92 kcal/mol
 sn=11  qrot/sn=   22498.0904 T*S(rot)=     6.83 kcal/mol T*S(tot)=    24.86 kcal/mol
 sn=12  qrot/sn=   20623.2495 T*S(rot)=     6.77 kcal/mol T*S(tot)=    24.81 kcal/mol

-------------------
GIBBS FREE ENTHALPY
-------------------

The Gibbs free enthalpy is G = H - T*S

Total enthalpy                    ...   -364.16424244 Eh
Total entropy correction          ...     -0.04084259 Eh    -25.63 kcal/mol
-----------------------------------------------------------------------
Final Gibbs free enthalpy         ...   -364.20508503 Eh

For completeness - the Gibbs free enthalpy minus the electronic energy
G-E(el)                           ...      0.14300866 Eh     89.74 kcal/mol

                             ****ORCA TERMINATED NORMALLY****
TOTAL RUN TIME: 0 days 0 hours 57 minutes 18 seconds 256 msec
