                         Program Version 3.0.3 - RELEASE   -
|  1> ! NORI PBE0 def2-TZVP UseSym TightOPT Freq TightSCF Grid3 FinalGrid5 XYZFile
|  2> % pal
|  3>     nprocs 8
|  4> end
|  5> %method
|  6>     SymThresh 5.0e-2
|  7> end
|  8> % geom
|  9>     MaxIter 10
| 10> end
| 11> % maxcore 2000
| 12> % output
| 13>     printlevel mini
| 14>     print[ P_Basis ] 0
| 15>     print[ P_SCFInfo ] 1
| 16>     print[ P_SCFIterInfo ] 1
| 17>     print[ P_OrbEn ] 0
| 18>     print[ P_Cartesian ] 0
| 19> end
| 20> % elprop
| 21>     Dipole false
| 22> end
| 23> *xyz 1 1
| 24>  C        1.5051510904     0.8537484075     1.1037850230
| 25>  C        2.5382658726     0.1033153910     0.2939063156
| 26>  N        3.1128093903    -1.0044147024     1.1482286849
| 27>  C        2.0097337323    -0.6204290926    -0.9513576731
| 28>  O        1.2401976866    -1.7365997379    -0.5323987798
| 29>  C        1.2770168755     0.2908407127    -1.9227953349
| 30>  O        1.1945254861    -0.2614212519    -3.1994379187
| 31>  H        1.1020381711     1.6765102471     0.5127900617
| 32>  H        1.9435224470     1.2936337666     2.0026005595
| 33>  H        0.6739786066     0.2117025999     1.4054002702
| 34>  H        3.3690210268     0.7579157160     0.0227377030
| 35>  H        2.4260226770    -1.7743628546     1.1011347245
| 36>  H        3.2531023741    -0.7205969344     2.1179465707
| 37>  H        3.9991557810    -1.3530806331     0.7803259478
| 38>  H        2.8614851825    -1.0422268226    -1.4972787905
| 39>  H        0.3109510311    -1.4925506935    -0.4583739752
| 40>  H        0.2869850526     0.5483438642    -1.5140857399
| 41>  H        1.8333844780     1.2272370786    -2.0261067623
| 42>  H        0.5795530385    -1.0003550606    -3.2099308863
| 43> *
| 44>
| 45>                          ****END OF INPUT****
 Total Charge           Charge          ....    1
 Multiplicity           Mult            ....    1
 Number of Electrons    NEL             ....   58
FINAL SINGLE POINT ENERGY      -364.332339130745
FINAL SINGLE POINT ENERGY      -364.332341334490
FINAL SINGLE POINT ENERGY      -364.332343097996

CARTESIAN COORDINATES (ANGSTROEM)
---------------------------------
  C     -1.496602   -1.155635   -0.944273
  C     -0.988746    0.246668   -0.694636
  N     -2.015554    0.992444    0.127171
  C      0.298815    0.347960    0.133696
  O     -0.000958    0.001700    1.476567
  C      1.463262   -0.436058   -0.449258
  O      2.689786   -0.002713    0.049993
  H     -0.783348   -1.700879   -1.562693
  H     -2.445663   -1.146822   -1.485500
  H     -1.635089   -1.711617   -0.013753
  H     -0.875437    0.793564   -1.632848
  H     -1.865462    0.684960    1.101531
  H     -2.972919    0.787887   -0.159815
  H     -1.874917    2.003406    0.093345
  H      0.610978    1.398408    0.166374
  H      0.159787   -0.936756    1.623776
  H      1.302382   -1.513832   -0.286895
  H      1.497090   -0.277575   -1.531573
  H      2.793915   -0.265817    0.968766

FINAL SINGLE POINT ENERGY      -364.332343396293
                    ***********************HURRAY********************
 Multiplicity           Mult            ....    1
 Number of Electrons    NEL             ....   58
 Basis Dimension        Dim             ....  289
FINAL SINGLE POINT ENERGY      -364.332343652450

VIBRATIONAL FREQUENCIES
-----------------------

   0:         0.00 cm**-1
   1:         0.00 cm**-1
   2:         0.00 cm**-1
   3:         0.00 cm**-1
   4:         0.00 cm**-1
   5:         0.00 cm**-1
   6:       103.32 cm**-1
   7:       117.48 cm**-1
   8:       186.97 cm**-1
   9:       238.09 cm**-1
  10:       244.53 cm**-1
  11:       260.35 cm**-1
  12:       291.04 cm**-1
  13:       331.61 cm**-1
  14:       356.04 cm**-1
  15:       413.18 cm**-1
  16:       443.33 cm**-1
  17:       491.78 cm**-1
  18:       649.78 cm**-1
  19:       831.11 cm**-1
  20:       874.15 cm**-1
  21:       915.95 cm**-1
  22:       959.35 cm**-1
  23:       974.03 cm**-1
  24:      1044.30 cm**-1
  25:      1073.81 cm**-1
  26:      1083.84 cm**-1
  27:      1135.84 cm**-1
  28:      1169.17 cm**-1
  29:      1186.31 cm**-1
  30:      1222.10 cm**-1
  31:      1299.70 cm**-1
  32:      1320.31 cm**-1
  33:      1363.43 cm**-1
  34:      1385.20 cm**-1
  35:      1398.38 cm**-1
  36:      1409.99 cm**-1
  37:      1424.26 cm**-1
  38:      1430.56 cm**-1
  39:      1471.77 cm**-1
  40:      1484.17 cm**-1
  41:      1488.95 cm**-1
  42:      1491.38 cm**-1
  43:      1638.12 cm**-1
  44:      1669.06 cm**-1
  45:      2988.30 cm**-1
  46:      3058.52 cm**-1
  47:      3061.03 cm**-1
  48:      3089.62 cm**-1
  49:      3111.53 cm**-1
  50:      3136.29 cm**-1
  51:      3157.22 cm**-1
  52:      3310.29 cm**-1
  53:      3472.60 cm**-1
  54:      3527.56 cm**-1
  55:      3827.50 cm**-1
  56:      3859.32 cm**-1

IR SPECTRUM
-----------

 Mode    freq (cm**-1)   T**2         TX         TY         TZ
-------------------------------------------------------------------
   6:       103.32    4.334018  ( -0.636226  -1.085004   1.658916)
   7:       117.48   13.099296  ( -3.119697   0.582740  -1.739885)
   8:       186.97    4.811845  ( -0.533348   1.047843   1.851867)
   9:       238.09   93.516754  (  7.534135  -6.039815   0.523646)
  10:       244.53   68.036727  ( -4.340552   6.999709   0.447667)
  11:       260.35    0.403936  (  0.493285   0.325575   0.233682)
  12:       291.04   28.861578  ( -4.495911  -0.258345  -2.929440)
  13:       331.61    7.191763  ( -0.563810   2.213684   1.404808)
  14:       356.04    7.102090  ( -0.867684  -1.934210  -1.614944)
  15:       413.18   84.085141  ( -8.331631  -2.451401  -2.942736)
  16:       443.33   10.625693  (  1.078465  -2.978915  -0.767248)
  17:       491.78    3.148033  ( -0.847457  -0.796606   1.339876)
  18:       649.78    1.806729  ( -0.235783   0.247066  -1.300036)
  19:       831.11    6.051709  (  2.083527  -1.230979  -0.441944)
  20:       874.15   19.212679  (  0.707946  -0.534699  -4.292504)
  21:       915.95    6.426337  ( -2.085841  -0.781234  -1.210487)
  22:       959.35   13.852269  (  1.181009  -3.520331   0.254469)
  23:       974.03   18.475057  (  4.239428   0.662405  -0.252050)
  24:      1044.30   70.600032  (  0.885106  -1.525633   8.215173)
  25:      1073.81    9.837292  (  1.191461   0.669862  -2.822941)
  26:      1083.84   71.316862  ( -8.172427  -0.194582   2.119067)
  27:      1135.84  127.138213  ( -9.069195  -2.378748  -6.263344)
  28:      1169.17   12.827894  (  2.224905   1.496399  -2.374549)
  29:      1186.31   12.184063  (  0.255078  -0.448404   3.452236)
  30:      1222.10   23.131636  ( -2.503835  -2.419118   3.318179)
  31:      1299.70   15.212053  (  3.454186   1.320026  -1.240236)
  32:      1320.31    4.709893  (  1.388698   0.556416  -1.572200)
  33:      1363.43    7.168408  ( -2.245354   0.905480  -1.143197)
  34:      1385.20    8.810882  ( -0.243046  -0.469076   2.920921)
  35:      1398.38    5.561585  ( -2.278398  -0.258283  -0.551160)
  36:      1409.99   20.550663  (  2.242379   1.478540  -3.651893)
  37:      1424.26   38.740232  ( -2.922176  -3.882884  -3.889001)
  38:      1430.56   35.050404  ( -4.160749   3.994193   1.336037)
  39:      1471.77  162.833222  (-10.098576   5.248698   5.770889)
  40:      1484.17    8.834341  (  1.758001  -1.779465  -1.605390)
  41:      1488.95    8.073983  ( -2.439649   0.573550  -1.339080)
  42:      1491.38   10.618012  ( -1.229644  -0.390208   2.992278)
  43:      1638.12   36.022215  (  0.411012  -5.321567   2.744851)
  44:      1669.06   43.580566  (  5.233284   1.726952   3.634686)
  45:      2988.30   34.419804  ( -3.657624  -4.515986  -0.804650)
  46:      3058.52    9.947993  (  1.019737   2.954936  -0.420101)
  47:      3061.03    1.793655  (  1.160302  -0.181298  -0.643805)
  48:      3089.62    9.452825  ( -1.198846   1.043244  -2.631964)
  49:      3111.53    1.707785  ( -0.568814  -0.958862   0.681776)
  50:      3136.29    5.381381  (  1.174409  -0.952781   1.759077)
  51:      3157.22    1.093513  (  0.657381   0.703148  -0.408589)
  52:      3310.29  100.408526  (  3.472291  -2.280099   9.118820)
  53:      3472.60  100.074578  (  6.157150  -6.927431   3.764940)
  54:      3527.56   81.907521  ( -6.370539  -6.200014  -1.698111)
  55:      3827.50   58.391277  (  1.920368  -6.370834   3.757119)
  56:      3859.32   64.262547  (  4.361415  -1.069771   6.640497)

--------------------------
THERMOCHEMISTRY AT 298.15K
--------------------------

Temperature         ... 298.15 K
Pressure            ... 1.00 atm
Total Mass          ... 106.14 AMU

Throughout the following assumptions are being made:
  (1) The electronic state is orbitally nondegenerate
  (2) There are no thermally accessible electronically excited states
  (3) Hindered rotations indicated by low frequency modes) are not
      treated as such but are treated as vibrations and this may
      case some error
  (4) All equations used are the standard statistical mechanics
      equations for an ideal gas
  (5) All vibrations are strinctly harmonic

------------
INNER ENERGY
------------

The inner energy is: U= E(el) + E(ZPE) + E(vib) + E(rot) + E(trans)
    E(el)   - is the total energy from the electronic structure calculation
              = E(kin-el) + E(nuc-el) + E(el-el) + E(nuc-nuc)
    E(ZPE)  - the the zero temperature vibrational energy from the frequency calculation
    E(vib)  - the the finite temperature correction to E(ZPE) due to population
              of excietd vibrational states
    E(rot)  - is the rotational thermal energy
    E(trans)- is the translational thermal energy

Summary of contributions to the inner energy U:
Electronic energy                ...   -364.33234365 Eh
Zero point energy                ...      0.17421717 Eh     109.32 kcal/mol
Thermal vibrational correction   ...      0.00609589 Eh       3.83 kcal/mol
Thermal rotational correction    ...      0.00141627 Eh       0.89 kcal/mol
Thermal translational correction ...      0.00141627 Eh       0.89 kcal/mol
-----------------------------------------------------------------------
Total thermal energy                   -364.14919805 Eh

Summary of corrections to the electronic energy:
(perhaps to be used in another calculation)
Total thermal correction                  0.00892843 Eh       5.60 kcal/mol
Non-thermal (ZPE) correction              0.17421717 Eh     109.32 kcal/mol
-----------------------------------------------------------------------
Total correction                          0.18314561 Eh     114.93 kcal/mol

--------
ENTHALPY
--------

The enthalpy is H = U + kB*T
                kB is Boltzmann's constant
Total free energy                 ...   -364.14919805 Eh
Thermal Enthalpy correction       ...      0.00094421 Eh       0.59 kcal/mol
-----------------------------------------------------------------------
Total Enthalpy                    ...   -364.14825384 Eh

-------
ENTROPY
-------

The entropy contributions are T*S = T*(S(el)+S(vib)+S(rot)+S(trans)
     S(el)   - electronic entropy
     S(vib)  - vibrational entropy
     S(rot)  - rotational entropy
     S(trans)- translational entropy
The entropies will be listed as mutliplied by the temperature to get
units of energy

Electronic entropy                ...      0.00000000 Eh      0.00 kcal/mol
Vibrational entropy               ...      0.01044361 Eh      6.55 kcal/mol
Rotational entropy                ...      0.01222373 Eh      7.67 kcal/mol
Translational entropy             ...      0.01895570 Eh     11.89 kcal/mol
-----------------------------------------------------------------------
Final entropy term                ...      0.04162304 Eh     26.12 kcal/mol

CAUTION: The rotational entropy is not quite correctly treated here
         because it includes a symmetry number that is not yet correctly
         implemented in ORCA!
For a nonlinear molecule the correct rotational entropy is:
    S(rot) = R*(ln(qrot/sn)+1.5)
    R    = 8.31441 J/mol/K = 1.987191683e-3 kcal/mol/K
    qrot = 280686.7682149
    sn is the rotational symmetry number. We have assumed 3 here
       if it is different for your molecule then you should correct
       the printed rotational entropy by manually evaluating the equation
       as given above

For convenience we print out the resulting values for sn=1 - 12:
 sn= 1  qrot/sn=  280686.7682 T*S(rot)=     8.32 kcal/mol T*S(tot)=    26.77 kcal/mol
 sn= 2  qrot/sn=  140343.3841 T*S(rot)=     7.91 kcal/mol T*S(tot)=    26.36 kcal/mol
 sn= 3  qrot/sn=   93562.2561 T*S(rot)=     7.67 kcal/mol T*S(tot)=    26.12 kcal/mol
 sn= 4  qrot/sn=   70171.6921 T*S(rot)=     7.50 kcal/mol T*S(tot)=    25.95 kcal/mol
 sn= 5  qrot/sn=   56137.3536 T*S(rot)=     7.37 kcal/mol T*S(tot)=    25.82 kcal/mol
 sn= 6  qrot/sn=   46781.1280 T*S(rot)=     7.26 kcal/mol T*S(tot)=    25.71 kcal/mol
 sn= 7  qrot/sn=   40098.1097 T*S(rot)=     7.17 kcal/mol T*S(tot)=    25.62 kcal/mol
 sn= 8  qrot/sn=   35085.8460 T*S(rot)=     7.09 kcal/mol T*S(tot)=    25.54 kcal/mol
 sn= 9  qrot/sn=   31187.4187 T*S(rot)=     7.02 kcal/mol T*S(tot)=    25.47 kcal/mol
 sn=10  qrot/sn=   28068.6768 T*S(rot)=     6.96 kcal/mol T*S(tot)=    25.41 kcal/mol
 sn=11  qrot/sn=   25516.9789 T*S(rot)=     6.90 kcal/mol T*S(tot)=    25.35 kcal/mol
 sn=12  qrot/sn=   23390.5640 T*S(rot)=     6.85 kcal/mol T*S(tot)=    25.30 kcal/mol

-------------------
GIBBS FREE ENTHALPY
-------------------

The Gibbs free enthalpy is G = H - T*S

Total enthalpy                    ...   -364.14825384 Eh
Total entropy correction          ...     -0.04162304 Eh    -26.12 kcal/mol
-----------------------------------------------------------------------
Final Gibbs free enthalpy         ...   -364.18987688 Eh

For completeness - the Gibbs free enthalpy minus the electronic energy
G-E(el)                           ...      0.14246678 Eh     89.40 kcal/mol

                             ****ORCA TERMINATED NORMALLY****
TOTAL RUN TIME: 0 days 0 hours 53 minutes 30 seconds 868 msec
