                         Program Version 3.0.3 - RELEASE   -
|  1> ! NORI PBE0 def2-TZVP UseSym TightOPT Freq TightSCF Grid3 FinalGrid5 XYZFile
|  2> % pal
|  3>     nprocs 8
|  4> end
|  5> %method
|  6>     SymThresh 5.0e-2
|  7> end
|  8> % geom
|  9>     MaxIter 10
| 10> end
| 11> % maxcore 2000
| 12> % output
| 13>     printlevel mini
| 14>     print[ P_Basis ] 0
| 15>     print[ P_SCFInfo ] 1
| 16>     print[ P_SCFIterInfo ] 1
| 17>     print[ P_OrbEn ] 0
| 18>     print[ P_Cartesian ] 0
| 19> end
| 20> % elprop
| 21>     Dipole false
| 22> end
| 23> *xyz 1 1
| 24>  C        0.9854578476     0.3483609585    -1.5664564279
| 25>  C        2.3626023697     0.3028496759    -0.9451770729
| 26>  N        2.9755062885     1.6885929528    -1.0178459357
| 27>  C        2.3825713012    -0.1047203582     0.5156731267
| 28>  O        1.7671216313     0.9282379144     1.2772415665
| 29>  C        0.6937090643     0.5681387265     2.0432221091
| 30>  O        0.2272996122    -0.5202824140     2.0747314154
| 31>  H        1.0258388084     0.6507021027    -2.6153656961
| 32>  H        0.3199709352     1.0266698353    -1.0278480527
| 33>  H        0.5442177868    -0.6483464287    -1.5294382783
| 34>  H        3.0265563427    -0.3528216284    -1.5129356816
| 35>  H        2.4869064897     2.2885522416    -0.3441256591
| 36>  H        2.8808459314     2.0954113673    -1.9498780399
| 37>  H        3.9664584714     1.6836354834    -0.7682139895
| 38>  H        3.4048524816    -0.2270976033     0.8849674152
| 39>  H        1.8486628663    -1.0471178892     0.6438992211
| 40>  H        0.3515617717     1.4449150635     2.6055899797
| 41> *
| 42>
| 43>                          ****END OF INPUT****
 Total Charge           Charge          ....    1
 Multiplicity           Mult            ....    1
 Number of Electrons    NEL             ....   56
FINAL SINGLE POINT ENERGY      -363.135901776964
FINAL SINGLE POINT ENERGY      -363.135902597246
FINAL SINGLE POINT ENERGY      -363.135899352239

CARTESIAN COORDINATES (ANGSTROEM)
---------------------------------
  C     -0.197711   -0.779709   -1.841724
  C     -0.865198    0.378076   -1.136053
  N     -2.176185   -0.103115   -0.544004
  C     -0.061230    0.965384    0.008495
  O     -0.001762    0.001412    1.054077
  C      1.244959   -0.383549    1.462290
  O      2.256267   -0.006063    0.975185
  H     -0.818214   -1.172008   -2.650740
  H      0.039622   -1.592091   -1.151427
  H      0.737706   -0.435706   -2.283781
  H     -1.123501    1.170683   -1.841922
  H     -1.960855   -0.709714    0.254884
  H     -2.724393   -0.634222   -1.222364
  H     -2.749943    0.669883   -0.201267
  H     -0.533182    1.865863    0.411721
  H      0.942140    1.220333   -0.336564
  H      1.141263   -1.086275    2.297635

FINAL SINGLE POINT ENERGY      -363.135903245279
                    ***********************HURRAY********************
 Multiplicity           Mult            ....    1
 Number of Electrons    NEL             ....   56
 Basis Dimension        Dim             ....  277
FINAL SINGLE POINT ENERGY      -363.135903328935

VIBRATIONAL FREQUENCIES
-----------------------

   0:         0.00 cm**-1
   1:         0.00 cm**-1
   2:         0.00 cm**-1
   3:         0.00 cm**-1
   4:         0.00 cm**-1
   5:         0.00 cm**-1
   6:       -12.46 cm**-1
   7:        96.58 cm**-1
   8:       194.42 cm**-1
   9:       223.67 cm**-1
  10:       252.75 cm**-1
  11:       282.94 cm**-1
  12:       317.80 cm**-1
  13:       386.82 cm**-1
  14:       396.14 cm**-1
  15:       601.85 cm**-1
  16:       763.33 cm**-1
  17:       800.32 cm**-1
  18:       894.99 cm**-1
  19:       952.19 cm**-1
  20:       957.11 cm**-1
  21:       965.31 cm**-1
  22:      1000.21 cm**-1
  23:      1040.34 cm**-1
  24:      1105.99 cm**-1
  25:      1143.09 cm**-1
  26:      1161.31 cm**-1
  27:      1220.17 cm**-1
  28:      1289.36 cm**-1
  29:      1376.95 cm**-1
  30:      1384.62 cm**-1
  31:      1388.50 cm**-1
  32:      1397.90 cm**-1
  33:      1426.54 cm**-1
  34:      1481.48 cm**-1
  35:      1486.29 cm**-1
  36:      1488.51 cm**-1
  37:      1500.30 cm**-1
  38:      1646.61 cm**-1
  39:      1662.12 cm**-1
  40:      1869.62 cm**-1
  41:      3063.46 cm**-1
  42:      3073.75 cm**-1
  43:      3100.46 cm**-1
  44:      3109.60 cm**-1
  45:      3141.13 cm**-1
  46:      3142.52 cm**-1
  47:      3158.79 cm**-1
  48:      3398.59 cm**-1
  49:      3483.46 cm**-1
  50:      3517.84 cm**-1

IR SPECTRUM
-----------

 Mode    freq (cm**-1)   T**2         TX         TY         TZ
-------------------------------------------------------------------
   7:        96.58    5.616515  (  1.560396  -0.626904   1.669931)
   8:       194.42    3.624659  (  1.566536  -0.946167   0.524777)
   9:       223.67    0.289734  ( -0.411077   0.063252  -0.341685)
  10:       252.75    3.108438  ( -0.966558   1.450982  -0.262404)
  11:       282.94   27.097953  (  4.486321   0.141288   2.636459)
  12:       317.80   29.185435  (  0.702265   3.163720   4.322399)
  13:       386.82    8.917964  (  2.604998   0.896796   1.152263)
  14:       396.14    7.065418  (  1.023010  -2.436196  -0.289517)
  15:       601.85   15.273617  (  3.712527  -1.206148   0.189647)
  16:       763.33    5.610578  ( -0.986816  -1.354998   1.673545)
  17:       800.32   11.716964  (  3.344777   0.457784   0.565563)
  18:       894.99    7.052794  ( -2.380779  -0.348062  -1.124072)
  19:       952.19    5.545677  ( -0.960529   2.058418   0.621269)
  20:       957.11   17.246635  ( -4.066397   0.462380  -0.705164)
  21:       965.31   18.144982  (  3.568664   0.700688  -2.217804)
  22:      1000.21   11.654606  ( -0.384573   1.744408   2.909252)
  23:      1040.34    0.605009  (  0.439042  -0.548124  -0.334382)
  24:      1105.99  282.976619  (-13.158521   3.281611  -9.952938)
  25:      1143.09   30.537324  (  4.056220  -3.530288   1.273370)
  26:      1161.31  164.291385  (  7.512835  -6.377133   8.196393)
  27:      1220.17    9.219146  ( -0.910921  -2.852824   0.500764)
  28:      1289.36   13.387382  ( -3.396723   1.256121   0.521358)
  29:      1376.95    7.325174  ( -1.939836   0.385881  -1.847513)
  30:      1384.62    1.857904  (  0.334273   0.325103  -1.280810)
  31:      1388.50   11.292591  ( -3.021302   1.119025  -0.955043)
  32:      1397.90    1.518202  (  0.224052  -0.216534   1.192106)
  33:      1426.54   29.253155  ( -4.118389   2.480839   2.477391)
  34:      1481.48   11.462898  ( -3.121284  -0.791288  -1.046111)
  35:      1486.29   49.830918  ( -5.245227  -2.748959   3.842100)
  36:      1488.51  132.834301  (  9.719753   5.575766  -2.696579)
  37:      1500.30   11.855442  (  3.321632  -0.485717  -0.765689)
  38:      1646.61   38.359843  (  2.657660  -5.467075   1.186497)
  39:      1662.12   45.781834  (  2.682069   1.931734   5.903960)
  40:      1869.62  252.507357  (-15.855338  -0.966615   0.425748)
  41:      3063.46    3.028186  (  1.029322   1.386710  -0.213815)
  42:      3073.75   15.472461  (  2.780781  -2.596431   0.999130)
  43:      3100.46   11.659488  ( -0.797611  -1.879731   2.736771)
  44:      3109.60    1.408504  (  0.600043  -1.017694  -0.112917)
  45:      3141.13   11.781442  ( -2.550814  -0.402071  -2.261222)
  46:      3142.52    0.900870  ( -0.212993  -0.636327   0.671261)
  47:      3158.79    1.321668  ( -0.837162   0.765684   0.185892)
  48:      3398.59   38.930117  (  1.999186   2.820707  -5.193937)
  49:      3483.46  116.527451  ( -8.206270   4.474187  -5.400577)
  50:      3517.84   88.197071  (  0.720228   7.009569   6.208405)

--------------------------
THERMOCHEMISTRY AT 298.15K
--------------------------

Temperature         ... 298.15 K
Pressure            ... 1.00 atm
Total Mass          ... 104.13 AMU

Throughout the following assumptions are being made:
  (1) The electronic state is orbitally nondegenerate
  (2) There are no thermally accessible electronically excited states
  (3) Hindered rotations indicated by low frequency modes) are not
      treated as such but are treated as vibrations and this may
      case some error
  (4) All equations used are the standard statistical mechanics
      equations for an ideal gas
  (5) All vibrations are strinctly harmonic

------------
INNER ENERGY
------------

The inner energy is: U= E(el) + E(ZPE) + E(vib) + E(rot) + E(trans)
    E(el)   - is the total energy from the electronic structure calculation
              = E(kin-el) + E(nuc-el) + E(el-el) + E(nuc-nuc)
    E(ZPE)  - the the zero temperature vibrational energy from the frequency calculation
    E(vib)  - the the finite temperature correction to E(ZPE) due to population
              of excietd vibrational states
    E(rot)  - is the rotational thermal energy
    E(trans)- is the translational thermal energy

Summary of contributions to the inner energy U:
Electronic energy                ...   -363.13590333 Eh
Zero point energy                ...      0.15114667 Eh      94.85 kcal/mol
Thermal vibrational correction   ...      0.00453096 Eh       2.84 kcal/mol
Thermal rotational correction    ...      0.00141627 Eh       0.89 kcal/mol
Thermal translational correction ...      0.00141627 Eh       0.89 kcal/mol
-----------------------------------------------------------------------
Total thermal energy                   -362.97739315 Eh

Summary of corrections to the electronic energy:
(perhaps to be used in another calculation)
Total thermal correction                  0.00736351 Eh       4.62 kcal/mol
Non-thermal (ZPE) correction              0.15114667 Eh      94.85 kcal/mol
-----------------------------------------------------------------------
Total correction                          0.15851018 Eh      99.47 kcal/mol

--------
ENTHALPY
--------

The enthalpy is H = U + kB*T
                kB is Boltzmann's constant
Total free energy                 ...   -362.97739315 Eh
Thermal Enthalpy correction       ...      0.00094421 Eh       0.59 kcal/mol
-----------------------------------------------------------------------
Total Enthalpy                    ...   -362.97644894 Eh

-------
ENTROPY
-------

The entropy contributions are T*S = T*(S(el)+S(vib)+S(rot)+S(trans)
     S(el)   - electronic entropy
     S(vib)  - vibrational entropy
     S(rot)  - rotational entropy
     S(trans)- translational entropy
The entropies will be listed as mutliplied by the temperature to get
units of energy

Electronic entropy                ...      0.00000000 Eh      0.00 kcal/mol
Vibrational entropy               ...      0.00764932 Eh      4.80 kcal/mol
Rotational entropy                ...      0.01213194 Eh      7.61 kcal/mol
Translational entropy             ...      0.01892854 Eh     11.88 kcal/mol
-----------------------------------------------------------------------
Final entropy term                ...      0.03870981 Eh     24.29 kcal/mol

CAUTION: The rotational entropy is not quite correctly treated here
         because it includes a symmetry number that is not yet correctly
         implemented in ORCA!
For a nonlinear molecule the correct rotational entropy is:
    S(rot) = R*(ln(qrot/sn)+1.5)
    R    = 8.31441 J/mol/K = 1.987191683e-3 kcal/mol/K
    qrot = 254683.6994025
    sn is the rotational symmetry number. We have assumed 3 here
       if it is different for your molecule then you should correct
       the printed rotational entropy by manually evaluating the equation
       as given above

For convenience we print out the resulting values for sn=1 - 12:
 sn= 1  qrot/sn=  254683.6994 T*S(rot)=     8.26 kcal/mol T*S(tot)=    24.94 kcal/mol
 sn= 2  qrot/sn=  127341.8497 T*S(rot)=     7.85 kcal/mol T*S(tot)=    24.53 kcal/mol
 sn= 3  qrot/sn=   84894.5665 T*S(rot)=     7.61 kcal/mol T*S(tot)=    24.29 kcal/mol
 sn= 4  qrot/sn=   63670.9249 T*S(rot)=     7.44 kcal/mol T*S(tot)=    24.12 kcal/mol
 sn= 5  qrot/sn=   50936.7399 T*S(rot)=     7.31 kcal/mol T*S(tot)=    23.99 kcal/mol
 sn= 6  qrot/sn=   42447.2832 T*S(rot)=     7.20 kcal/mol T*S(tot)=    23.88 kcal/mol
 sn= 7  qrot/sn=   36383.3856 T*S(rot)=     7.11 kcal/mol T*S(tot)=    23.79 kcal/mol
 sn= 8  qrot/sn=   31835.4624 T*S(rot)=     7.03 kcal/mol T*S(tot)=    23.71 kcal/mol
 sn= 9  qrot/sn=   28298.1888 T*S(rot)=     6.96 kcal/mol T*S(tot)=    23.64 kcal/mol
 sn=10  qrot/sn=   25468.3699 T*S(rot)=     6.90 kcal/mol T*S(tot)=    23.58 kcal/mol
 sn=11  qrot/sn=   23153.0636 T*S(rot)=     6.84 kcal/mol T*S(tot)=    23.52 kcal/mol
 sn=12  qrot/sn=   21223.6416 T*S(rot)=     6.79 kcal/mol T*S(tot)=    23.47 kcal/mol

-------------------
GIBBS FREE ENTHALPY
-------------------

The Gibbs free enthalpy is G = H - T*S

Total enthalpy                    ...   -362.97644894 Eh
Total entropy correction          ...     -0.03870981 Eh    -24.29 kcal/mol
-----------------------------------------------------------------------
Final Gibbs free enthalpy         ...   -363.01515875 Eh

For completeness - the Gibbs free enthalpy minus the electronic energy
G-E(el)                           ...      0.12074458 Eh     75.77 kcal/mol

                             ****ORCA TERMINATED NORMALLY****
TOTAL RUN TIME: 0 days 0 hours 46 minutes 3 seconds 482 msec
