                         Program Version 3.0.3 - RELEASE   -
|  1> ! NORI PBE0 def2-TZVP UseSym TightOPT Freq TightSCF Grid3 FinalGrid5 XYZFile
|  2> % pal
|  3>     nprocs 8
|  4> end
|  5> %method
|  6>     SymThresh 5.0e-2
|  7> end
|  8> % geom
|  9>     MaxIter 10
| 10> end
| 11> % maxcore 2000
| 12> % output
| 13>     printlevel mini
| 14>     print[ P_Basis ] 0
| 15>     print[ P_SCFInfo ] 1
| 16>     print[ P_SCFIterInfo ] 1
| 17>     print[ P_OrbEn ] 0
| 18>     print[ P_Cartesian ] 0
| 19> end
| 20> % elprop
| 21>     Dipole false
| 22> end
| 23> *xyz 1 1
| 24>  C        0.8035970508    -0.0858686179    -0.0071519471
| 25>  C        2.3082982410    -0.0176444952    -0.0927071552
| 26>  N        2.7429598304     1.4311815431    -0.0646251560
| 27>  C        3.0324178828    -0.7237656457     1.0415294977
| 28>  O        2.7315402312    -2.0793299129     0.8991161599
| 29>  N        3.3328805016    -2.7719015873     1.9565656006
| 30>  C        3.1245642703    -4.0126627755     1.8693239455
| 31>  H        0.3199499662     0.4120229808    -0.8507080586
| 32>  H        0.4344079078     0.3475190626     0.9269557868
| 33>  H        0.5055534755    -1.1337775404    -0.0233667194
| 34>  H        2.6645593365    -0.4088853325    -1.0490381848
| 35>  H        2.4630704433     1.8740776659     0.8145097273
| 36>  H        2.3077094082     1.9564189334    -0.8253839495
| 37>  H        3.7576364194     1.5245558476    -0.1529903370
| 38>  H        2.6870904173    -0.3472422775     2.0150865004
| 39>  H        4.1180445940    -0.5600287838     0.9754936469
| 40>  H        3.5556203973    -4.6230364263     2.6540932393
| 41>  H        2.5502096266    -4.4677326382     1.0644574031
| 42> *
| 43>
| 44>                          ****END OF INPUT****
 Total Charge           Charge          ....    1
 Multiplicity           Mult            ....    1
 Number of Electrons    NEL             ....   56
FINAL SINGLE POINT ENERGY      -343.191468312764

CARTESIAN COORDINATES (ANGSTROEM)
---------------------------------
  C     -0.748609   -1.526474   -1.394466
  C      0.425027   -0.592604   -1.231041
  N      0.779798    0.000051   -2.577391
  C      0.173706    0.569128   -0.283710
  O     -0.001251   -0.000353    0.978552
  N     -0.290136    1.028079    1.883226
  C     -0.427540    0.582906    3.055198
  H     -0.521876   -2.359038   -2.064450
  H     -1.633245   -0.998417   -1.762059
  H     -0.996153   -1.942321   -0.418235
  H      1.316870   -1.136180   -0.909419
  H     -0.001908    0.547308   -2.947223
  H      0.987512   -0.735775   -3.255383
  H      1.593244    0.616908   -2.517671
  H     -0.722442    1.129623   -0.586953
  H      1.027191    1.262854   -0.279473
  H     -0.656387    1.317174    3.818379
  H     -0.327134   -0.470204    3.310673

FINAL SINGLE POINT ENERGY      -343.191469059477
                    ***********************HURRAY********************
 Multiplicity           Mult            ....    1
 Number of Electrons    NEL             ....   56
 Basis Dimension        Dim             ....  283
FINAL SINGLE POINT ENERGY      -343.191469282796

VIBRATIONAL FREQUENCIES
-----------------------

   0:         0.00 cm**-1
   1:         0.00 cm**-1
   2:         0.00 cm**-1
   3:         0.00 cm**-1
   4:         0.00 cm**-1
   5:         0.00 cm**-1
   6:        47.76 cm**-1
   7:        74.30 cm**-1
   8:       137.36 cm**-1
   9:       148.66 cm**-1
  10:       201.82 cm**-1
  11:       243.90 cm**-1
  12:       312.09 cm**-1
  13:       335.16 cm**-1
  14:       423.48 cm**-1
  15:       451.60 cm**-1
  16:       583.29 cm**-1
  17:       805.81 cm**-1
  18:       825.33 cm**-1
  19:       919.46 cm**-1
  20:       927.73 cm**-1
  21:       938.47 cm**-1
  22:       959.03 cm**-1
  23:       975.58 cm**-1
  24:      1025.77 cm**-1
  25:      1104.07 cm**-1
  26:      1147.34 cm**-1
  27:      1193.17 cm**-1
  28:      1214.62 cm**-1
  29:      1238.47 cm**-1
  30:      1273.49 cm**-1
  31:      1362.95 cm**-1
  32:      1391.49 cm**-1
  33:      1414.51 cm**-1
  34:      1421.43 cm**-1
  35:      1434.70 cm**-1
  36:      1477.94 cm**-1
  37:      1490.59 cm**-1
  38:      1498.75 cm**-1
  39:      1515.80 cm**-1
  40:      1653.24 cm**-1
  41:      1658.34 cm**-1
  42:      1735.68 cm**-1
  43:      2994.64 cm**-1
  44:      3035.59 cm**-1
  45:      3055.24 cm**-1
  46:      3103.72 cm**-1
  47:      3127.87 cm**-1
  48:      3134.19 cm**-1
  49:      3164.98 cm**-1
  50:      3255.77 cm**-1
  51:      3415.07 cm**-1
  52:      3495.86 cm**-1
  53:      3508.38 cm**-1

IR SPECTRUM
-----------

 Mode    freq (cm**-1)   T**2         TX         TY         TZ
-------------------------------------------------------------------
   6:        47.76    0.258786  ( -0.484143   0.091467   0.126591)
   7:        74.30   13.188397  (  3.527972  -0.167319   0.844877)
   8:       137.36    9.989455  (  1.550140   2.415571   1.323457)
   9:       148.66   11.822912  (  3.172378  -1.302894  -0.247785)
  10:       201.82    0.234908  (  0.310408   0.355473   0.110429)
  11:       243.90    1.256784  ( -0.549628   0.973679   0.081504)
  12:       312.09   11.121958  (  0.644197   2.868976   1.573514)
  13:       335.16    6.668599  (  0.053326  -0.341014   2.559192)
  14:       423.48    6.651741  (  1.879304   1.177079  -1.316983)
  15:       451.60    4.027232  ( -0.838588   0.466169   1.762580)
  16:       583.29    0.638443  (  0.264686  -0.666469   0.352425)
  17:       805.81    0.698785  ( -0.822105  -0.142106  -0.052293)
  18:       825.33    4.165890  (  0.796105   0.167892   1.871876)
  19:       919.46  143.300979  (  2.394920  -4.972601 -10.622550)
  20:       927.73    1.777678  ( -0.971127   0.836039  -0.368280)
  21:       938.47    3.088162  (  1.034364  -1.393438   0.276737)
  22:       959.03   15.740242  ( -2.909074  -2.169866   1.602877)
  23:       975.58    3.203492  ( -0.075396  -1.786848   0.070583)
  24:      1025.77   32.399357  (  5.568450   0.740374   0.918459)
  25:      1104.07  100.990758  (  1.046122   0.738422  -9.967503)
  26:      1147.34  114.050252  (  1.743873   0.469311 -10.525631)
  27:      1193.17    2.656283  ( -0.419033  -1.223253   0.992143)
  28:      1214.62    4.815087  ( -1.700782  -1.379652  -0.137788)
  29:      1238.47   17.765999  (  0.456505   0.803939   4.112333)
  30:      1273.49    1.528575  ( -0.597009   0.538919   0.939000)
  31:      1362.95   18.072436  ( -2.145668   1.898977   3.140451)
  32:      1391.49    1.251607  ( -0.871925   0.112783   0.691834)
  33:      1414.51    0.457488  ( -0.618581   0.257526   0.092336)
  34:      1421.43   34.626718  (  3.522649   4.555237  -1.211395)
  35:      1434.70    3.554151  ( -1.494710   0.536843  -1.015772)
  36:      1477.94    6.639900  ( -1.128971   1.217326  -1.970645)
  37:      1490.59    9.898711  ( -1.197799   2.847359  -0.597108)
  38:      1498.75  153.120572  ( -3.121223  -2.678244  11.670713)
  39:      1515.80   25.475534  (  0.342742   3.351505  -3.758388)
  40:      1653.24   56.764195  ( -6.766758   3.284489   0.432803)
  41:      1658.34   40.242875  (  2.107537   5.022504   3.252017)
  42:      1735.68    6.405547  (  0.469573  -1.443503  -2.025179)
  43:      2994.64   52.935301  ( -1.580407  -3.147016   6.366624)
  44:      3035.59   19.065712  ( -4.191366  -0.719201  -0.990410)
  45:      3055.24    5.953308  (  0.399892  -0.196645   2.398901)
  46:      3103.72    1.996896  ( -1.033310  -0.611931  -0.744785)
  47:      3127.87    1.679285  (  0.219572  -1.248908  -0.267025)
  48:      3134.19    5.829635  (  1.534020  -1.716255  -0.728620)
  49:      3164.98    1.029766  (  0.662105   0.714226  -0.285069)
  50:      3255.77    1.822131  ( -0.237692   0.180462   1.316460)
  51:      3415.07   43.894666  (  1.594928   2.471148  -5.936691)
  52:      3495.86   83.386967  ( -8.890245   1.974585  -0.671960)
  53:      3508.38   91.469807  (  1.097977   8.170784   4.847942)

--------------------------
THERMOCHEMISTRY AT 298.15K
--------------------------

Temperature         ... 298.15 K
Pressure            ... 1.00 atm
Total Mass          ... 103.14 AMU

Throughout the following assumptions are being made:
  (1) The electronic state is orbitally nondegenerate
  (2) There are no thermally accessible electronically excited states
  (3) Hindered rotations indicated by low frequency modes) are not
      treated as such but are treated as vibrations and this may
      case some error
  (4) All equations used are the standard statistical mechanics
      equations for an ideal gas
  (5) All vibrations are strinctly harmonic

------------
INNER ENERGY
------------

The inner energy is: U= E(el) + E(ZPE) + E(vib) + E(rot) + E(trans)
    E(el)   - is the total energy from the electronic structure calculation
              = E(kin-el) + E(nuc-el) + E(el-el) + E(nuc-nuc)
    E(ZPE)  - the the zero temperature vibrational energy from the frequency calculation
    E(vib)  - the the finite temperature correction to E(ZPE) due to population
              of excietd vibrational states
    E(rot)  - is the rotational thermal energy
    E(trans)- is the translational thermal energy

Summary of contributions to the inner energy U:
Electronic energy                ...   -343.19146928 Eh
Zero point energy                ...      0.16141847 Eh     101.29 kcal/mol
Thermal vibrational correction   ...      0.00607057 Eh       3.81 kcal/mol
Thermal rotational correction    ...      0.00141627 Eh       0.89 kcal/mol
Thermal translational correction ...      0.00141627 Eh       0.89 kcal/mol
-----------------------------------------------------------------------
Total thermal energy                   -343.02114770 Eh

Summary of corrections to the electronic energy:
(perhaps to be used in another calculation)
Total thermal correction                  0.00890311 Eh       5.59 kcal/mol
Non-thermal (ZPE) correction              0.16141847 Eh     101.29 kcal/mol
-----------------------------------------------------------------------
Total correction                          0.17032158 Eh     106.88 kcal/mol

--------
ENTHALPY
--------

The enthalpy is H = U + kB*T
                kB is Boltzmann's constant
Total free energy                 ...   -343.02114770 Eh
Thermal Enthalpy correction       ...      0.00094421 Eh       0.59 kcal/mol
-----------------------------------------------------------------------
Total Enthalpy                    ...   -343.02020349 Eh

-------
ENTROPY
-------

The entropy contributions are T*S = T*(S(el)+S(vib)+S(rot)+S(trans)
     S(el)   - electronic entropy
     S(vib)  - vibrational entropy
     S(rot)  - rotational entropy
     S(trans)- translational entropy
The entropies will be listed as mutliplied by the temperature to get
units of energy

Electronic entropy                ...      0.00000000 Eh      0.00 kcal/mol
Vibrational entropy               ...      0.01167702 Eh      7.33 kcal/mol
Rotational entropy                ...      0.01224987 Eh      7.69 kcal/mol
Translational entropy             ...      0.01891510 Eh     11.87 kcal/mol
-----------------------------------------------------------------------
Final entropy term                ...      0.04284199 Eh     26.88 kcal/mol

CAUTION: The rotational entropy is not quite correctly treated here
         because it includes a symmetry number that is not yet correctly
         implemented in ORCA!
For a nonlinear molecule the correct rotational entropy is:
    S(rot) = R*(ln(qrot/sn)+1.5)
    R    = 8.31441 J/mol/K = 1.987191683e-3 kcal/mol/K
    qrot = 288566.5276435
    sn is the rotational symmetry number. We have assumed 3 here
       if it is different for your molecule then you should correct
       the printed rotational entropy by manually evaluating the equation
       as given above

For convenience we print out the resulting values for sn=1 - 12:
 sn= 1  qrot/sn=  288566.5276 T*S(rot)=     8.34 kcal/mol T*S(tot)=    27.53 kcal/mol
 sn= 2  qrot/sn=  144283.2638 T*S(rot)=     7.93 kcal/mol T*S(tot)=    27.12 kcal/mol
 sn= 3  qrot/sn=   96188.8425 T*S(rot)=     7.69 kcal/mol T*S(tot)=    26.88 kcal/mol
 sn= 4  qrot/sn=   72141.6319 T*S(rot)=     7.52 kcal/mol T*S(tot)=    26.71 kcal/mol
 sn= 5  qrot/sn=   57713.3055 T*S(rot)=     7.38 kcal/mol T*S(tot)=    26.58 kcal/mol
 sn= 6  qrot/sn=   48094.4213 T*S(rot)=     7.28 kcal/mol T*S(tot)=    26.47 kcal/mol
 sn= 7  qrot/sn=   41223.7897 T*S(rot)=     7.18 kcal/mol T*S(tot)=    26.38 kcal/mol
 sn= 8  qrot/sn=   36070.8160 T*S(rot)=     7.11 kcal/mol T*S(tot)=    26.30 kcal/mol
 sn= 9  qrot/sn=   32062.9475 T*S(rot)=     7.04 kcal/mol T*S(tot)=    26.23 kcal/mol
 sn=10  qrot/sn=   28856.6528 T*S(rot)=     6.97 kcal/mol T*S(tot)=    26.17 kcal/mol
 sn=11  qrot/sn=   26233.3207 T*S(rot)=     6.92 kcal/mol T*S(tot)=    26.11 kcal/mol
 sn=12  qrot/sn=   24047.2106 T*S(rot)=     6.87 kcal/mol T*S(tot)=    26.06 kcal/mol

-------------------
GIBBS FREE ENTHALPY
-------------------

The Gibbs free enthalpy is G = H - T*S

Total enthalpy                    ...   -343.02020349 Eh
Total entropy correction          ...     -0.04284199 Eh    -26.88 kcal/mol
-----------------------------------------------------------------------
Final Gibbs free enthalpy         ...   -343.06304548 Eh

For completeness - the Gibbs free enthalpy minus the electronic energy
G-E(el)                           ...      0.12842380 Eh     80.59 kcal/mol

                             ****ORCA TERMINATED NORMALLY****
TOTAL RUN TIME: 0 days 0 hours 41 minutes 8 seconds 332 msec
