                         Program Version 3.0.3 - RELEASE   -
|  1> ! NORI PBE0 def2-TZVP UseSym TightOPT Freq TightSCF Grid3 FinalGrid5 XYZFile
|  2> % pal
|  3>     nprocs 8
|  4> end
|  5> %method
|  6>     SymThresh 5.0e-2
|  7> end
|  8> % geom
|  9>     MaxIter 10
| 10> end
| 11> % maxcore 2000
| 12> % output
| 13>     printlevel mini
| 14>     print[ P_Basis ] 0
| 15>     print[ P_SCFInfo ] 1
| 16>     print[ P_SCFIterInfo ] 1
| 17>     print[ P_OrbEn ] 0
| 18>     print[ P_Cartesian ] 0
| 19> end
| 20> % elprop
| 21>     Dipole false
| 22> end
| 23> *xyz 1 1
| 24>  C        0.8637040441     0.0950559697    -0.2548668315
| 25>  C        2.3329539174    -0.0217092625    -0.0840968936
| 26>  N        3.1279697529    -0.8443912278    -0.6394867702
| 27>  O        2.5360504610    -1.7235422998    -1.4810538261
| 28>  C        3.0146021660     0.8959269332     0.8771158007
| 29>  C        3.6407581289     0.3501091670     2.1024405474
| 30>  N        4.4749127192     0.6911261279     0.9339737921
| 31>  H        0.4962261505    -0.6542605985    -0.9516733944
| 32>  H        0.6033972180     1.0887195025    -0.6312059849
| 33>  H        0.3542998941    -0.0306579068     0.7049947397
| 34>  H        3.2607699369    -2.2438218575    -1.8465406764
| 35>  H        2.7046327037     1.9351253886     0.8858970596
| 36>  H        3.5680245792    -0.7139302162     2.2889140533
| 37>  H        3.7939333730     0.9914950100     2.9611448366
| 38>  H        5.0947813378     1.4917391015     0.9765907421
| 39>  H        4.7467736173    -0.0841138312     0.3151528058
| 40> *
| 41>
| 42>                          ****END OF INPUT****
 Total Charge           Charge          ....    1
 Multiplicity           Mult            ....    1
 Number of Electrons    NEL             ....   54
FINAL SINGLE POINT ENERGY      -341.981675848122
FINAL SINGLE POINT ENERGY      -341.981676893020

CARTESIAN COORDINATES (ANGSTROEM)
---------------------------------
  C     -1.906329   -0.649921    0.438957
  C     -0.487179   -0.297115    0.187627
  N      0.413119   -0.001067    1.035691
  O      0.000458   -0.003209    2.324691
  C     -0.007058   -0.233717   -1.225193
  C      0.408711    1.062075   -1.807055
  N      1.425501    0.102967   -1.334467
  H     -2.127833   -0.619283    1.502724
  H     -2.120241   -1.653495    0.059973
  H     -2.572451    0.042786   -0.083691
  H      0.789498    0.203744    2.838458
  H     -0.340317   -1.010592   -1.904267
  H      0.332171    1.951244   -1.194267
  H      0.392037    1.200595   -2.880610
  H      2.007634   -0.383305   -2.006419
  H      1.821439    0.268387   -0.400238

FINAL SINGLE POINT ENERGY      -341.981677269574
                    ***********************HURRAY********************
 Multiplicity           Mult            ....    1
 Number of Electrons    NEL             ....   54
 Basis Dimension        Dim             ....  271
FINAL SINGLE POINT ENERGY      -341.981677837978

VIBRATIONAL FREQUENCIES
-----------------------

   0:         0.00 cm**-1
   1:         0.00 cm**-1
   2:         0.00 cm**-1
   3:         0.00 cm**-1
   4:         0.00 cm**-1
   5:         0.00 cm**-1
   6:        36.61 cm**-1
   7:        91.56 cm**-1
   8:       191.46 cm**-1
   9:       231.50 cm**-1
  10:       301.56 cm**-1
  11:       376.29 cm**-1
  12:       441.14 cm**-1
  13:       473.09 cm**-1
  14:       569.47 cm**-1
  15:       629.42 cm**-1
  16:       797.20 cm**-1
  17:       850.16 cm**-1
  18:       902.21 cm**-1
  19:       909.62 cm**-1
  20:       945.06 cm**-1
  21:       995.11 cm**-1
  22:      1043.11 cm**-1
  23:      1057.05 cm**-1
  24:      1082.83 cm**-1
  25:      1155.71 cm**-1
  26:      1172.31 cm**-1
  27:      1178.47 cm**-1
  28:      1248.16 cm**-1
  29:      1255.16 cm**-1
  30:      1277.09 cm**-1
  31:      1402.32 cm**-1
  32:      1406.77 cm**-1
  33:      1431.93 cm**-1
  34:      1470.43 cm**-1
  35:      1476.98 cm**-1
  36:      1485.34 cm**-1
  37:      1585.71 cm**-1
  38:      1759.01 cm**-1
  39:      3057.07 cm**-1
  40:      3116.85 cm**-1
  41:      3170.09 cm**-1
  42:      3189.82 cm**-1
  43:      3202.82 cm**-1
  44:      3277.40 cm**-1
  45:      3340.74 cm**-1
  46:      3590.51 cm**-1
  47:      3830.74 cm**-1

IR SPECTRUM
-----------

 Mode    freq (cm**-1)   T**2         TX         TY         TZ
-------------------------------------------------------------------
   6:        36.61    0.038719  (  0.117845  -0.038486   0.152808)
   7:        91.56    1.470019  (  0.066050  -1.204097  -0.125721)
   8:       191.46    1.672695  ( -0.775371   0.625386   0.824856)
   9:       231.50   18.754299  (  0.927967   0.560130  -4.192783)
  10:       301.56    1.224230  ( -0.682669  -0.303148  -0.816269)
  11:       376.29   31.843286  ( -1.304681   5.487365  -0.172961)
  12:       441.14   34.391281  ( -2.144194  -4.907620   2.389346)
  13:       473.09   70.638809  ( -2.930528   7.861500   0.497635)
  14:       569.47   14.602747  ( -0.774405   3.718817  -0.416463)
  15:       629.42    8.995707  ( -1.089548   0.057417   2.793796)
  16:       797.20    4.399244  (  1.549469   0.422667  -1.348978)
  17:       850.16   11.802481  ( -3.279432   1.021776  -0.061498)
  18:       902.21   23.043318  (  4.241931   0.588647  -2.168603)
  19:       909.62    2.910955  (  0.484879  -0.918649   1.353488)
  20:       945.06   18.861741  (  4.211480   0.898160   0.564344)
  21:       995.11    1.724239  ( -0.448950  -0.137798  -1.226252)
  22:      1043.11   46.114246  (  3.542773   5.750087   0.706755)
  23:      1057.05   76.516740  (  4.453607   5.960453  -4.599469)
  24:      1082.83  115.143394  (  0.731876   0.889141 -10.668513)
  25:      1155.71    8.797100  ( -1.228454  -0.496643  -2.653553)
  26:      1172.31   18.079452  ( -2.916745  -1.148624  -2.872754)
  27:      1178.47   52.073006  ( -2.924658  -0.629292  -6.566839)
  28:      1248.16    2.977894  ( -1.239971  -0.061271   1.198587)
  29:      1255.16   23.196636  (  3.955912   1.039663  -2.542930)
  30:      1277.09   10.084441  ( -0.853906   0.686723  -2.980553)
  31:      1402.32   14.917817  (  1.974407   0.373658   3.298471)
  32:      1406.77   53.079451  ( -4.538581  -0.832520   5.638053)
  33:      1431.93    6.955473  ( -1.579609  -1.988133  -0.712485)
  34:      1470.43   19.216289  (  1.251437  -3.944661  -1.445628)
  35:      1476.98   30.229174  (  0.075485   1.596325   5.260725)
  36:      1485.34   20.528582  ( -1.701577   2.371107  -3.465699)
  37:      1585.71   76.671934  ( -8.653228   0.893741   0.997399)
  38:      1759.01    5.344329  (  2.025871   0.227608  -1.090124)
  39:      3057.07    1.946156  (  0.463774   0.169512  -1.304736)
  40:      3116.85    0.393559  ( -0.193389   0.596559  -0.016649)
  41:      3170.09    2.509335  ( -0.197585   1.518304  -0.406260)
  42:      3189.82    1.414499  ( -0.288020  -0.172964  -1.140889)
  43:      3202.82    1.643629  (  0.566836   1.125602   0.235259)
  44:      3277.40    6.575445  (  0.041202   1.345240   2.182677)
  45:      3340.74  133.105322  (  3.857083  -1.271877  10.798637)
  46:      3590.51  182.698970  ( -7.453604   4.705013  10.247225)
  47:      3830.74  182.151641  ( -7.883846  -2.155635 -10.740105)

--------------------------
THERMOCHEMISTRY AT 298.15K
--------------------------

Temperature         ... 298.15 K
Pressure            ... 1.00 atm
Total Mass          ... 101.13 AMU

Throughout the following assumptions are being made:
  (1) The electronic state is orbitally nondegenerate
  (2) There are no thermally accessible electronically excited states
  (3) Hindered rotations indicated by low frequency modes) are not
      treated as such but are treated as vibrations and this may
      case some error
  (4) All equations used are the standard statistical mechanics
      equations for an ideal gas
  (5) All vibrations are strinctly harmonic

------------
INNER ENERGY
------------

The inner energy is: U= E(el) + E(ZPE) + E(vib) + E(rot) + E(trans)
    E(el)   - is the total energy from the electronic structure calculation
              = E(kin-el) + E(nuc-el) + E(el-el) + E(nuc-nuc)
    E(ZPE)  - the the zero temperature vibrational energy from the frequency calculation
    E(vib)  - the the finite temperature correction to E(ZPE) due to population
              of excietd vibrational states
    E(rot)  - is the rotational thermal energy
    E(trans)- is the translational thermal energy

Summary of contributions to the inner energy U:
Electronic energy                ...   -341.98167784 Eh
Zero point energy                ...      0.13898161 Eh      87.21 kcal/mol
Thermal vibrational correction   ...      0.00485050 Eh       3.04 kcal/mol
Thermal rotational correction    ...      0.00141627 Eh       0.89 kcal/mol
Thermal translational correction ...      0.00141627 Eh       0.89 kcal/mol
-----------------------------------------------------------------------
Total thermal energy                   -341.83501318 Eh

Summary of corrections to the electronic energy:
(perhaps to be used in another calculation)
Total thermal correction                  0.00768304 Eh       4.82 kcal/mol
Non-thermal (ZPE) correction              0.13898161 Eh      87.21 kcal/mol
-----------------------------------------------------------------------
Total correction                          0.14666465 Eh      92.03 kcal/mol

--------
ENTHALPY
--------

The enthalpy is H = U + kB*T
                kB is Boltzmann's constant
Total free energy                 ...   -341.83501318 Eh
Thermal Enthalpy correction       ...      0.00094421 Eh       0.59 kcal/mol
-----------------------------------------------------------------------
Total Enthalpy                    ...   -341.83406898 Eh

-------
ENTROPY
-------

The entropy contributions are T*S = T*(S(el)+S(vib)+S(rot)+S(trans)
     S(el)   - electronic entropy
     S(vib)  - vibrational entropy
     S(rot)  - rotational entropy
     S(trans)- translational entropy
The entropies will be listed as mutliplied by the temperature to get
units of energy

Electronic entropy                ...      0.00000000 Eh      0.00 kcal/mol
Vibrational entropy               ...      0.00925928 Eh      5.81 kcal/mol
Rotational entropy                ...      0.01204730 Eh      7.56 kcal/mol
Translational entropy             ...      0.01888714 Eh     11.85 kcal/mol
-----------------------------------------------------------------------
Final entropy term                ...      0.04019372 Eh     25.22 kcal/mol

CAUTION: The rotational entropy is not quite correctly treated here
         because it includes a symmetry number that is not yet correctly
         implemented in ORCA!
For a nonlinear molecule the correct rotational entropy is:
    S(rot) = R*(ln(qrot/sn)+1.5)
    R    = 8.31441 J/mol/K = 1.987191683e-3 kcal/mol/K
    qrot = 232846.4600891
    sn is the rotational symmetry number. We have assumed 3 here
       if it is different for your molecule then you should correct
       the printed rotational entropy by manually evaluating the equation
       as given above

For convenience we print out the resulting values for sn=1 - 12:
 sn= 1  qrot/sn=  232846.4601 T*S(rot)=     8.21 kcal/mol T*S(tot)=    25.87 kcal/mol
 sn= 2  qrot/sn=  116423.2300 T*S(rot)=     7.80 kcal/mol T*S(tot)=    25.46 kcal/mol
 sn= 3  qrot/sn=   77615.4867 T*S(rot)=     7.56 kcal/mol T*S(tot)=    25.22 kcal/mol
 sn= 4  qrot/sn=   58211.6150 T*S(rot)=     7.39 kcal/mol T*S(tot)=    25.05 kcal/mol
 sn= 5  qrot/sn=   46569.2920 T*S(rot)=     7.26 kcal/mol T*S(tot)=    24.92 kcal/mol
 sn= 6  qrot/sn=   38807.7433 T*S(rot)=     7.15 kcal/mol T*S(tot)=    24.81 kcal/mol
 sn= 7  qrot/sn=   33263.7800 T*S(rot)=     7.06 kcal/mol T*S(tot)=    24.72 kcal/mol
 sn= 8  qrot/sn=   29105.8075 T*S(rot)=     6.98 kcal/mol T*S(tot)=    24.64 kcal/mol
 sn= 9  qrot/sn=   25871.8289 T*S(rot)=     6.91 kcal/mol T*S(tot)=    24.57 kcal/mol
 sn=10  qrot/sn=   23284.6460 T*S(rot)=     6.85 kcal/mol T*S(tot)=    24.51 kcal/mol
 sn=11  qrot/sn=   21167.8600 T*S(rot)=     6.79 kcal/mol T*S(tot)=    24.45 kcal/mol
 sn=12  qrot/sn=   19403.8717 T*S(rot)=     6.74 kcal/mol T*S(tot)=    24.40 kcal/mol

-------------------
GIBBS FREE ENTHALPY
-------------------

The Gibbs free enthalpy is G = H - T*S

Total enthalpy                    ...   -341.83406898 Eh
Total entropy correction          ...     -0.04019372 Eh    -25.22 kcal/mol
-----------------------------------------------------------------------
Final Gibbs free enthalpy         ...   -341.87426269 Eh

For completeness - the Gibbs free enthalpy minus the electronic energy
G-E(el)                           ...      0.10741515 Eh     67.40 kcal/mol

                             ****ORCA TERMINATED NORMALLY****
TOTAL RUN TIME: 0 days 0 hours 38 minutes 27 seconds 663 msec
