                         Program Version 3.0.3 - RELEASE   -
|  1> ! NORI PBE0 def2-TZVP UseSym TightOPT Freq TightSCF Grid3 FinalGrid5 XYZFile
|  2> % pal
|  3>     nprocs 8
|  4> end
|  5> %method
|  6>     SymThresh 5.0e-2
|  7> end
|  8> % geom
|  9>     MaxIter 10
| 10> end
| 11> % maxcore 2000
| 12> % output
| 13>     printlevel mini
| 14>     print[ P_Basis ] 0
| 15>     print[ P_SCFInfo ] 1
| 16>     print[ P_SCFIterInfo ] 1
| 17>     print[ P_OrbEn ] 0
| 18>     print[ P_Cartesian ] 0
| 19> end
| 20> % elprop
| 21>     Dipole false
| 22> end
| 23> *xyz 1 1
| 24>  C        1.4595003125    -0.7128711606     0.2671993019
| 25>  C        2.9259557587    -0.5562517736     0.0537934601
| 26>  N        3.5202749317    -1.2661596779    -0.8082127687
| 27>  O        4.8956286360    -0.9621041254    -0.8484429615
| 28>  C        5.4796861083    -1.7691325356    -1.8193634633
| 29>  C        6.9503508251    -1.4095554451    -1.7897519532
| 30>  N        7.6919383784    -2.2260280320    -2.8077164682
| 31>  H        1.1107573050    -0.0298746500     1.0398523525
| 32>  H        1.2188942403    -1.7332117680     0.5716998879
| 33>  H        0.9095050757    -0.5054482747    -0.6528006350
| 34>  H        3.4901463769     0.1706902067     0.6404939559
| 35>  H        5.3316523221    -2.8348301720    -1.5904054047
| 36>  H        5.0478415245    -1.5721197445    -2.8120440794
| 37>  H        7.1102145575    -0.3595901893    -2.0354421478
| 38>  H        7.3932991644    -1.6209565402    -0.8162948925
| 39>  H        7.3309802300    -2.0562833297    -3.7497830179
| 40>  H        7.5956871188    -3.2269524172    -2.6185744829
| 41>  H        8.6894671339    -2.0039503709    -2.8118066832
| 42> *
| 43>
| 44>                          ****END OF INPUT****
 Total Charge           Charge          ....    1
 Multiplicity           Mult            ....    1
 Number of Electrons    NEL             ....   56
FINAL SINGLE POINT ENERGY      -343.191693119185

CARTESIAN COORDINATES (ANGSTROEM)
---------------------------------
  C      3.621218    0.009187    0.512583
  C      2.170089    0.007189    0.851360
  N      1.303980    0.000226   -0.070741
  O      0.000249    0.000977    0.464259
  C     -0.894835   -0.016454   -0.600590
  C     -2.265105    0.009465    0.043624
  N     -3.324931   -0.007530   -1.019429
  H      4.224957    0.015021    1.418487
  H      3.879191    0.887715   -0.081852
  H      3.883627   -0.873829   -0.073232
  H      1.851496    0.011841    1.895096
  H     -0.751511    0.857405   -1.253046
  H     -0.766579   -0.921643   -1.212599
  H     -2.425464   -0.862843    0.677275
  H     -2.410957    0.913238    0.635214
  H     -3.250575   -0.846340   -1.600272
  H     -3.238845    0.802199   -1.638630
  H     -4.262799    0.008422   -0.614033

FINAL SINGLE POINT ENERGY      -343.191693585227
                    ***********************HURRAY********************
 Multiplicity           Mult            ....    1
 Number of Electrons    NEL             ....   56
 Basis Dimension        Dim             ....  283
FINAL SINGLE POINT ENERGY      -343.191693839005

VIBRATIONAL FREQUENCIES
-----------------------

   0:         0.00 cm**-1
   1:         0.00 cm**-1
   2:         0.00 cm**-1
   3:         0.00 cm**-1
   4:         0.00 cm**-1
   5:         0.00 cm**-1
   6:      -214.18 cm**-1 ***imaginary mode***
   7:        44.11 cm**-1
   8:        65.54 cm**-1
   9:       111.81 cm**-1
  10:       120.28 cm**-1
  11:       212.57 cm**-1
  12:       269.69 cm**-1
  13:       303.07 cm**-1
  14:       347.63 cm**-1
  15:       481.81 cm**-1
  16:       590.00 cm**-1
  17:       794.82 cm**-1
  18:       902.39 cm**-1
  19:       907.26 cm**-1
  20:       933.59 cm**-1
  21:       941.80 cm**-1
  22:      1001.15 cm**-1
  23:      1031.52 cm**-1
  24:      1086.99 cm**-1
  25:      1125.29 cm**-1
  26:      1145.80 cm**-1
  27:      1193.23 cm**-1
  28:      1209.54 cm**-1
  29:      1279.42 cm**-1
  30:      1333.13 cm**-1
  31:      1351.95 cm**-1
  32:      1368.91 cm**-1
  33:      1411.20 cm**-1
  34:      1442.78 cm**-1
  35:      1471.92 cm**-1
  36:      1474.22 cm**-1
  37:      1497.35 cm**-1
  38:      1510.49 cm**-1
  39:      1522.24 cm**-1
  40:      1658.06 cm**-1
  41:      1665.60 cm**-1
  42:      1741.26 cm**-1
  43:      2993.11 cm**-1
  44:      3030.43 cm**-1
  45:      3070.92 cm**-1
  46:      3110.39 cm**-1
  47:      3122.57 cm**-1
  48:      3138.92 cm**-1
  49:      3169.41 cm**-1
  50:      3173.20 cm**-1
  51:      3420.57 cm**-1
  52:      3495.71 cm**-1
  53:      3508.06 cm**-1

IR SPECTRUM
-----------

 Mode    freq (cm**-1)   T**2         TX         TY         TZ
-------------------------------------------------------------------
   7:        44.11    1.303577  ( -0.021095  -1.141157   0.029856)
   8:        65.54   20.612014  (  0.017706   4.539376  -0.075935)
   9:       111.81   15.325982  (  2.144722  -0.428786  -3.246890)
  10:       120.28    6.433620  (  0.299785   2.471982  -0.482759)
  11:       212.57    0.006244  (  0.005443   0.078823  -0.001191)
  12:       269.69    6.442884  (  2.457394   0.014148   0.635532)
  13:       303.07    0.016052  (  0.072023   0.104225  -0.001461)
  14:       347.63   12.205568  ( -3.219530   0.008141  -1.356514)
  15:       481.81    7.499151  ( -2.678004  -0.017229   0.571968)
  16:       590.00   12.507067  ( -3.448110   0.025709   0.785457)
  17:       794.82    4.512509  (  0.033011   2.123715  -0.035394)
  18:       902.39   12.628774  (  0.035509   3.553437  -0.024517)
  19:       907.26   22.391585  (  4.365356   0.025654   1.826088)
  20:       933.59   14.701800  (  0.433631  -3.809069   0.068985)
  21:       941.80  156.867675  ( 12.522024   0.094054  -0.240290)
  22:      1001.15    7.104116  ( -0.115364  -0.068368  -2.661979)
  23:      1031.52   47.642855  ( -6.536411  -0.025571  -2.217551)
  24:      1086.99    1.368621  (  0.012735  -1.169720   0.014640)
  25:      1125.29   28.160509  ( -3.518174  -0.060025  -3.972324)
  26:      1145.80   41.948467  (  5.172093   0.089090   3.897433)
  27:      1193.23    0.012378  ( -0.103761   0.016134  -0.036764)
  28:      1209.54  101.257608  (  9.082033   0.074491   4.332291)
  29:      1279.42    0.167788  (  0.009560   0.408880  -0.022676)
  30:      1333.13    8.095929  ( -0.001225   2.844624  -0.063588)
  31:      1351.95   11.589844  ( -3.260446  -0.001677   0.979456)
  32:      1368.91    8.798407  ( -2.952435  -0.004496  -0.285509)
  33:      1411.20   17.356370  ( -2.960527   0.010419   2.931133)
  34:      1442.78    2.474664  (  1.544633   0.008326   0.297831)
  35:      1471.92    8.086623  (  0.894920   0.005361   2.699206)
  36:      1474.22   12.557845  ( -0.005235   3.543683  -0.011437)
  37:      1497.35   11.392401  ( -0.272235   0.092234   3.363002)
  38:      1510.49  129.934311  ( -9.698014  -0.093225  -5.989503)
  39:      1522.24   37.392991  (  2.884327   0.088692   5.391269)
  40:      1658.06   53.474134  (  0.055135   7.310470  -0.167693)
  41:      1665.60   41.765989  (  5.108055  -0.127940  -3.956943)
  42:      1741.26    5.229800  (  1.869299   0.015338   1.317302)
  43:      2993.11   62.452098  ( -5.323992  -0.291903  -5.832838)
  44:      3030.43   21.570004  (  0.123678  -4.637570   0.218302)
  45:      3070.92    1.546179  (  1.238855   0.004367   0.106764)
  46:      3110.39    0.264271  ( -0.215920   0.008560   0.466451)
  47:      3122.57    5.942797  ( -1.640989   0.009246   1.802739)
  48:      3138.92    1.172405  (  0.004843  -1.082732   0.008489)
  49:      3169.41    3.943265  ( -1.106274  -0.012980  -1.649017)
  50:      3173.20    0.003067  ( -0.000836   0.055119   0.005305)
  51:      3420.57   53.522548  ( -5.633543  -0.102763  -4.666389)
  52:      3495.71   97.200506  ( -0.048556   9.857429  -0.170990)
  53:      3508.06  115.411224  (  8.445506  -0.098029  -6.638904)

--------------------------
THERMOCHEMISTRY AT 298.15K
--------------------------

Temperature         ... 298.15 K
Pressure            ... 1.00 atm
Total Mass          ... 103.14 AMU

Throughout the following assumptions are being made:
  (1) The electronic state is orbitally nondegenerate
  (2) There are no thermally accessible electronically excited states
  (3) Hindered rotations indicated by low frequency modes) are not
      treated as such but are treated as vibrations and this may
      case some error
  (4) All equations used are the standard statistical mechanics
      equations for an ideal gas
  (5) All vibrations are strinctly harmonic

------------
INNER ENERGY
------------

The inner energy is: U= E(el) + E(ZPE) + E(vib) + E(rot) + E(trans)
    E(el)   - is the total energy from the electronic structure calculation
              = E(kin-el) + E(nuc-el) + E(el-el) + E(nuc-nuc)
    E(ZPE)  - the the zero temperature vibrational energy from the frequency calculation
    E(vib)  - the the finite temperature correction to E(ZPE) due to population
              of excietd vibrational states
    E(rot)  - is the rotational thermal energy
    E(trans)- is the translational thermal energy

Summary of contributions to the inner energy U:
Electronic energy                ...   -343.19169384 Eh
Zero point energy                ...      0.16125261 Eh     101.19 kcal/mol
Thermal vibrational correction   ...      0.00578001 Eh       3.63 kcal/mol
Thermal rotational correction    ...      0.00141627 Eh       0.89 kcal/mol
Thermal translational correction ...      0.00141627 Eh       0.89 kcal/mol
-----------------------------------------------------------------------
Total thermal energy                   -343.02182868 Eh

Summary of corrections to the electronic energy:
(perhaps to be used in another calculation)
Total thermal correction                  0.00861255 Eh       5.40 kcal/mol
Non-thermal (ZPE) correction              0.16125261 Eh     101.19 kcal/mol
-----------------------------------------------------------------------
Total correction                          0.16986516 Eh     106.59 kcal/mol

--------
ENTHALPY
--------

The enthalpy is H = U + kB*T
                kB is Boltzmann's constant
Total free energy                 ...   -343.02182868 Eh
Thermal Enthalpy correction       ...      0.00094421 Eh       0.59 kcal/mol
-----------------------------------------------------------------------
Total Enthalpy                    ...   -343.02088447 Eh

-------
ENTROPY
-------

The entropy contributions are T*S = T*(S(el)+S(vib)+S(rot)+S(trans)
     S(el)   - electronic entropy
     S(vib)  - vibrational entropy
     S(rot)  - rotational entropy
     S(trans)- translational entropy
The entropies will be listed as mutliplied by the temperature to get
units of energy

Electronic entropy                ...      0.00000000 Eh      0.00 kcal/mol
Vibrational entropy               ...      0.01159923 Eh      7.28 kcal/mol
Rotational entropy                ...      0.01214096 Eh      7.62 kcal/mol
Translational entropy             ...      0.01891510 Eh     11.87 kcal/mol
-----------------------------------------------------------------------
Final entropy term                ...      0.04265529 Eh     26.77 kcal/mol

CAUTION: The rotational entropy is not quite correctly treated here
         because it includes a symmetry number that is not yet correctly
         implemented in ORCA!
For a nonlinear molecule the correct rotational entropy is:
    S(rot) = R*(ln(qrot/sn)+1.5)
    R    = 8.31441 J/mol/K = 1.987191683e-3 kcal/mol/K
    qrot = 257130.4836718
    sn is the rotational symmetry number. We have assumed 3 here
       if it is different for your molecule then you should correct
       the printed rotational entropy by manually evaluating the equation
       as given above

For convenience we print out the resulting values for sn=1 - 12:
 sn= 1  qrot/sn=  257130.4837 T*S(rot)=     8.27 kcal/mol T*S(tot)=    27.42 kcal/mol
 sn= 2  qrot/sn=  128565.2418 T*S(rot)=     7.86 kcal/mol T*S(tot)=    27.01 kcal/mol
 sn= 3  qrot/sn=   85710.1612 T*S(rot)=     7.62 kcal/mol T*S(tot)=    26.77 kcal/mol
 sn= 4  qrot/sn=   64282.6209 T*S(rot)=     7.45 kcal/mol T*S(tot)=    26.60 kcal/mol
 sn= 5  qrot/sn=   51426.0967 T*S(rot)=     7.32 kcal/mol T*S(tot)=    26.46 kcal/mol
 sn= 6  qrot/sn=   42855.0806 T*S(rot)=     7.21 kcal/mol T*S(tot)=    26.36 kcal/mol
 sn= 7  qrot/sn=   36732.9262 T*S(rot)=     7.12 kcal/mol T*S(tot)=    26.26 kcal/mol
 sn= 8  qrot/sn=   32141.3105 T*S(rot)=     7.04 kcal/mol T*S(tot)=    26.19 kcal/mol
 sn= 9  qrot/sn=   28570.0537 T*S(rot)=     6.97 kcal/mol T*S(tot)=    26.12 kcal/mol
 sn=10  qrot/sn=   25713.0484 T*S(rot)=     6.91 kcal/mol T*S(tot)=    26.05 kcal/mol
 sn=11  qrot/sn=   23375.4985 T*S(rot)=     6.85 kcal/mol T*S(tot)=    26.00 kcal/mol
 sn=12  qrot/sn=   21427.5403 T*S(rot)=     6.80 kcal/mol T*S(tot)=    25.95 kcal/mol

-------------------
GIBBS FREE ENTHALPY
-------------------

The Gibbs free enthalpy is G = H - T*S

Total enthalpy                    ...   -343.02088447 Eh
Total entropy correction          ...     -0.04265529 Eh    -26.77 kcal/mol
-----------------------------------------------------------------------
Final Gibbs free enthalpy         ...   -343.06353976 Eh

For completeness - the Gibbs free enthalpy minus the electronic energy
G-E(el)                           ...      0.12815408 Eh     80.42 kcal/mol

                             ****ORCA TERMINATED NORMALLY****
TOTAL RUN TIME: 0 days 0 hours 36 minutes 14 seconds 484 msec
