                         Program Version 3.0.3 - RELEASE   -
|  1> ! NORI PBE0 def2-TZVP UseSym TightOPT Freq TightSCF Grid3 FinalGrid5 XYZFile
|  2> % pal
|  3>     nprocs 8
|  4> end
|  5> %method
|  6>     SymThresh 5.0e-2
|  7> end
|  8> % geom
|  9>     MaxIter 10
| 10> end
| 11> % maxcore 2000
| 12> % output
| 13>     printlevel mini
| 14>     print[ P_Basis ] 0
| 15>     print[ P_SCFInfo ] 1
| 16>     print[ P_SCFIterInfo ] 1
| 17>     print[ P_OrbEn ] 0
| 18>     print[ P_Cartesian ] 0
| 19> end
| 20> % elprop
| 21>     Dipole false
| 22> end
| 23> *xyz 1 1
| 24>  C        1.0283381507    -0.1396648262    -0.1837709247
| 25>  C        2.5248755937    -0.1512943145    -0.0434579205
| 26>  O        3.1037992443     0.1205927927    -1.3223514684
| 27>  C        4.4613231994     0.0897602385    -1.3357105944
| 28>  C        5.1500782082     0.7448060672    -2.4809942290
| 29>  C        5.2020856173     1.3885270515    -1.1329602819
| 30>  N        6.4932904651     1.3967723571    -0.4026293305
| 31>  H        0.5655372346    -0.3522736311     0.7813859672
| 32>  H        0.7017114027    -0.8980392610    -0.8962395026
| 33>  H        0.6758372773     0.8345050750    -0.5256538360
| 34>  H        2.8594331049     0.6118182408     0.6734435491
| 35>  H        2.8821398947    -1.1278585462     0.3079073204
| 36>  H        4.9280975902    -0.8112194315    -0.9279091055
| 37>  H        4.5367644438     1.2428001665    -3.2214105425
| 38>  H        6.0395754764     0.2652991591    -2.8742885659
| 39>  H        4.6352148581     2.2921217141    -0.9512276166
| 40>  H        6.9816878197     0.5048064342    -0.5124236552
| 41>  H        6.3552038833     1.5478869329     0.6000179688
| 42>  H        7.1192865356     2.1295637812    -0.7499172319
| 43> *
| 44>
| 45>                          ****END OF INPUT****
 Total Charge           Charge          ....    1
 Multiplicity           Mult            ....    1
 Number of Electrons    NEL             ....   56
FINAL SINGLE POINT ENERGY      -327.181227787570
FINAL SINGLE POINT ENERGY      -327.181228790308

CARTESIAN COORDINATES (ANGSTROEM)
---------------------------------
  C     -1.858649   -0.012353    2.540819
  C     -1.353821    0.438115    1.198279
  O     -0.001501   -0.002635    1.050124
  C      0.589109    0.393771   -0.106606
  C      1.813134   -0.336693   -0.534672
  C      0.538087   -0.544186   -1.287046
  N      0.431992    0.003467   -2.661270
  H     -2.889382    0.319268    2.677822
  H     -1.252115    0.410780    3.342514
  H     -1.833959   -1.099978    2.622129
  H     -1.961264    0.015412    0.385756
  H     -1.383039    1.532101    1.111427
  H      0.549805    1.464392   -0.327106
  H      2.144727   -1.166870    0.076133
  H      2.610425    0.240719   -0.989773
  H      0.007135   -1.481586   -1.188671
  H      0.862826    0.928945   -2.720420
  H     -0.544507    0.101852   -2.950977
  H      0.905751   -0.595522   -3.343879

FINAL SINGLE POINT ENERGY      -327.181229511698
                    ***********************HURRAY********************
 Multiplicity           Mult            ....    1
 Number of Electrons    NEL             ....   56
 Basis Dimension        Dim             ....  289
FINAL SINGLE POINT ENERGY      -327.181229693864

VIBRATIONAL FREQUENCIES
-----------------------

   0:         0.00 cm**-1
   1:         0.00 cm**-1
   2:         0.00 cm**-1
   3:         0.00 cm**-1
   4:         0.00 cm**-1
   5:         0.00 cm**-1
   6:        69.27 cm**-1
   7:        89.91 cm**-1
   8:       141.69 cm**-1
   9:       179.81 cm**-1
  10:       248.42 cm**-1
  11:       273.37 cm**-1
  12:       307.98 cm**-1
  13:       372.26 cm**-1
  14:       463.04 cm**-1
  15:       494.36 cm**-1
  16:       797.49 cm**-1
  17:       812.35 cm**-1
  18:       825.12 cm**-1
  19:       889.54 cm**-1
  20:       905.93 cm**-1
  21:       933.75 cm**-1
  22:      1008.11 cm**-1
  23:      1043.73 cm**-1
  24:      1073.43 cm**-1
  25:      1094.91 cm**-1
  26:      1123.24 cm**-1
  27:      1147.89 cm**-1
  28:      1164.08 cm**-1
  29:      1173.93 cm**-1
  30:      1178.84 cm**-1
  31:      1246.43 cm**-1
  32:      1270.72 cm**-1
  33:      1301.52 cm**-1
  34:      1358.86 cm**-1
  35:      1394.87 cm**-1
  36:      1416.36 cm**-1
  37:      1436.80 cm**-1
  38:      1475.86 cm**-1
  39:      1490.07 cm**-1
  40:      1494.67 cm**-1
  41:      1512.83 cm**-1
  42:      1519.81 cm**-1
  43:      1652.27 cm**-1
  44:      1660.34 cm**-1
  45:      3000.78 cm**-1
  46:      3044.15 cm**-1
  47:      3068.99 cm**-1
  48:      3075.58 cm**-1
  49:      3150.29 cm**-1
  50:      3154.08 cm**-1
  51:      3156.35 cm**-1
  52:      3223.07 cm**-1
  53:      3250.95 cm**-1
  54:      3404.47 cm**-1
  55:      3477.52 cm**-1
  56:      3494.68 cm**-1

IR SPECTRUM
-----------

 Mode    freq (cm**-1)   T**2         TX         TY         TZ
-------------------------------------------------------------------
   6:        69.27    2.947303  (  1.021526   1.368183  -0.178497)
   7:        89.91    3.825082  ( -1.872754  -0.543926   0.148392)
   8:       141.69    6.484578  ( -2.080587   1.287045   0.706577)
   9:       179.81    0.203712  (  0.092966   0.330380  -0.293118)
  10:       248.42    0.277821  ( -0.110063  -0.498323   0.131836)
  11:       273.37    4.065034  ( -0.880869   0.336253   1.782144)
  12:       307.98    0.798811  (  0.329566  -0.741745  -0.374181)
  13:       372.26    7.499737  ( -1.140682  -1.213710  -2.173819)
  14:       463.04    2.856621  ( -1.440579   0.851403   0.237629)
  15:       494.36    9.407161  ( -1.188671   0.833187   2.701855)
  16:       797.49   22.256795  ( -0.350417   3.517819   3.123932)
  17:       812.35    3.385570  (  1.383341  -0.959840   0.742054)
  18:       825.12    2.126835  (  1.255968   0.253054   0.696666)
  19:       889.54    0.443378  (  0.296014   0.343612   0.487529)
  20:       905.93   28.190936  (  3.582280   1.506969   3.617631)
  21:       933.75   12.506926  ( -2.403489   1.809602   1.858900)
  22:      1008.11    8.163745  ( -0.091952   2.842706  -0.272599)
  23:      1043.73   14.140264  (  2.645948  -2.666110   0.176289)
  24:      1073.43    3.026638  ( -0.954300   1.155889   0.883103)
  25:      1094.91   23.142054  (  4.778506   0.544472   0.107144)
  26:      1123.24   62.115783  ( -5.875198   1.079848   5.141183)
  27:      1147.89   48.043925  ( -6.556613   1.700782   1.470404)
  28:      1164.08    5.135697  ( -1.487633   1.181599   1.235503)
  29:      1173.93    0.978365  (  0.078608  -0.747989   0.642415)
  30:      1178.84    8.847644  ( -0.173382   2.268597   1.915999)
  31:      1246.43    2.192619  ( -1.172580  -0.629020   0.649623)
  32:      1270.72  118.782389  ( -6.479362  -0.269370   8.759435)
  33:      1301.52    2.994958  (  0.543930   1.614907   0.301950)
  34:      1358.86   74.999738  (  4.027485  -1.608292  -7.496166)
  35:      1394.87    2.318441  ( -1.386331  -0.625100   0.076009)
  36:      1416.36   30.249294  ( -3.146987  -1.001916   4.397946)
  37:      1436.80    4.644024  ( -2.147939   0.058114  -0.164334)
  38:      1475.86   10.216361  (  1.158523   2.708446   1.240365)
  39:      1490.07    1.336094  (  0.947214  -0.662479  -0.000137)
  40:      1494.67   35.512567  (  5.253450  -2.754089   0.573434)
  41:      1512.83   94.105391  ( -0.095127   3.961683  -8.854457)
  42:      1519.81   50.508600  ( -3.037023  -1.625760   6.216269)
  43:      1652.27   34.649185  ( -4.088259   3.923452   1.594317)
  44:      1660.34   49.023764  (  4.537446   5.125760   1.470350)
  45:      3000.78   39.060603  (  4.196018  -1.519153   4.375638)
  46:      3044.15   30.923775  (  1.292701   5.136855   1.692754)
  47:      3068.99    5.449951  ( -0.849846  -1.034818   1.912293)
  48:      3075.58   21.570622  (  1.426691   3.082831  -3.167227)
  49:      3150.29    8.120101  (  1.628785  -2.305500   0.389654)
  50:      3154.08   10.066803  ( -1.617633  -2.284439  -1.493788)
  51:      3156.35    4.032765  ( -0.880405   1.087636  -1.440382)
  52:      3223.07    2.337475  (  0.353264   1.435239   0.390855)
  53:      3250.95    3.508631  (  0.518272  -1.596762   0.830889)
  54:      3404.47   36.625151  (  0.319633  -0.014965   6.043406)
  55:      3477.52   89.843168  ( -6.595247   6.550918   1.852395)
  56:      3494.68   85.385200  ( -6.897464  -6.041382  -1.145376)

--------------------------
THERMOCHEMISTRY AT 298.15K
--------------------------

Temperature         ... 298.15 K
Pressure            ... 1.00 atm
Total Mass          ... 102.16 AMU

Throughout the following assumptions are being made:
  (1) The electronic state is orbitally nondegenerate
  (2) There are no thermally accessible electronically excited states
  (3) Hindered rotations indicated by low frequency modes) are not
      treated as such but are treated as vibrations and this may
      case some error
  (4) All equations used are the standard statistical mechanics
      equations for an ideal gas
  (5) All vibrations are strinctly harmonic

------------
INNER ENERGY
------------

The inner energy is: U= E(el) + E(ZPE) + E(vib) + E(rot) + E(trans)
    E(el)   - is the total energy from the electronic structure calculation
              = E(kin-el) + E(nuc-el) + E(el-el) + E(nuc-nuc)
    E(ZPE)  - the the zero temperature vibrational energy from the frequency calculation
    E(vib)  - the the finite temperature correction to E(ZPE) due to population
              of excietd vibrational states
    E(rot)  - is the rotational thermal energy
    E(trans)- is the translational thermal energy

Summary of contributions to the inner energy U:
Electronic energy                ...   -327.18122969 Eh
Zero point energy                ...      0.17438181 Eh     109.43 kcal/mol
Thermal vibrational correction   ...      0.00567128 Eh       3.56 kcal/mol
Thermal rotational correction    ...      0.00141627 Eh       0.89 kcal/mol
Thermal translational correction ...      0.00141627 Eh       0.89 kcal/mol
-----------------------------------------------------------------------
Total thermal energy                   -326.99834406 Eh

Summary of corrections to the electronic energy:
(perhaps to be used in another calculation)
Total thermal correction                  0.00850383 Eh       5.34 kcal/mol
Non-thermal (ZPE) correction              0.17438181 Eh     109.43 kcal/mol
-----------------------------------------------------------------------
Total correction                          0.18288563 Eh     114.76 kcal/mol

--------
ENTHALPY
--------

The enthalpy is H = U + kB*T
                kB is Boltzmann's constant
Total free energy                 ...   -326.99834406 Eh
Thermal Enthalpy correction       ...      0.00094421 Eh       0.59 kcal/mol
-----------------------------------------------------------------------
Total Enthalpy                    ...   -326.99739985 Eh

-------
ENTROPY
-------

The entropy contributions are T*S = T*(S(el)+S(vib)+S(rot)+S(trans)
     S(el)   - electronic entropy
     S(vib)  - vibrational entropy
     S(rot)  - rotational entropy
     S(trans)- translational entropy
The entropies will be listed as mutliplied by the temperature to get
units of energy

Electronic entropy                ...      0.00000000 Eh      0.00 kcal/mol
Vibrational entropy               ...      0.01041533 Eh      6.54 kcal/mol
Rotational entropy                ...      0.01224270 Eh      7.68 kcal/mol
Translational entropy             ...      0.01890147 Eh     11.86 kcal/mol
-----------------------------------------------------------------------
Final entropy term                ...      0.04155950 Eh     26.08 kcal/mol

CAUTION: The rotational entropy is not quite correctly treated here
         because it includes a symmetry number that is not yet correctly
         implemented in ORCA!
For a nonlinear molecule the correct rotational entropy is:
    S(rot) = R*(ln(qrot/sn)+1.5)
    R    = 8.31441 J/mol/K = 1.987191683e-3 kcal/mol/K
    qrot = 286384.3509323
    sn is the rotational symmetry number. We have assumed 3 here
       if it is different for your molecule then you should correct
       the printed rotational entropy by manually evaluating the equation
       as given above

For convenience we print out the resulting values for sn=1 - 12:
 sn= 1  qrot/sn=  286384.3509 T*S(rot)=     8.33 kcal/mol T*S(tot)=    26.73 kcal/mol
 sn= 2  qrot/sn=  143192.1755 T*S(rot)=     7.92 kcal/mol T*S(tot)=    26.32 kcal/mol
 sn= 3  qrot/sn=   95461.4503 T*S(rot)=     7.68 kcal/mol T*S(tot)=    26.08 kcal/mol
 sn= 4  qrot/sn=   71596.0877 T*S(rot)=     7.51 kcal/mol T*S(tot)=    25.91 kcal/mol
 sn= 5  qrot/sn=   57276.8702 T*S(rot)=     7.38 kcal/mol T*S(tot)=    25.78 kcal/mol
 sn= 6  qrot/sn=   47730.7252 T*S(rot)=     7.27 kcal/mol T*S(tot)=    25.67 kcal/mol
 sn= 7  qrot/sn=   40912.0501 T*S(rot)=     7.18 kcal/mol T*S(tot)=    25.58 kcal/mol
 sn= 8  qrot/sn=   35798.0439 T*S(rot)=     7.10 kcal/mol T*S(tot)=    25.50 kcal/mol
 sn= 9  qrot/sn=   31820.4834 T*S(rot)=     7.03 kcal/mol T*S(tot)=    25.43 kcal/mol
 sn=10  qrot/sn=   28638.4351 T*S(rot)=     6.97 kcal/mol T*S(tot)=    25.37 kcal/mol
 sn=11  qrot/sn=   26034.9410 T*S(rot)=     6.91 kcal/mol T*S(tot)=    25.31 kcal/mol
 sn=12  qrot/sn=   23865.3626 T*S(rot)=     6.86 kcal/mol T*S(tot)=    25.26 kcal/mol

-------------------
GIBBS FREE ENTHALPY
-------------------

The Gibbs free enthalpy is G = H - T*S

Total enthalpy                    ...   -326.99739985 Eh
Total entropy correction          ...     -0.04155950 Eh    -26.08 kcal/mol
-----------------------------------------------------------------------
Final Gibbs free enthalpy         ...   -327.03895935 Eh

For completeness - the Gibbs free enthalpy minus the electronic energy
G-E(el)                           ...      0.14227034 Eh     89.28 kcal/mol

                             ****ORCA TERMINATED NORMALLY****
TOTAL RUN TIME: 0 days 0 hours 47 minutes 34 seconds 814 msec
