                         Program Version 3.0.3 - RELEASE   -
|  1> ! NORI PBE0 def2-TZVP UseSym TightOPT Freq TightSCF Grid3 FinalGrid5 XYZFile
|  2> % pal
|  3>     nprocs 8
|  4> end
|  5> %method
|  6>     SymThresh 5.0e-2
|  7> end
|  8> % geom
|  9>     MaxIter 10
| 10> end
| 11> % maxcore 2000
| 12> % output
| 13>     printlevel mini
| 14>     print[ P_Basis ] 0
| 15>     print[ P_SCFInfo ] 1
| 16>     print[ P_SCFIterInfo ] 1
| 17>     print[ P_OrbEn ] 0
| 18>     print[ P_Cartesian ] 0
| 19> end
| 20> % elprop
| 21>     Dipole false
| 22> end
| 23> *xyz 1 1
| 24>  C        3.6620380765    -0.5605535225     0.8281344613
| 25>  C        2.5304663515     0.1318205842     0.0953689678
| 26>  O        1.7563589525     0.9451894829     0.9529689240
| 27>  C        3.0372682776     1.0479321846    -0.9966426278
| 28>  C        2.1720220419     2.1343643401    -1.5641622840
| 29>  C        3.3061758160     2.4750562569    -0.6632098730
| 30>  N        4.4975449648     3.1351021579    -1.2528613419
| 31>  H        4.2614240204    -1.1680832256     0.1454610655
| 32>  H        3.2676110245    -1.2289441748     1.5966707864
| 33>  H        4.3109662865     0.1689039654     1.3199819467
| 34>  H        1.8938166238    -0.6221910775    -0.3879530199
| 35>  H        1.3299654052     0.3976989777     1.6175537787
| 36>  H        3.7148954439     0.5673338136    -1.6976975566
| 37>  H        1.1838259536     2.2723657580    -1.1456851497
| 38>  H        2.2589942686     2.3484373309    -2.6239153248
| 39>  H        3.1065685081     2.8344370039     0.3374730434
| 40>  H        4.6867830124     2.7800799056    -2.1926239328
| 41>  H        5.3344753470     2.9715461842    -0.6874468569
| 42>  H        4.3605896252     4.1467340543    -1.3290950063
| 43> *
| 44>
| 45>                          ****END OF INPUT****
 Total Charge           Charge          ....    1
 Multiplicity           Mult            ....    1
 Number of Electrons    NEL             ....   56
FINAL SINGLE POINT ENERGY      -327.202668166167
FINAL SINGLE POINT ENERGY      -327.202669418298

CARTESIAN COORDINATES (ANGSTROEM)
---------------------------------
  C     -1.313531   -1.753552    0.791445
  C     -1.008362   -0.272529    0.897699
  O      0.002336   -0.001827    1.847207
  C     -0.509389    0.299530   -0.411203
  C      0.239721    1.598633   -0.456099
  C      0.958337    0.312488   -0.668214
  N      1.449626   -0.000284   -2.032913
  H     -2.084788   -1.944962    0.041444
  H     -1.684642   -2.136340    1.744330
  H     -0.414590   -2.317811    0.530640
  H     -1.926971    0.272270    1.156158
  H     -0.301986   -0.256278    2.722219
  H     -1.158844    0.098512   -1.258752
  H      0.446550    2.102837    0.478824
  H      0.067716    2.251595   -1.304957
  H      1.634594   -0.055420    0.092031
  H      0.799855    0.340980   -2.744491
  H      1.556465   -1.008416   -2.170783
  H      2.356403    0.440405   -2.209828

FINAL SINGLE POINT ENERGY      -327.202670384122
                    ***********************HURRAY********************
 Multiplicity           Mult            ....    1
 Number of Electrons    NEL             ....   56
 Basis Dimension        Dim             ....  289
FINAL SINGLE POINT ENERGY      -327.202670676895

VIBRATIONAL FREQUENCIES
-----------------------

   0:         0.00 cm**-1
   1:         0.00 cm**-1
   2:         0.00 cm**-1
   3:         0.00 cm**-1
   4:         0.00 cm**-1
   5:         0.00 cm**-1
   6:        78.89 cm**-1
   7:       154.12 cm**-1
   8:       190.74 cm**-1
   9:       224.99 cm**-1
  10:       252.93 cm**-1
  11:       263.55 cm**-1
  12:       327.08 cm**-1
  13:       351.19 cm**-1
  14:       413.81 cm**-1
  15:       487.46 cm**-1
  16:       600.24 cm**-1
  17:       761.25 cm**-1
  18:       808.09 cm**-1
  19:       883.51 cm**-1
  20:       907.92 cm**-1
  21:       924.69 cm**-1
  22:       961.90 cm**-1
  23:      1031.62 cm**-1
  24:      1055.61 cm**-1
  25:      1060.77 cm**-1
  26:      1099.27 cm**-1
  27:      1115.65 cm**-1
  28:      1133.07 cm**-1
  29:      1172.08 cm**-1
  30:      1180.88 cm**-1
  31:      1196.74 cm**-1
  32:      1226.15 cm**-1
  33:      1255.22 cm**-1
  34:      1346.92 cm**-1
  35:      1373.48 cm**-1
  36:      1408.01 cm**-1
  37:      1409.05 cm**-1
  38:      1433.89 cm**-1
  39:      1485.15 cm**-1
  40:      1487.38 cm**-1
  41:      1497.32 cm**-1
  42:      1516.67 cm**-1
  43:      1652.95 cm**-1
  44:      1660.68 cm**-1
  45:      3019.34 cm**-1
  46:      3051.22 cm**-1
  47:      3131.64 cm**-1
  48:      3135.08 cm**-1
  49:      3153.47 cm**-1
  50:      3164.01 cm**-1
  51:      3223.92 cm**-1
  52:      3252.56 cm**-1
  53:      3409.93 cm**-1
  54:      3485.39 cm**-1
  55:      3498.91 cm**-1
  56:      3871.88 cm**-1

IR SPECTRUM
-----------

 Mode    freq (cm**-1)   T**2         TX         TY         TZ
-------------------------------------------------------------------
   6:        78.89    6.141927  ( -0.915989  -1.867568  -1.347249)
   7:       154.12    9.575156  ( -0.781157  -2.431377   1.747385)
   8:       190.74    2.060961  (  0.808723   0.154186   1.176076)
   9:       224.99    5.930413  ( -1.346800   1.295824  -1.561213)
  10:       252.93   63.545951  (  3.113388  -7.277453  -0.944162)
  11:       263.55   57.453805  ( -2.294716   6.506393   3.139256)
  12:       327.08   12.034578  ( -1.778818  -2.317739   1.870420)
  13:       351.19    1.670553  (  0.624731   0.494108  -1.017900)
  14:       413.81    8.318205  ( -1.117581   2.546862   0.763355)
  15:       487.46    3.592444  (  0.656837  -0.640207   1.658657)
  16:       600.24   13.215870  (  2.125394   1.827494   2.314916)
  17:       761.25    2.919864  (  0.790957  -1.203660   0.919485)
  18:       808.09   10.987559  ( -3.299054  -0.062284  -0.316104)
  19:       883.51    5.759284  ( -1.359053  -1.817999  -0.779190)
  20:       907.92    7.878779  ( -1.660059  -0.283868  -2.245529)
  21:       924.69   20.314490  (  3.309579  -2.102521   2.222742)
  22:       961.90    7.787823  (  1.919592  -1.813062  -0.903214)
  23:      1031.62    2.341637  ( -1.500173  -0.219822  -0.206875)
  24:      1055.61   15.987664  ( -0.061931   1.621391  -3.654439)
  25:      1060.77    9.394865  (  2.023003   1.577908  -1.677059)
  26:      1099.27    6.890154  ( -2.510880   0.507955   0.572378)
  27:      1115.65   13.323194  (  1.375443   2.808109   1.883050)
  28:      1133.07    3.041630  (  0.020187   1.735496   0.171104)
  29:      1172.08   20.893594  ( -3.007085  -3.420514  -0.388740)
  30:      1180.88    3.830655  ( -1.826227  -0.270621  -0.649858)
  31:      1196.74   60.484916  ( -4.663498  -0.506662  -6.203225)
  32:      1226.15   38.953993  (  4.709727   1.946274   3.603399)
  33:      1255.22   14.379254  (  2.412863   2.073731   2.063246)
  34:      1346.92    2.665470  ( -1.192771   0.656275   0.901150)
  35:      1373.48    7.223916  (  0.947916   1.943955   1.595748)
  36:      1408.01   15.991737  (  1.883419   3.526385  -0.095265)
  37:      1409.05    5.407515  ( -0.886575   1.457654   1.580109)
  38:      1433.89   27.636270  (  3.753013   3.526989  -1.054281)
  39:      1485.15   19.304585  (  2.489149  -2.526719  -2.593147)
  40:      1487.38   10.702840  (  1.913016   0.727311   2.552298)
  41:      1497.32   37.821664  ( -3.477491   2.152185   4.593128)
  42:      1516.67   87.764946  ( -1.713387   0.329678   9.204377)
  43:      1652.95   30.650664  (  3.122799   4.568296   0.171647)
  44:      1660.68   48.420753  ( -5.164351   3.582601  -2.985833)
  45:      3019.34   19.059816  ( -3.984252   1.781912  -0.101703)
  46:      3051.22    7.188486  (  0.442790  -2.527780  -0.776370)
  47:      3131.64   16.229283  (  3.863730  -1.138581   0.067100)
  48:      3135.08   10.103854  (  0.770910   0.087792  -3.082506)
  49:      3153.47    2.519126  ( -0.573575   0.026558   1.479673)
  50:      3164.01    4.416001  (  0.227303   0.432236   2.043895)
  51:      3223.92    4.594039  (  0.683643  -0.643299   1.926872)
  52:      3252.56    2.503317  (  0.416235   0.526345   1.432838)
  53:      3409.93   36.910854  ( -3.739810   1.250525   4.621781)
  54:      3485.39   91.500072  ( -5.735028  -7.622663  -0.710306)
  55:      3498.91   81.390870  ( -6.108177   5.158805  -4.179447)
  56:      3871.88   81.079319  (  0.579049   0.923988  -8.938136)

--------------------------
THERMOCHEMISTRY AT 298.15K
--------------------------

Temperature         ... 298.15 K
Pressure            ... 1.00 atm
Total Mass          ... 102.16 AMU

Throughout the following assumptions are being made:
  (1) The electronic state is orbitally nondegenerate
  (2) There are no thermally accessible electronically excited states
  (3) Hindered rotations indicated by low frequency modes) are not
      treated as such but are treated as vibrations and this may
      case some error
  (4) All equations used are the standard statistical mechanics
      equations for an ideal gas
  (5) All vibrations are strinctly harmonic

------------
INNER ENERGY
------------

The inner energy is: U= E(el) + E(ZPE) + E(vib) + E(rot) + E(trans)
    E(el)   - is the total energy from the electronic structure calculation
              = E(kin-el) + E(nuc-el) + E(el-el) + E(nuc-nuc)
    E(ZPE)  - the the zero temperature vibrational energy from the frequency calculation
    E(vib)  - the the finite temperature correction to E(ZPE) due to population
              of excietd vibrational states
    E(rot)  - is the rotational thermal energy
    E(trans)- is the translational thermal energy

Summary of contributions to the inner energy U:
Electronic energy                ...   -327.20267068 Eh
Zero point energy                ...      0.17493647 Eh     109.77 kcal/mol
Thermal vibrational correction   ...      0.00557291 Eh       3.50 kcal/mol
Thermal rotational correction    ...      0.00141627 Eh       0.89 kcal/mol
Thermal translational correction ...      0.00141627 Eh       0.89 kcal/mol
-----------------------------------------------------------------------
Total thermal energy                   -327.01932875 Eh

Summary of corrections to the electronic energy:
(perhaps to be used in another calculation)
Total thermal correction                  0.00840546 Eh       5.27 kcal/mol
Non-thermal (ZPE) correction              0.17493647 Eh     109.77 kcal/mol
-----------------------------------------------------------------------
Total correction                          0.18334192 Eh     115.05 kcal/mol

--------
ENTHALPY
--------

The enthalpy is H = U + kB*T
                kB is Boltzmann's constant
Total free energy                 ...   -327.01932875 Eh
Thermal Enthalpy correction       ...      0.00094421 Eh       0.59 kcal/mol
-----------------------------------------------------------------------
Total Enthalpy                    ...   -327.01838454 Eh

-------
ENTROPY
-------

The entropy contributions are T*S = T*(S(el)+S(vib)+S(rot)+S(trans)
     S(el)   - electronic entropy
     S(vib)  - vibrational entropy
     S(rot)  - rotational entropy
     S(trans)- translational entropy
The entropies will be listed as mutliplied by the temperature to get
units of energy

Electronic entropy                ...      0.00000000 Eh      0.00 kcal/mol
Vibrational entropy               ...      0.00961603 Eh      6.03 kcal/mol
Rotational entropy                ...      0.01213845 Eh      7.62 kcal/mol
Translational entropy             ...      0.01890147 Eh     11.86 kcal/mol
-----------------------------------------------------------------------
Final entropy term                ...      0.04065594 Eh     25.51 kcal/mol

CAUTION: The rotational entropy is not quite correctly treated here
         because it includes a symmetry number that is not yet correctly
         implemented in ORCA!
For a nonlinear molecule the correct rotational entropy is:
    S(rot) = R*(ln(qrot/sn)+1.5)
    R    = 8.31441 J/mol/K = 1.987191683e-3 kcal/mol/K
    qrot = 256445.4537605
    sn is the rotational symmetry number. We have assumed 3 here
       if it is different for your molecule then you should correct
       the printed rotational entropy by manually evaluating the equation
       as given above

For convenience we print out the resulting values for sn=1 - 12:
 sn= 1  qrot/sn=  256445.4538 T*S(rot)=     8.27 kcal/mol T*S(tot)=    26.16 kcal/mol
 sn= 2  qrot/sn=  128222.7269 T*S(rot)=     7.86 kcal/mol T*S(tot)=    25.75 kcal/mol
 sn= 3  qrot/sn=   85481.8179 T*S(rot)=     7.62 kcal/mol T*S(tot)=    25.51 kcal/mol
 sn= 4  qrot/sn=   64111.3634 T*S(rot)=     7.45 kcal/mol T*S(tot)=    25.34 kcal/mol
 sn= 5  qrot/sn=   51289.0908 T*S(rot)=     7.31 kcal/mol T*S(tot)=    25.21 kcal/mol
 sn= 6  qrot/sn=   42740.9090 T*S(rot)=     7.21 kcal/mol T*S(tot)=    25.10 kcal/mol
 sn= 7  qrot/sn=   36635.0648 T*S(rot)=     7.11 kcal/mol T*S(tot)=    25.01 kcal/mol
 sn= 8  qrot/sn=   32055.6817 T*S(rot)=     7.04 kcal/mol T*S(tot)=    24.93 kcal/mol
 sn= 9  qrot/sn=   28493.9393 T*S(rot)=     6.97 kcal/mol T*S(tot)=    24.86 kcal/mol
 sn=10  qrot/sn=   25644.5454 T*S(rot)=     6.90 kcal/mol T*S(tot)=    24.80 kcal/mol
 sn=11  qrot/sn=   23313.2231 T*S(rot)=     6.85 kcal/mol T*S(tot)=    24.74 kcal/mol
 sn=12  qrot/sn=   21370.4545 T*S(rot)=     6.80 kcal/mol T*S(tot)=    24.69 kcal/mol

-------------------
GIBBS FREE ENTHALPY
-------------------

The Gibbs free enthalpy is G = H - T*S

Total enthalpy                    ...   -327.01838454 Eh
Total entropy correction          ...     -0.04065594 Eh    -25.51 kcal/mol
-----------------------------------------------------------------------
Final Gibbs free enthalpy         ...   -327.05904048 Eh

For completeness - the Gibbs free enthalpy minus the electronic energy
G-E(el)                           ...      0.14363020 Eh     90.13 kcal/mol

                             ****ORCA TERMINATED NORMALLY****
TOTAL RUN TIME: 0 days 0 hours 53 minutes 14 seconds 741 msec
