                         Program Version 3.0.3 - RELEASE   -
|  1> ! NORI PBE0 def2-TZVP UseSym TightOPT Freq TightSCF Grid3 FinalGrid5 XYZFile
|  2> % pal
|  3>     nprocs 8
|  4> end
|  5> %method
|  6>     SymThresh 5.0e-2
|  7> end
|  8> % geom
|  9>     MaxIter 10
| 10> end
| 11> % maxcore 2000
| 12> % output
| 13>     printlevel mini
| 14>     print[ P_Basis ] 0
| 15>     print[ P_SCFInfo ] 1
| 16>     print[ P_SCFIterInfo ] 1
| 17>     print[ P_OrbEn ] 0
| 18>     print[ P_Cartesian ] 0
| 19> end
| 20> % elprop
| 21>     Dipole false
| 22> end
| 23> *xyz 1 1
| 24>  C        1.9533432255    -0.5460071380    -1.0200054131
| 25>  C        2.5451584620     0.1894050234     0.1247978455
| 26>  O        2.3449937343    -0.0561507445     1.2894054690
| 27>  C        3.4682963615     1.3665854792    -0.1864124283
| 28>  C        2.7664174252     2.7164270918    -0.4678572677
| 29>  C        3.3960936641     3.2553215355     0.8247696833
| 30>  N        3.9828864708     1.8935361900     1.1230103868
| 31>  H        1.6090240686     0.1386495151    -1.7994989150
| 32>  H        1.1368289443    -1.1798345261    -0.6798298631
| 33>  H        2.7290046832    -1.1757228440    -1.4707422591
| 34>  H        4.2713260386     1.1002263191    -0.8731778999
| 35>  H        1.6786456783     2.6626885373    -0.4476792815
| 36>  H        3.0848196004     3.2158822278    -1.3793310128
| 37>  H        2.7230197735     3.5799639533     1.6149939617
| 38>  H        4.1895953665     3.9854637100     0.6845341107
| 39>  H        4.9872074805     1.8517497948     1.2817331135
| 40>  H        3.4851290227     1.3485458754     1.8538597700
| 41> *
| 42>
| 43>                          ****END OF INPUT****
 Total Charge           Charge          ....    1
 Multiplicity           Mult            ....    1
 Number of Electrons    NEL             ....   54
FINAL SINGLE POINT ENERGY      -326.006937065001

CARTESIAN COORDINATES (ANGSTROEM)
---------------------------------
  C     -2.035251   -0.925445    0.906116
  C     -0.635170   -0.439609    0.832509
  O     -0.000352    0.000605    1.759865
  C      0.059624   -0.476345   -0.527925
  C     -0.225717    0.724479   -1.461216
  C      1.250184    1.122344   -1.316456
  N      1.470312   -0.000378   -0.326993
  H     -2.625510   -0.572042    0.056714
  H     -2.492694   -0.617781    1.844166
  H     -2.029240   -2.020150    0.854886
  H      0.014097   -1.459272   -0.996096
  H     -0.927221    1.448463   -1.049362
  H     -0.535074    0.457259   -2.468442
  H      1.469072    2.091224   -0.873868
  H      1.860796    0.968625   -2.202878
  H      2.219468   -0.656210   -0.536789
  H      1.523124    0.292103    0.668347

FINAL SINGLE POINT ENERGY      -326.006937635101
                    ***********************HURRAY********************
 Multiplicity           Mult            ....    1
 Number of Electrons    NEL             ....   54
 Basis Dimension        Dim             ....  277
FINAL SINGLE POINT ENERGY      -326.006937852736

VIBRATIONAL FREQUENCIES
-----------------------

   0:         0.00 cm**-1
   1:         0.00 cm**-1
   2:         0.00 cm**-1
   3:         0.00 cm**-1
   4:         0.00 cm**-1
   5:         0.00 cm**-1
   6:        64.85 cm**-1
   7:        93.55 cm**-1
   8:       120.21 cm**-1
   9:       206.82 cm**-1
  10:       291.93 cm**-1
  11:       391.71 cm**-1
  12:       572.36 cm**-1
  13:       613.82 cm**-1
  14:       702.72 cm**-1
  15:       779.92 cm**-1
  16:       819.30 cm**-1
  17:       868.11 cm**-1
  18:       936.41 cm**-1
  19:       951.66 cm**-1
  20:       969.39 cm**-1
  21:       995.92 cm**-1
  22:      1019.47 cm**-1
  23:      1040.06 cm**-1
  24:      1105.01 cm**-1
  25:      1140.80 cm**-1
  26:      1204.58 cm**-1
  27:      1242.80 cm**-1
  28:      1258.57 cm**-1
  29:      1281.68 cm**-1
  30:      1293.81 cm**-1
  31:      1302.04 cm**-1
  32:      1344.86 cm**-1
  33:      1369.54 cm**-1
  34:      1394.84 cm**-1
  35:      1443.62 cm**-1
  36:      1459.83 cm**-1
  37:      1486.35 cm**-1
  38:      1502.02 cm**-1
  39:      1629.50 cm**-1
  40:      1818.61 cm**-1
  41:      3052.25 cm**-1
  42:      3119.25 cm**-1
  43:      3122.40 cm**-1
  44:      3131.60 cm**-1
  45:      3140.66 cm**-1
  46:      3182.08 cm**-1
  47:      3184.36 cm**-1
  48:      3201.30 cm**-1
  49:      3209.77 cm**-1
  50:      3527.30 cm**-1

IR SPECTRUM
-----------

 Mode    freq (cm**-1)   T**2         TX         TY         TZ
-------------------------------------------------------------------
   6:        64.85    0.308787  ( -0.485507   0.192181   0.190095)
   7:        93.55    1.828653  ( -0.052895   1.264867  -0.475358)
   8:       120.21    7.346068  (  0.165670   2.657341  -0.507108)
   9:       206.82    3.966027  (  1.359977  -0.709247  -1.270220)
  10:       291.93   21.754260  (  2.668800   0.066001  -3.824580)
  11:       391.71   35.996820  ( -5.094304  -1.539407   2.770399)
  12:       572.36    0.971641  (  0.896650   0.228597  -0.339711)
  13:       613.82   11.702346  (  2.564052   0.598794  -2.183903)
  14:       702.72   13.707147  (  2.609016   0.121502  -2.624009)
  15:       779.92    1.824275  (  0.370265   1.157969   0.588461)
  16:       819.30    0.216657  (  0.132228   0.368715  -0.251440)
  17:       868.11    9.216001  ( -2.180361   0.738535   1.979038)
  18:       936.41    3.498353  (  1.452700  -0.513863   1.060171)
  19:       951.66    5.950089  ( -2.397798  -0.006621  -0.447896)
  20:       969.39    5.454442  (  1.061714  -2.060666  -0.284363)
  21:       995.92    5.764788  ( -0.625311  -1.067303   2.057824)
  22:      1019.47    2.590462  (  0.955220   1.027689   0.788589)
  23:      1040.06    1.375256  (  0.955447   0.204442   0.648521)
  24:      1105.01    1.581595  ( -0.156886   1.024894  -0.711740)
  25:      1140.80   13.669996  (  2.195262   1.087019  -2.769334)
  26:      1204.58   18.374344  ( -2.874115  -0.203418   3.173709)
  27:      1242.80   80.255576  (  6.042402   2.629964  -6.068628)
  28:      1258.57   59.474017  ( -5.913531  -3.702652   3.285505)
  29:      1281.68    1.467513  ( -0.124717  -0.516711   1.088562)
  30:      1293.81    4.227485  (  1.862894   0.822909   0.282720)
  31:      1302.04   96.947914  ( -7.742080  -6.033944   0.774354)
  32:      1344.86   17.810514  ( -2.038456  -2.511444   2.710694)
  33:      1369.54   14.254245  ( -2.750848  -1.265030  -2.255389)
  34:      1394.84   48.505945  (  5.571961   3.462716  -2.338544)
  35:      1443.62   17.038766  (  1.937173   1.447086   3.345455)
  36:      1459.83   15.844250  (  2.601706  -3.012208  -0.044439)
  37:      1486.35   10.255862  ( -3.182251  -0.209711  -0.291826)
  38:      1502.02    7.288050  ( -0.512606   2.365127  -1.196435)
  39:      1629.50   67.954919  ( -6.906025   1.132726  -4.356452)
  40:      1818.61  115.988425  (  5.769284   3.407290   8.431736)
  41:      3052.25    9.254318  ( -2.363495  -1.413788   1.292057)
  42:      3119.25    0.667877  ( -0.247822  -0.684373  -0.371611)
  43:      3122.40    0.422124  ( -0.618742   0.132179  -0.147687)
  44:      3131.60    1.389134  (  0.871603   0.387980  -0.692035)
  45:      3140.66    0.193730  (  0.191341  -0.235423  -0.318896)
  46:      3182.08    0.087783  (  0.076664   0.217484   0.186029)
  47:      3184.36    1.077911  ( -0.099048  -0.773265  -0.685684)
  48:      3201.30   10.347170  ( -0.906783  -0.487442   3.047510)
  49:      3209.77  179.981279  ( -3.704284  -0.548012  12.882517)
  50:      3527.30  103.293497  (  8.029985  -5.365014  -3.166933)

--------------------------
THERMOCHEMISTRY AT 298.15K
--------------------------

Temperature         ... 298.15 K
Pressure            ... 1.00 atm
Total Mass          ... 100.14 AMU

Throughout the following assumptions are being made:
  (1) The electronic state is orbitally nondegenerate
  (2) There are no thermally accessible electronically excited states
  (3) Hindered rotations indicated by low frequency modes) are not
      treated as such but are treated as vibrations and this may
      case some error
  (4) All equations used are the standard statistical mechanics
      equations for an ideal gas
  (5) All vibrations are strinctly harmonic

------------
INNER ENERGY
------------

The inner energy is: U= E(el) + E(ZPE) + E(vib) + E(rot) + E(trans)
    E(el)   - is the total energy from the electronic structure calculation
              = E(kin-el) + E(nuc-el) + E(el-el) + E(nuc-nuc)
    E(ZPE)  - the the zero temperature vibrational energy from the frequency calculation
    E(vib)  - the the finite temperature correction to E(ZPE) due to population
              of excietd vibrational states
    E(rot)  - is the rotational thermal energy
    E(trans)- is the translational thermal energy

Summary of contributions to the inner energy U:
Electronic energy                ...   -326.00693785 Eh
Zero point energy                ...      0.15169786 Eh      95.19 kcal/mol
Thermal vibrational correction   ...      0.00461591 Eh       2.90 kcal/mol
Thermal rotational correction    ...      0.00141627 Eh       0.89 kcal/mol
Thermal translational correction ...      0.00141627 Eh       0.89 kcal/mol
-----------------------------------------------------------------------
Total thermal energy                   -325.84779154 Eh

Summary of corrections to the electronic energy:
(perhaps to be used in another calculation)
Total thermal correction                  0.00744846 Eh       4.67 kcal/mol
Non-thermal (ZPE) correction              0.15169786 Eh      95.19 kcal/mol
-----------------------------------------------------------------------
Total correction                          0.15914631 Eh      99.87 kcal/mol

--------
ENTHALPY
--------

The enthalpy is H = U + kB*T
                kB is Boltzmann's constant
Total free energy                 ...   -325.84779154 Eh
Thermal Enthalpy correction       ...      0.00094421 Eh       0.59 kcal/mol
-----------------------------------------------------------------------
Total Enthalpy                    ...   -325.84684733 Eh

-------
ENTROPY
-------

The entropy contributions are T*S = T*(S(el)+S(vib)+S(rot)+S(trans)
     S(el)   - electronic entropy
     S(vib)  - vibrational entropy
     S(rot)  - rotational entropy
     S(trans)- translational entropy
The entropies will be listed as mutliplied by the temperature to get
units of energy

Electronic entropy                ...      0.00000000 Eh      0.00 kcal/mol
Vibrational entropy               ...      0.00871830 Eh      5.47 kcal/mol
Rotational entropy                ...      0.01194533 Eh      7.50 kcal/mol
Translational entropy             ...      0.01887324 Eh     11.84 kcal/mol
-----------------------------------------------------------------------
Final entropy term                ...      0.03953687 Eh     24.81 kcal/mol

CAUTION: The rotational entropy is not quite correctly treated here
         because it includes a symmetry number that is not yet correctly
         implemented in ORCA!
For a nonlinear molecule the correct rotational entropy is:
    S(rot) = R*(ln(qrot/sn)+1.5)
    R    = 8.31441 J/mol/K = 1.987191683e-3 kcal/mol/K
    qrot = 209009.1845056
    sn is the rotational symmetry number. We have assumed 3 here
       if it is different for your molecule then you should correct
       the printed rotational entropy by manually evaluating the equation
       as given above

For convenience we print out the resulting values for sn=1 - 12:
 sn= 1  qrot/sn=  209009.1845 T*S(rot)=     8.15 kcal/mol T*S(tot)=    25.46 kcal/mol
 sn= 2  qrot/sn=  104504.5923 T*S(rot)=     7.74 kcal/mol T*S(tot)=    25.05 kcal/mol
 sn= 3  qrot/sn=   69669.7282 T*S(rot)=     7.50 kcal/mol T*S(tot)=    24.81 kcal/mol
 sn= 4  qrot/sn=   52252.2961 T*S(rot)=     7.33 kcal/mol T*S(tot)=    24.64 kcal/mol
 sn= 5  qrot/sn=   41801.8369 T*S(rot)=     7.19 kcal/mol T*S(tot)=    24.51 kcal/mol
 sn= 6  qrot/sn=   34834.8641 T*S(rot)=     7.09 kcal/mol T*S(tot)=    24.40 kcal/mol
 sn= 7  qrot/sn=   29858.4549 T*S(rot)=     6.99 kcal/mol T*S(tot)=    24.31 kcal/mol
 sn= 8  qrot/sn=   26126.1481 T*S(rot)=     6.91 kcal/mol T*S(tot)=    24.23 kcal/mol
 sn= 9  qrot/sn=   23223.2427 T*S(rot)=     6.84 kcal/mol T*S(tot)=    24.16 kcal/mol
 sn=10  qrot/sn=   20900.9185 T*S(rot)=     6.78 kcal/mol T*S(tot)=    24.10 kcal/mol
 sn=11  qrot/sn=   19000.8350 T*S(rot)=     6.73 kcal/mol T*S(tot)=    24.04 kcal/mol
 sn=12  qrot/sn=   17417.4320 T*S(rot)=     6.67 kcal/mol T*S(tot)=    23.99 kcal/mol

-------------------
GIBBS FREE ENTHALPY
-------------------

The Gibbs free enthalpy is G = H - T*S

Total enthalpy                    ...   -325.84684733 Eh
Total entropy correction          ...     -0.03953687 Eh    -24.81 kcal/mol
-----------------------------------------------------------------------
Final Gibbs free enthalpy         ...   -325.88638420 Eh

For completeness - the Gibbs free enthalpy minus the electronic energy
G-E(el)                           ...      0.12055366 Eh     75.65 kcal/mol

                             ****ORCA TERMINATED NORMALLY****
TOTAL RUN TIME: 0 days 0 hours 44 minutes 52 seconds 142 msec
