                         Program Version 3.0.3 - RELEASE   -
|  1> ! NORI PBE0 def2-TZVP UseSym TightOPT Freq TightSCF Grid3 FinalGrid5 XYZFile
|  2> % pal
|  3>     nprocs 8
|  4> end
|  5> %method
|  6>     SymThresh 5.0e-2
|  7> end
|  8> % geom
|  9>     MaxIter 10
| 10> end
| 11> % maxcore 2000
| 12> % output
| 13>     printlevel mini
| 14>     print[ P_Basis ] 0
| 15>     print[ P_SCFInfo ] 1
| 16>     print[ P_SCFIterInfo ] 1
| 17>     print[ P_OrbEn ] 0
| 18>     print[ P_Cartesian ] 0
| 19> end
| 20> % elprop
| 21>     Dipole false
| 22> end
| 23> *xyz 1 1
| 24>  C        1.3525068805    -0.8974195367     0.1082957518
| 25>  C        2.7440949373    -0.3233455967    -0.0561928199
| 26>  O        3.7498588041    -1.1923388569     0.4371379150
| 27>  C        3.1338826651    -0.0990414068    -1.5040299549
| 28>  C        4.4994822200     0.5289702877    -1.8265765936
| 29>  C        4.7750064051    -0.6550533177    -2.7575645157
| 30>  N        3.6044456751    -1.3971927602    -2.1525540131
| 31>  H        0.5979006839    -0.2062609262    -0.2728615259
| 32>  H        1.1342733509    -1.0685568303     1.1642560181
| 33>  H        1.2470324659    -1.8541060753    -0.4100895600
| 34>  H        2.8063320825     0.6562648853     0.4366323562
| 35>  H        3.5851530804    -1.4090006512     1.3593495818
| 36>  H        2.3139698898     0.3172627358    -2.0880669564
| 37>  H        4.4765060395     1.5106750444    -2.2920544838
| 38>  H        5.1570117715     0.5454054187    -0.9584415889
| 39>  H        4.5675064393    -0.4592056833    -3.8079154020
| 40>  H        5.7106506385    -1.1992419932    -2.6525541715
| 41>  H        3.8931176595    -2.0235412575    -1.3909692641
| 42>  H        2.9724383111    -1.8805534799    -2.7866307730
| 43> *
| 44>
| 45>                          ****END OF INPUT****
 Total Charge           Charge          ....    1
 Multiplicity           Mult            ....    1
 Number of Electrons    NEL             ....   56
FINAL SINGLE POINT ENERGY      -327.218962820323
FINAL SINGLE POINT ENERGY      -327.218965328201
FINAL SINGLE POINT ENERGY      -327.218966517532

CARTESIAN COORDINATES (ANGSTROEM)
---------------------------------
  C     -0.827174   -2.102757    0.743002
  C     -0.857410   -0.589711    0.685568
  O     -0.007024    0.005778    1.650998
  C     -0.360533   -0.029334   -0.632371
  C     -0.368381    1.492208   -0.853366
  C      1.111235    1.399436   -1.237269
  N      1.164169   -0.003863   -0.676704
  H     -1.490392   -2.534692   -0.009383
  H     -1.168724   -2.453255    1.719020
  H      0.182718   -2.492991    0.587357
  H     -1.888054   -0.229689    0.806259
  H     -0.238596   -0.293829    2.534861
  H     -0.735490   -0.595637   -1.484298
  H     -1.042263    1.859820   -1.622715
  H     -0.529378    2.038975    0.074422
  H      1.295718    1.360670   -2.308975
  H      1.821909    2.066417   -0.755407
  H      1.491606   -0.021221    0.296760
  H      1.645891   -0.713795   -1.223405

FINAL SINGLE POINT ENERGY      -327.218966755566
                    ***********************HURRAY********************
 Multiplicity           Mult            ....    1
 Number of Electrons    NEL             ....   56
 Basis Dimension        Dim             ....  289
FINAL SINGLE POINT ENERGY      -327.218966889849

VIBRATIONAL FREQUENCIES
-----------------------

   0:         0.00 cm**-1
   1:         0.00 cm**-1
   2:         0.00 cm**-1
   3:         0.00 cm**-1
   4:         0.00 cm**-1
   5:         0.00 cm**-1
   6:       100.79 cm**-1
   7:       111.75 cm**-1
   8:       210.21 cm**-1
   9:       252.15 cm**-1
  10:       300.13 cm**-1
  11:       303.42 cm**-1
  12:       362.45 cm**-1
  13:       481.66 cm**-1
  14:       625.28 cm**-1
  15:       656.79 cm**-1
  16:       779.87 cm**-1
  17:       823.21 cm**-1
  18:       881.46 cm**-1
  19:       889.90 cm**-1
  20:       946.76 cm**-1
  21:       950.18 cm**-1
  22:       996.34 cm**-1
  23:      1029.54 cm**-1
  24:      1054.96 cm**-1
  25:      1081.98 cm**-1
  26:      1103.80 cm**-1
  27:      1147.16 cm**-1
  28:      1176.61 cm**-1
  29:      1215.46 cm**-1
  30:      1256.80 cm**-1
  31:      1270.93 cm**-1
  32:      1280.38 cm**-1
  33:      1306.52 cm**-1
  34:      1319.19 cm**-1
  35:      1342.15 cm**-1
  36:      1358.50 cm**-1
  37:      1381.45 cm**-1
  38:      1416.20 cm**-1
  39:      1421.08 cm**-1
  40:      1482.88 cm**-1
  41:      1486.97 cm**-1
  42:      1490.32 cm**-1
  43:      1501.71 cm**-1
  44:      1626.59 cm**-1
  45:      3033.54 cm**-1
  46:      3052.58 cm**-1
  47:      3124.06 cm**-1
  48:      3126.27 cm**-1
  49:      3130.38 cm**-1
  50:      3139.86 cm**-1
  51:      3143.93 cm**-1
  52:      3185.86 cm**-1
  53:      3199.04 cm**-1
  54:      3374.53 cm**-1
  55:      3532.45 cm**-1
  56:      3863.59 cm**-1

IR SPECTRUM
-----------

 Mode    freq (cm**-1)   T**2         TX         TY         TZ
-------------------------------------------------------------------
   6:       100.79    3.990354  (  0.090560  -1.728403  -0.997385)
   7:       111.75    1.574288  ( -0.306515  -1.215569  -0.052247)
   8:       210.21    4.185363  ( -1.169417  -0.707033   1.522476)
   9:       252.15    2.365580  (  0.393709  -1.269892  -0.773270)
  10:       300.13   84.837521  (  4.577310  -7.986365  -0.322062)
  11:       303.42   42.991300  ( -3.378231   2.057241   5.229399)
  12:       362.45   18.990732  (  2.233534  -3.736969  -0.192667)
  13:       481.66    5.096117  ( -1.004500   1.526289  -1.325721)
  14:       625.28    6.751978  ( -2.412698  -0.677429  -0.686992)
  15:       656.79   11.820138  (  0.578109   1.327158   3.118426)
  16:       779.87    2.126582  ( -1.094758  -0.761219  -0.590452)
  17:       823.21    5.390732  ( -0.058399  -0.912609  -2.134120)
  18:       881.46   11.490722  ( -2.380732   0.532306   2.353611)
  19:       889.90    5.392653  ( -0.836441   0.228533  -2.154250)
  20:       946.76   13.295353  (  0.236150   3.551141   0.793087)
  21:       950.18   11.996142  ( -3.148159  -0.165874  -1.434475)
  22:       996.34    1.782578  (  0.922373   0.790643   0.553796)
  23:      1029.54   10.578443  ( -1.603511  -0.129194  -2.826748)
  24:      1054.96    4.836390  (  0.419662   1.103549   1.855385)
  25:      1081.98    1.102208  (  0.029450  -0.459230   0.943636)
  26:      1103.80   51.569762  ( -2.306350  -2.002076  -6.499400)
  27:      1147.16    6.771685  ( -1.645270   0.043463  -2.015659)
  28:      1176.61   24.594737  ( -3.552880  -2.455489  -2.437695)
  29:      1215.46   12.912641  ( -1.278625  -1.830397  -2.815565)
  30:      1256.80   21.438617  (  3.678692   2.789656   0.351655)
  31:      1270.93   44.289727  (  5.086491   2.508235  -3.482254)
  32:      1280.38   25.334903  ( -3.669177  -3.309492   0.958806)
  33:      1306.52   12.866115  (  3.202307   1.588525   0.296537)
  34:      1319.19   61.485975  ( -5.904181  -5.123091   0.616899)
  35:      1342.15    7.057995  (  2.296546   1.218126   0.547760)
  36:      1358.50    4.710562  ( -1.318731  -1.637846   0.537560)
  37:      1381.45   22.132953  (  3.337725   1.929603  -2.696141)
  38:      1416.20    6.561276  ( -0.689024   2.465910   0.076236)
  39:      1421.08   17.394136  ( -1.431460  -3.824342  -0.848215)
  40:      1482.88   14.266921  (  3.013078  -2.204102  -0.574643)
  41:      1486.97    8.978123  (  0.877801   1.267341   2.569326)
  42:      1490.32   10.973943  ( -3.080338   1.065186   0.592319)
  43:      1501.71    7.478014  ( -0.924997  -1.984486   1.638355)
  44:      1626.59   41.975479  ( -5.437958   3.228347  -1.407788)
  45:      3033.54    7.997084  (  2.323571  -0.812254   1.392244)
  46:      3052.58    5.438752  ( -1.783730   1.494485   0.153534)
  47:      3124.06    0.440106  ( -0.177988   0.429840  -0.472931)
  48:      3126.27    2.206560  ( -1.173057  -0.456714   0.788613)
  49:      3130.38   10.329402  (  3.092231  -0.233225  -0.844463)
  50:      3139.86    1.334327  (  0.302663  -0.613099   0.931038)
  51:      3143.93    3.739629  ( -0.704647  -0.508355  -1.727622)
  52:      3185.86    0.130663  (  0.043255   0.343805  -0.102912)
  53:      3199.04    0.087154  (  0.213109   0.116592  -0.167765)
  54:      3374.53  106.010736  ( -2.289316   3.167273  -9.525657)
  55:      3532.45   89.155440  (  4.032355  -4.525699  -7.239724)
  56:      3863.59  105.201811  ( -0.734831  -1.096000  10.171559)

--------------------------
THERMOCHEMISTRY AT 298.15K
--------------------------

Temperature         ... 298.15 K
Pressure            ... 1.00 atm
Total Mass          ... 102.16 AMU

Throughout the following assumptions are being made:
  (1) The electronic state is orbitally nondegenerate
  (2) There are no thermally accessible electronically excited states
  (3) Hindered rotations indicated by low frequency modes) are not
      treated as such but are treated as vibrations and this may
      case some error
  (4) All equations used are the standard statistical mechanics
      equations for an ideal gas
  (5) All vibrations are strinctly harmonic

------------
INNER ENERGY
------------

The inner energy is: U= E(el) + E(ZPE) + E(vib) + E(rot) + E(trans)
    E(el)   - is the total energy from the electronic structure calculation
              = E(kin-el) + E(nuc-el) + E(el-el) + E(nuc-nuc)
    E(ZPE)  - the the zero temperature vibrational energy from the frequency calculation
    E(vib)  - the the finite temperature correction to E(ZPE) due to population
              of excietd vibrational states
    E(rot)  - is the rotational thermal energy
    E(trans)- is the translational thermal energy

Summary of contributions to the inner energy U:
Electronic energy                ...   -327.21896689 Eh
Zero point energy                ...      0.17616986 Eh     110.55 kcal/mol
Thermal vibrational correction   ...      0.00486266 Eh       3.05 kcal/mol
Thermal rotational correction    ...      0.00141627 Eh       0.89 kcal/mol
Thermal translational correction ...      0.00141627 Eh       0.89 kcal/mol
-----------------------------------------------------------------------
Total thermal energy                   -327.03510183 Eh

Summary of corrections to the electronic energy:
(perhaps to be used in another calculation)
Total thermal correction                  0.00769520 Eh       4.83 kcal/mol
Non-thermal (ZPE) correction              0.17616986 Eh     110.55 kcal/mol
-----------------------------------------------------------------------
Total correction                          0.18386506 Eh     115.38 kcal/mol

--------
ENTHALPY
--------

The enthalpy is H = U + kB*T
                kB is Boltzmann's constant
Total free energy                 ...   -327.03510183 Eh
Thermal Enthalpy correction       ...      0.00094421 Eh       0.59 kcal/mol
-----------------------------------------------------------------------
Total Enthalpy                    ...   -327.03415762 Eh

-------
ENTROPY
-------

The entropy contributions are T*S = T*(S(el)+S(vib)+S(rot)+S(trans)
     S(el)   - electronic entropy
     S(vib)  - vibrational entropy
     S(rot)  - rotational entropy
     S(trans)- translational entropy
The entropies will be listed as mutliplied by the temperature to get
units of energy

Electronic entropy                ...      0.00000000 Eh      0.00 kcal/mol
Vibrational entropy               ...      0.00835775 Eh      5.24 kcal/mol
Rotational entropy                ...      0.01198198 Eh      7.52 kcal/mol
Translational entropy             ...      0.01890147 Eh     11.86 kcal/mol
-----------------------------------------------------------------------
Final entropy term                ...      0.03924120 Eh     24.62 kcal/mol

CAUTION: The rotational entropy is not quite correctly treated here
         because it includes a symmetry number that is not yet correctly
         implemented in ORCA!
For a nonlinear molecule the correct rotational entropy is:
    S(rot) = R*(ln(qrot/sn)+1.5)
    R    = 8.31441 J/mol/K = 1.987191683e-3 kcal/mol/K
    qrot = 217282.6977132
    sn is the rotational symmetry number. We have assumed 3 here
       if it is different for your molecule then you should correct
       the printed rotational entropy by manually evaluating the equation
       as given above

For convenience we print out the resulting values for sn=1 - 12:
 sn= 1  qrot/sn=  217282.6977 T*S(rot)=     8.17 kcal/mol T*S(tot)=    25.28 kcal/mol
 sn= 2  qrot/sn=  108641.3489 T*S(rot)=     7.76 kcal/mol T*S(tot)=    24.86 kcal/mol
 sn= 3  qrot/sn=   72427.5659 T*S(rot)=     7.52 kcal/mol T*S(tot)=    24.62 kcal/mol
 sn= 4  qrot/sn=   54320.6744 T*S(rot)=     7.35 kcal/mol T*S(tot)=    24.45 kcal/mol
 sn= 5  qrot/sn=   43456.5395 T*S(rot)=     7.22 kcal/mol T*S(tot)=    24.32 kcal/mol
 sn= 6  qrot/sn=   36213.7830 T*S(rot)=     7.11 kcal/mol T*S(tot)=    24.21 kcal/mol
 sn= 7  qrot/sn=   31040.3854 T*S(rot)=     7.02 kcal/mol T*S(tot)=    24.12 kcal/mol
 sn= 8  qrot/sn=   27160.3372 T*S(rot)=     6.94 kcal/mol T*S(tot)=    24.04 kcal/mol
 sn= 9  qrot/sn=   24142.5220 T*S(rot)=     6.87 kcal/mol T*S(tot)=    23.97 kcal/mol
 sn=10  qrot/sn=   21728.2698 T*S(rot)=     6.81 kcal/mol T*S(tot)=    23.91 kcal/mol
 sn=11  qrot/sn=   19752.9725 T*S(rot)=     6.75 kcal/mol T*S(tot)=    23.85 kcal/mol
 sn=12  qrot/sn=   18106.8915 T*S(rot)=     6.70 kcal/mol T*S(tot)=    23.80 kcal/mol

-------------------
GIBBS FREE ENTHALPY
-------------------

The Gibbs free enthalpy is G = H - T*S

Total enthalpy                    ...   -327.03415762 Eh
Total entropy correction          ...     -0.03924120 Eh    -24.62 kcal/mol
-----------------------------------------------------------------------
Final Gibbs free enthalpy         ...   -327.07339882 Eh

For completeness - the Gibbs free enthalpy minus the electronic energy
G-E(el)                           ...      0.14556807 Eh     91.35 kcal/mol

                             ****ORCA TERMINATED NORMALLY****
TOTAL RUN TIME: 0 days 0 hours 56 minutes 54 seconds 589 msec
