                         Program Version 3.0.3 - RELEASE   -
|  1> ! NORI PBE0 def2-TZVP UseSym TightOPT Freq TightSCF Grid3 FinalGrid5 XYZFile
|  2> % pal
|  3>     nprocs 8
|  4> end
|  5> %method
|  6>     SymThresh 5.0e-2
|  7> end
|  8> % geom
|  9>     MaxIter 10
| 10> end
| 11> % maxcore 2000
| 12> % output
| 13>     printlevel mini
| 14>     print[ P_Basis ] 0
| 15>     print[ P_SCFInfo ] 1
| 16>     print[ P_SCFIterInfo ] 1
| 17>     print[ P_OrbEn ] 0
| 18>     print[ P_Cartesian ] 0
| 19> end
| 20> % elprop
| 21>     Dipole false
| 22> end
| 23> *xyz 1 1
| 24>  C        2.8598164662     1.4356205565     0.4415389323
| 25>  C        2.4947807305     0.0577368404    -0.0696797523
| 26>  O        3.1785770091    -0.2837718062    -1.2605043352
| 27>  C        2.8676676306    -1.0354425695     0.9063932534
| 28>  C        3.0118145882    -2.4337217255     0.4665938926
| 29>  N        4.2165223511    -1.6111182078     0.7016584478
| 30>  C        5.1523438535    -1.8823949746     1.7955839048
| 31>  H        2.5763921770     2.1955735725    -0.2893251437
| 32>  H        3.9343425578     1.5216743795     0.6206451262
| 33>  H        2.3281932967     1.6614075051     1.3684017955
| 34>  H        1.4086645475    -0.0112527464    -0.2168005351
| 35>  H        2.9981663341     0.3629272306    -1.9486689226
| 36>  H        2.6317808494    -0.8563381770     1.9490881976
| 37>  H        2.8761354540    -3.2308583359     1.1859200998
| 38>  H        2.8416489162    -2.6741367009    -0.5746183536
| 39>  H        4.6226723539    -1.2633507782    -0.1685697152
| 40>  H        4.5949259032    -2.2252711979     2.6656387566
| 41>  H        5.6900191076    -0.9672533318     2.0397547850
| 42>  H        5.8513658733    -2.6560595330     1.4799295661
| 43> *
| 44>
| 45>                          ****END OF INPUT****
 Total Charge           Charge          ....    1
 Multiplicity           Mult            ....    1
 Number of Electrons    NEL             ....   56
FINAL SINGLE POINT ENERGY      -327.206135341448
FINAL SINGLE POINT ENERGY      -327.206136270616

CARTESIAN COORDINATES (ANGSTROEM)
---------------------------------
  C     -1.822499   -1.226744    0.690549
  C     -1.063101    0.076755    0.820475
  O     -0.001706    0.001217    1.752321
  C     -0.400370    0.486049   -0.475831
  C      0.717436    1.444790   -0.492608
  N      0.989272   -0.000084   -0.638251
  C      1.499196   -0.581847   -1.881913
  H     -2.285139   -1.489584    1.643759
  H     -1.160303   -2.045200    0.398087
  H     -2.623505   -1.139681   -0.046777
  H     -1.753436    0.887610    1.088586
  H     -0.331941   -0.257824    2.617182
  H     -0.995853    0.390025   -1.376431
  H      0.907176    2.020204   -1.389516
  H      1.061548    1.863351    0.444229
  H      1.322599   -0.419894    0.231180
  H      1.051910   -0.062391   -2.727839
  H      1.234519   -1.637759   -1.916401
  H      2.581821   -0.464706   -1.910265

FINAL SINGLE POINT ENERGY      -327.206136798782
                    ***********************HURRAY********************
 Multiplicity           Mult            ....    1
 Number of Electrons    NEL             ....   56
 Basis Dimension        Dim             ....  289
FINAL SINGLE POINT ENERGY      -327.206137031335

VIBRATIONAL FREQUENCIES
-----------------------

   0:         0.00 cm**-1
   1:         0.00 cm**-1
   2:         0.00 cm**-1
   3:         0.00 cm**-1
   4:         0.00 cm**-1
   5:         0.00 cm**-1
   6:        87.36 cm**-1
   7:       158.21 cm**-1
   8:       192.34 cm**-1
   9:       235.41 cm**-1
  10:       252.28 cm**-1
  11:       274.73 cm**-1
  12:       327.89 cm**-1
  13:       366.96 cm**-1
  14:       420.71 cm**-1
  15:       492.85 cm**-1
  16:       615.14 cm**-1
  17:       768.77 cm**-1
  18:       826.67 cm**-1
  19:       877.16 cm**-1
  20:       929.01 cm**-1
  21:       958.24 cm**-1
  22:      1018.85 cm**-1
  23:      1061.93 cm**-1
  24:      1100.43 cm**-1
  25:      1104.23 cm**-1
  26:      1135.66 cm**-1
  27:      1161.38 cm**-1
  28:      1164.49 cm**-1
  29:      1187.34 cm**-1
  30:      1198.62 cm**-1
  31:      1229.19 cm**-1
  32:      1242.84 cm**-1
  33:      1291.08 cm**-1
  34:      1358.73 cm**-1
  35:      1373.32 cm**-1
  36:      1416.05 cm**-1
  37:      1424.41 cm**-1
  38:      1452.29 cm**-1
  39:      1457.30 cm**-1
  40:      1483.73 cm**-1
  41:      1487.54 cm**-1
  42:      1488.89 cm**-1
  43:      1496.07 cm**-1
  44:      1518.49 cm**-1
  45:      3034.55 cm**-1
  46:      3056.90 cm**-1
  47:      3083.99 cm**-1
  48:      3139.10 cm**-1
  49:      3141.88 cm**-1
  50:      3172.73 cm**-1
  51:      3180.89 cm**-1
  52:      3183.72 cm**-1
  53:      3206.98 cm**-1
  54:      3277.93 cm**-1
  55:      3457.64 cm**-1
  56:      3867.54 cm**-1

IR SPECTRUM
-----------

 Mode    freq (cm**-1)   T**2         TX         TY         TZ
-------------------------------------------------------------------
   6:        87.36    4.506418  ( -0.168655  -1.891097  -0.949591)
   7:       158.21    2.259617  ( -0.964597   0.249330   1.125613)
   8:       192.34    0.376860  (  0.224994   0.211840  -0.530435)
   9:       235.41    7.762171  ( -0.748574  -2.564727   0.789926)
  10:       252.28   71.592484  (  0.167068   8.185341   2.136529)
  11:       274.73   50.585489  (  1.253482  -5.623115  -4.170714)
  12:       327.89    1.504739  (  0.076421  -0.851626   0.879563)
  13:       366.96   10.637154  ( -0.639277  -2.859136   1.433115)
  14:       420.71    1.924920  ( -0.075875  -1.304403  -0.466579)
  15:       492.85    4.545017  ( -0.549053   1.407350  -1.504302)
  16:       615.14   11.511539  (  2.354826   0.227675   2.431974)
  17:       768.77    3.137370  (  0.090097   1.715991  -0.429683)
  18:       826.67   19.291077  ( -4.009189   1.692506  -0.594057)
  19:       877.16    3.307651  (  1.089756   0.592855  -1.329889)
  20:       929.01   27.145778  ( -4.347601   0.243418  -2.860925)
  21:       958.24    0.780891  (  0.386620   0.783410  -0.132983)
  22:      1018.85   22.194767  ( -1.518622   4.446537  -0.341845)
  23:      1061.93    1.424433  (  0.931167   0.711316   0.226696)
  24:      1100.43    6.317510  (  1.198798  -2.055405   0.809756)
  25:      1104.23   50.646438  ( -0.278512   1.024654   7.036971)
  26:      1135.66    2.619595  (  1.376166  -0.333253  -0.784031)
  27:      1161.38    7.894896  (  1.367590   1.253815  -2.110104)
  28:      1164.49    5.852730  (  0.962898   0.838051  -2.055049)
  29:      1187.34   42.642301  ( -6.192746  -0.761296  -1.926817)
  30:      1198.62    2.750963  ( -1.615610  -0.161375   0.338712)
  31:      1229.19   52.621426  (  6.379250  -0.369587   3.433657)
  32:      1242.84   29.749003  (  4.623563   1.892162   2.188924)
  33:      1291.08    5.832964  ( -0.643314  -2.323078   0.149727)
  34:      1358.73    5.056558  (  2.205874   0.169840   0.402281)
  35:      1373.32    0.617237  ( -0.549270   0.264136  -0.495753)
  36:      1416.05   13.038638  ( -1.633996  -3.031998  -1.084290)
  37:      1424.41   39.834936  (  5.638526  -0.089182  -2.834431)
  38:      1452.29   13.580307  ( -1.971895  -2.393543  -1.990700)
  39:      1457.30   10.494769  (  1.192277  -2.539099  -1.620563)
  40:      1483.73   11.355859  ( -2.864497  -1.740653   0.347336)
  41:      1487.54    4.985836  ( -2.041301   0.775621  -0.466194)
  42:      1488.89   12.589505  (  0.547104  -3.494108   0.285296)
  43:      1496.07   22.155134  ( -2.388393   2.362921  -3.296562)
  44:      1518.49   35.830618  (  4.461245  -2.088220  -3.401066)
  45:      3034.55    9.183517  ( -1.998059   2.145093  -0.768018)
  46:      3056.90    3.026817  (  0.254914  -1.675807  -0.391798)
  47:      3083.99    1.180291  (  0.359501  -0.410807  -0.939302)
  48:      3139.10    8.941358  (  2.363309  -1.647411  -0.801352)
  49:      3141.88    4.265011  ( -0.269814   0.455055  -1.996280)
  50:      3172.73    2.565882  (  0.523153   1.245470   0.860813)
  51:      3180.89    0.017762  (  0.027730   0.126760   0.030418)
  52:      3183.72    0.156391  (  0.318733  -0.208933   0.105582)
  53:      3206.98    0.666174  (  0.598822   0.011515   0.554486)
  54:      3277.93    5.864871  (  0.310546   0.022313   2.401652)
  55:      3457.64  127.480654  ( -2.153227   4.802776  -9.988874)
  56:      3867.54  112.206509  (  0.953368   1.964462 -10.365254)

--------------------------
THERMOCHEMISTRY AT 298.15K
--------------------------

Temperature         ... 298.15 K
Pressure            ... 1.00 atm
Total Mass          ... 102.16 AMU

Throughout the following assumptions are being made:
  (1) The electronic state is orbitally nondegenerate
  (2) There are no thermally accessible electronically excited states
  (3) Hindered rotations indicated by low frequency modes) are not
      treated as such but are treated as vibrations and this may
      case some error
  (4) All equations used are the standard statistical mechanics
      equations for an ideal gas
  (5) All vibrations are strinctly harmonic

------------
INNER ENERGY
------------

The inner energy is: U= E(el) + E(ZPE) + E(vib) + E(rot) + E(trans)
    E(el)   - is the total energy from the electronic structure calculation
              = E(kin-el) + E(nuc-el) + E(el-el) + E(nuc-nuc)
    E(ZPE)  - the the zero temperature vibrational energy from the frequency calculation
    E(vib)  - the the finite temperature correction to E(ZPE) due to population
              of excietd vibrational states
    E(rot)  - is the rotational thermal energy
    E(trans)- is the translational thermal energy

Summary of contributions to the inner energy U:
Electronic energy                ...   -327.20613703 Eh
Zero point energy                ...      0.17414417 Eh     109.28 kcal/mol
Thermal vibrational correction   ...      0.00543053 Eh       3.41 kcal/mol
Thermal rotational correction    ...      0.00141627 Eh       0.89 kcal/mol
Thermal translational correction ...      0.00141627 Eh       0.89 kcal/mol
-----------------------------------------------------------------------
Total thermal energy                   -327.02372978 Eh

Summary of corrections to the electronic energy:
(perhaps to be used in another calculation)
Total thermal correction                  0.00826308 Eh       5.19 kcal/mol
Non-thermal (ZPE) correction              0.17414417 Eh     109.28 kcal/mol
-----------------------------------------------------------------------
Total correction                          0.18240725 Eh     114.46 kcal/mol

--------
ENTHALPY
--------

The enthalpy is H = U + kB*T
                kB is Boltzmann's constant
Total free energy                 ...   -327.02372978 Eh
Thermal Enthalpy correction       ...      0.00094421 Eh       0.59 kcal/mol
-----------------------------------------------------------------------
Total Enthalpy                    ...   -327.02278557 Eh

-------
ENTROPY
-------

The entropy contributions are T*S = T*(S(el)+S(vib)+S(rot)+S(trans)
     S(el)   - electronic entropy
     S(vib)  - vibrational entropy
     S(rot)  - rotational entropy
     S(trans)- translational entropy
The entropies will be listed as mutliplied by the temperature to get
units of energy

Electronic entropy                ...      0.00000000 Eh      0.00 kcal/mol
Vibrational entropy               ...      0.00929192 Eh      5.83 kcal/mol
Rotational entropy                ...      0.01207742 Eh      7.58 kcal/mol
Translational entropy             ...      0.01890147 Eh     11.86 kcal/mol
-----------------------------------------------------------------------
Final entropy term                ...      0.04027080 Eh     25.27 kcal/mol

CAUTION: The rotational entropy is not quite correctly treated here
         because it includes a symmetry number that is not yet correctly
         implemented in ORCA!
For a nonlinear molecule the correct rotational entropy is:
    S(rot) = R*(ln(qrot/sn)+1.5)
    R    = 8.31441 J/mol/K = 1.987191683e-3 kcal/mol/K
    qrot = 240393.7137005
    sn is the rotational symmetry number. We have assumed 3 here
       if it is different for your molecule then you should correct
       the printed rotational entropy by manually evaluating the equation
       as given above

For convenience we print out the resulting values for sn=1 - 12:
 sn= 1  qrot/sn=  240393.7137 T*S(rot)=     8.23 kcal/mol T*S(tot)=    25.92 kcal/mol
 sn= 2  qrot/sn=  120196.8569 T*S(rot)=     7.82 kcal/mol T*S(tot)=    25.51 kcal/mol
 sn= 3  qrot/sn=   80131.2379 T*S(rot)=     7.58 kcal/mol T*S(tot)=    25.27 kcal/mol
 sn= 4  qrot/sn=   60098.4284 T*S(rot)=     7.41 kcal/mol T*S(tot)=    25.10 kcal/mol
 sn= 5  qrot/sn=   48078.7427 T*S(rot)=     7.28 kcal/mol T*S(tot)=    24.97 kcal/mol
 sn= 6  qrot/sn=   40065.6190 T*S(rot)=     7.17 kcal/mol T*S(tot)=    24.86 kcal/mol
 sn= 7  qrot/sn=   34341.9591 T*S(rot)=     7.08 kcal/mol T*S(tot)=    24.77 kcal/mol
 sn= 8  qrot/sn=   30049.2142 T*S(rot)=     7.00 kcal/mol T*S(tot)=    24.69 kcal/mol
 sn= 9  qrot/sn=   26710.4126 T*S(rot)=     6.93 kcal/mol T*S(tot)=    24.62 kcal/mol
 sn=10  qrot/sn=   24039.3714 T*S(rot)=     6.87 kcal/mol T*S(tot)=    24.56 kcal/mol
 sn=11  qrot/sn=   21853.9740 T*S(rot)=     6.81 kcal/mol T*S(tot)=    24.50 kcal/mol
 sn=12  qrot/sn=   20032.8095 T*S(rot)=     6.76 kcal/mol T*S(tot)=    24.45 kcal/mol

-------------------
GIBBS FREE ENTHALPY
-------------------

The Gibbs free enthalpy is G = H - T*S

Total enthalpy                    ...   -327.02278557 Eh
Total entropy correction          ...     -0.04027080 Eh    -25.27 kcal/mol
-----------------------------------------------------------------------
Final Gibbs free enthalpy         ...   -327.06305638 Eh

For completeness - the Gibbs free enthalpy minus the electronic energy
G-E(el)                           ...      0.14308066 Eh     89.78 kcal/mol

                             ****ORCA TERMINATED NORMALLY****
TOTAL RUN TIME: 0 days 0 hours 55 minutes 8 seconds 624 msec
