                         Program Version 3.0.3 - RELEASE   -
|  1> ! NORI PBE0 def2-TZVP UseSym TightOPT Freq TightSCF Grid3 FinalGrid5 XYZFile
|  2> % pal
|  3>     nprocs 8
|  4> end
|  5> %method
|  6>     SymThresh 5.0e-2
|  7> end
|  8> % geom
|  9>     MaxIter 10
| 10> end
| 11> % maxcore 2000
| 12> % output
| 13>     printlevel mini
| 14>     print[ P_Basis ] 0
| 15>     print[ P_SCFInfo ] 1
| 16>     print[ P_SCFIterInfo ] 1
| 17>     print[ P_OrbEn ] 0
| 18>     print[ P_Cartesian ] 0
| 19> end
| 20> % elprop
| 21>     Dipole false
| 22> end
| 23> *xyz 1 1
| 24>  C        1.0115467235    -1.9816972141    -0.4126900805
| 25>  C        2.3283337109    -1.7917072997    -1.1117123036
| 26>  O        3.2836086007    -1.3090771819    -0.1584916359
| 27>  C        4.5088969751    -1.0028865580    -0.6824439861
| 28>  C        5.4066386444    -0.2984817912     0.3424864229
| 29>  N        6.5344783795    -1.2641761410     0.0284618859
| 30>  C        5.5648574997    -2.1413024322    -0.7420844590
| 31>  H        0.2678496871    -2.3450098739    -1.1239550043
| 32>  H        0.6549030584    -1.0388145356     0.0039838391
| 33>  H        1.0981704605    -2.7108152514     0.3944075627
| 34>  H        2.2445347696    -1.0614214984    -1.9264337003
| 35>  H        2.6872809178    -2.7373800449    -1.5381654784
| 36>  H        4.4347892155    -0.4628901153    -1.6349442797
| 37>  H        5.0576485692    -0.4665188833     1.3600225986
| 38>  H        5.6849155425     0.7415719552     0.1902690154
| 39>  H        7.2553403538    -0.8542854417    -0.5629088615
| 40>  H        6.9933177015    -1.6945542055     0.8295090756
| 41>  H        5.9677691551    -2.4623344314    -1.6996357506
| 42>  H        5.2850300352    -2.9947090559    -0.1267048602
| 43> *
| 44>
| 45>                          ****END OF INPUT****
 Total Charge           Charge          ....    1
 Multiplicity           Mult            ....    1
 Number of Electrons    NEL             ....   56
FINAL SINGLE POINT ENERGY      -327.191969836462
FINAL SINGLE POINT ENERGY      -327.191971792351
FINAL SINGLE POINT ENERGY      -327.191973433039

CARTESIAN COORDINATES (ANGSTROEM)
---------------------------------
  C     -1.123233   -0.556937    2.873308
  C     -1.294742   -0.096881    1.452851
  O      0.000524    0.003330    0.847344
  C     -0.004489    0.484817   -0.432255
  C      1.413304    0.778481   -0.938624
  N      1.127681   -0.000929   -2.209508
  C     -0.141618   -0.549885   -1.584187
  H     -2.099886   -0.635849    3.353671
  H     -0.518374    0.152327    3.439948
  H     -0.643610   -1.535979    2.912595
  H     -1.780360    0.885886    1.408049
  H     -1.908604   -0.806224    0.882203
  H     -0.690794    1.331604   -0.559305
  H      2.163953    0.252314   -0.351697
  H      1.714224    1.805458   -1.130303
  H      0.946849    0.599595   -3.012025
  H      1.829464   -0.686764   -2.483254
  H     -0.991126   -0.502749   -2.262078
  H      0.035767   -1.569048   -1.245177

FINAL SINGLE POINT ENERGY      -327.191973780832
                    ***********************HURRAY********************
 Multiplicity           Mult            ....    1
 Number of Electrons    NEL             ....   56
 Basis Dimension        Dim             ....  289
FINAL SINGLE POINT ENERGY      -327.191973951799

VIBRATIONAL FREQUENCIES
-----------------------

   0:         0.00 cm**-1
   1:         0.00 cm**-1
   2:         0.00 cm**-1
   3:         0.00 cm**-1
   4:         0.00 cm**-1
   5:         0.00 cm**-1
   6:        60.83 cm**-1
   7:        76.72 cm**-1
   8:        89.97 cm**-1
   9:       192.72 cm**-1
  10:       250.74 cm**-1
  11:       358.39 cm**-1
  12:       409.51 cm**-1
  13:       461.52 cm**-1
  14:       697.14 cm**-1
  15:       806.35 cm**-1
  16:       820.02 cm**-1
  17:       826.50 cm**-1
  18:       870.41 cm**-1
  19:       904.76 cm**-1
  20:       912.56 cm**-1
  21:       971.28 cm**-1
  22:       994.43 cm**-1
  23:      1069.75 cm**-1
  24:      1077.35 cm**-1
  25:      1119.49 cm**-1
  26:      1163.19 cm**-1
  27:      1178.74 cm**-1
  28:      1240.46 cm**-1
  29:      1248.71 cm**-1
  30:      1283.98 cm**-1
  31:      1291.23 cm**-1
  32:      1306.76 cm**-1
  33:      1310.79 cm**-1
  34:      1317.62 cm**-1
  35:      1329.21 cm**-1
  36:      1384.90 cm**-1
  37:      1412.06 cm**-1
  38:      1451.06 cm**-1
  39:      1470.57 cm**-1
  40:      1476.40 cm**-1
  41:      1488.81 cm**-1
  42:      1490.13 cm**-1
  43:      1515.45 cm**-1
  44:      1652.01 cm**-1
  45:      3012.41 cm**-1
  46:      3041.43 cm**-1
  47:      3055.79 cm**-1
  48:      3068.89 cm**-1
  49:      3121.08 cm**-1
  50:      3127.56 cm**-1
  51:      3150.93 cm**-1
  52:      3153.10 cm**-1
  53:      3199.37 cm**-1
  54:      3204.22 cm**-1
  55:      3477.55 cm**-1
  56:      3542.07 cm**-1

IR SPECTRUM
-----------

 Mode    freq (cm**-1)   T**2         TX         TY         TZ
-------------------------------------------------------------------
   6:        60.83    6.921744  (  0.187196  -2.578847   0.486058)
   7:        76.72    1.115275  (  0.315540   0.967841   0.281057)
   8:        89.97    3.711390  ( -1.493907  -0.481748  -1.116938)
   9:       192.72    1.707014  (  0.854731  -0.869978   0.468602)
  10:       250.74    0.378693  (  0.078662  -0.596630   0.128596)
  11:       358.39    3.827625  ( -0.143185  -1.802238  -0.747703)
  12:       409.51    1.655513  ( -0.937304  -0.326088   0.818926)
  13:       461.52    5.427404  (  0.438585  -0.704081  -2.176997)
  14:       697.14    3.370753  (  0.480439  -1.125338  -1.368775)
  15:       806.35    2.372211  ( -1.485391  -0.381520  -0.142364)
  16:       820.02    5.316748  ( -1.002038   2.054795  -0.300808)
  17:       826.50    4.269254  (  1.673925  -0.810738   0.899963)
  18:       870.41    4.246754  (  0.381318  -1.522472   1.335451)
  19:       904.76    3.147621  (  1.540568   0.879562   0.025354)
  20:       912.56   17.112392  (  3.171679  -0.237982  -2.645035)
  21:       971.28    5.808171  ( -0.243254   1.558431   1.822167)
  22:       994.43    4.871278  ( -1.362867  -1.348166  -1.093764)
  23:      1069.75   32.736300  (  5.503062   0.406306  -1.512456)
  24:      1077.35   11.802027  (  2.024094  -0.881632  -2.632070)
  25:      1119.49    7.560223  ( -0.559054  -0.333371   2.671431)
  26:      1163.19   64.729904  ( -5.820931  -2.019856   5.173669)
  27:      1178.74   22.793350  ( -2.465286   1.667907   3.732800)
  28:      1240.46  126.295934  (  3.156621   2.413778 -10.512153)
  29:      1248.71   37.585425  ( -4.174334  -3.838196  -2.329938)
  30:      1283.98    8.499561  ( -2.235870  -1.864371   0.156726)
  31:      1291.23   19.718286  (  0.174901   2.460908  -3.692104)
  32:      1306.76    5.268136  (  0.328489   2.179072   0.641775)
  33:      1310.79    1.485457  (  0.715459   0.532394  -0.830742)
  34:      1317.62   18.025448  (  3.459142   2.310464   0.849435)
  35:      1329.21    9.684956  (  2.282964   1.975614   0.754969)
  36:      1384.90   51.673021  (  3.087823   0.217223  -6.487772)
  37:      1412.06   44.756097  (  1.916104   0.798090  -6.359850)
  38:      1451.06    5.438282  (  1.224072  -1.210200  -1.573323)
  39:      1470.57   17.079376  (  3.139376   2.521329   0.930911)
  40:      1476.40   10.705848  ( -0.248027  -3.119423  -0.955786)
  41:      1488.81    7.682384  ( -2.061974   1.524036   1.052596)
  42:      1490.13    4.307008  ( -1.987804   0.158902   0.574799)
  43:      1515.45    5.532362  (  1.497852  -0.842517   1.605917)
  44:      1652.01   64.051995  ( -3.492142   0.549191   7.180204)
  45:      3012.41   29.842396  ( -4.957810  -0.250404  -2.280310)
  46:      3041.43   21.613358  ( -1.580195   3.853981  -2.064744)
  47:      3055.79   20.407377  (  0.024098  -4.206001  -1.648136)
  48:      3068.89    4.639781  (  0.550269  -0.872739   1.890850)
  49:      3121.08    0.062986  ( -0.250105  -0.010748   0.017829)
  50:      3127.56    0.195403  ( -0.275090   0.231779  -0.256919)
  51:      3150.93    7.837172  (  2.226898  -1.684470  -0.201640)
  52:      3153.10   10.581480  ( -1.160536  -2.871143  -0.995579)
  53:      3199.37    0.625653  ( -0.059053  -0.767948  -0.180061)
  54:      3204.22    1.342357  (  0.985846  -0.354538   0.494739)
  55:      3477.55   81.433146  ( -4.285967   0.988039   7.879557)
  56:      3542.07   93.631883  (  4.904711  -7.521780   3.605345)

--------------------------
THERMOCHEMISTRY AT 298.15K
--------------------------

Temperature         ... 298.15 K
Pressure            ... 1.00 atm
Total Mass          ... 102.16 AMU

Throughout the following assumptions are being made:
  (1) The electronic state is orbitally nondegenerate
  (2) There are no thermally accessible electronically excited states
  (3) Hindered rotations indicated by low frequency modes) are not
      treated as such but are treated as vibrations and this may
      case some error
  (4) All equations used are the standard statistical mechanics
      equations for an ideal gas
  (5) All vibrations are strinctly harmonic

------------
INNER ENERGY
------------

The inner energy is: U= E(el) + E(ZPE) + E(vib) + E(rot) + E(trans)
    E(el)   - is the total energy from the electronic structure calculation
              = E(kin-el) + E(nuc-el) + E(el-el) + E(nuc-nuc)
    E(ZPE)  - the the zero temperature vibrational energy from the frequency calculation
    E(vib)  - the the finite temperature correction to E(ZPE) due to population
              of excietd vibrational states
    E(rot)  - is the rotational thermal energy
    E(trans)- is the translational thermal energy

Summary of contributions to the inner energy U:
Electronic energy                ...   -327.19197395 Eh
Zero point energy                ...      0.17573086 Eh     110.27 kcal/mol
Thermal vibrational correction   ...      0.00514805 Eh       3.23 kcal/mol
Thermal rotational correction    ...      0.00141627 Eh       0.89 kcal/mol
Thermal translational correction ...      0.00141627 Eh       0.89 kcal/mol
-----------------------------------------------------------------------
Total thermal energy                   -327.00826250 Eh

Summary of corrections to the electronic energy:
(perhaps to be used in another calculation)
Total thermal correction                  0.00798059 Eh       5.01 kcal/mol
Non-thermal (ZPE) correction              0.17573086 Eh     110.27 kcal/mol
-----------------------------------------------------------------------
Total correction                          0.18371145 Eh     115.28 kcal/mol

--------
ENTHALPY
--------

The enthalpy is H = U + kB*T
                kB is Boltzmann's constant
Total free energy                 ...   -327.00826250 Eh
Thermal Enthalpy correction       ...      0.00094421 Eh       0.59 kcal/mol
-----------------------------------------------------------------------
Total Enthalpy                    ...   -327.00731829 Eh

-------
ENTROPY
-------

The entropy contributions are T*S = T*(S(el)+S(vib)+S(rot)+S(trans)
     S(el)   - electronic entropy
     S(vib)  - vibrational entropy
     S(rot)  - rotational entropy
     S(trans)- translational entropy
The entropies will be listed as mutliplied by the temperature to get
units of energy

Electronic entropy                ...      0.00000000 Eh      0.00 kcal/mol
Vibrational entropy               ...      0.00996122 Eh      6.25 kcal/mol
Rotational entropy                ...      0.01211136 Eh      7.60 kcal/mol
Translational entropy             ...      0.01890147 Eh     11.86 kcal/mol
-----------------------------------------------------------------------
Final entropy term                ...      0.04097405 Eh     25.71 kcal/mol

CAUTION: The rotational entropy is not quite correctly treated here
         because it includes a symmetry number that is not yet correctly
         implemented in ORCA!
For a nonlinear molecule the correct rotational entropy is:
    S(rot) = R*(ln(qrot/sn)+1.5)
    R    = 8.31441 J/mol/K = 1.987191683e-3 kcal/mol/K
    qrot = 249194.5592175
    sn is the rotational symmetry number. We have assumed 3 here
       if it is different for your molecule then you should correct
       the printed rotational entropy by manually evaluating the equation
       as given above

For convenience we print out the resulting values for sn=1 - 12:
 sn= 1  qrot/sn=  249194.5592 T*S(rot)=     8.25 kcal/mol T*S(tot)=    26.36 kcal/mol
 sn= 2  qrot/sn=  124597.2796 T*S(rot)=     7.84 kcal/mol T*S(tot)=    25.95 kcal/mol
 sn= 3  qrot/sn=   83064.8531 T*S(rot)=     7.60 kcal/mol T*S(tot)=    25.71 kcal/mol
 sn= 4  qrot/sn=   62298.6398 T*S(rot)=     7.43 kcal/mol T*S(tot)=    25.54 kcal/mol
 sn= 5  qrot/sn=   49838.9118 T*S(rot)=     7.30 kcal/mol T*S(tot)=    25.41 kcal/mol
 sn= 6  qrot/sn=   41532.4265 T*S(rot)=     7.19 kcal/mol T*S(tot)=    25.30 kcal/mol
 sn= 7  qrot/sn=   35599.2227 T*S(rot)=     7.10 kcal/mol T*S(tot)=    25.21 kcal/mol
 sn= 8  qrot/sn=   31149.3199 T*S(rot)=     7.02 kcal/mol T*S(tot)=    25.13 kcal/mol
 sn= 9  qrot/sn=   27688.2844 T*S(rot)=     6.95 kcal/mol T*S(tot)=    25.06 kcal/mol
 sn=10  qrot/sn=   24919.4559 T*S(rot)=     6.89 kcal/mol T*S(tot)=    25.00 kcal/mol
 sn=11  qrot/sn=   22654.0508 T*S(rot)=     6.83 kcal/mol T*S(tot)=    24.94 kcal/mol
 sn=12  qrot/sn=   20766.2133 T*S(rot)=     6.78 kcal/mol T*S(tot)=    24.89 kcal/mol

-------------------
GIBBS FREE ENTHALPY
-------------------

The Gibbs free enthalpy is G = H - T*S

Total enthalpy                    ...   -327.00731829 Eh
Total entropy correction          ...     -0.04097405 Eh    -25.71 kcal/mol
-----------------------------------------------------------------------
Final Gibbs free enthalpy         ...   -327.04829234 Eh

For completeness - the Gibbs free enthalpy minus the electronic energy
G-E(el)                           ...      0.14368161 Eh     90.16 kcal/mol

                             ****ORCA TERMINATED NORMALLY****
TOTAL RUN TIME: 0 days 0 hours 52 minutes 9 seconds 51 msec
