                         Program Version 3.0.3 - RELEASE   -
|  1> ! NORI PBE0 def2-TZVP UseSym TightOPT Freq TightSCF Grid3 FinalGrid5 XYZFile
|  2> % pal
|  3>     nprocs 8
|  4> end
|  5> %method
|  6>     SymThresh 5.0e-2
|  7> end
|  8> % geom
|  9>     MaxIter 10
| 10> end
| 11> % maxcore 2000
| 12> % output
| 13>     printlevel mini
| 14>     print[ P_Basis ] 0
| 15>     print[ P_SCFInfo ] 1
| 16>     print[ P_SCFIterInfo ] 1
| 17>     print[ P_OrbEn ] 0
| 18>     print[ P_Cartesian ] 0
| 19> end
| 20> % elprop
| 21>     Dipole false
| 22> end
| 23> *xyz 1 1
| 24>  C        1.1527410432     0.0611692054     1.6212076651
| 25>  C        2.3271665188    -0.5360225970     1.6483645271
| 26>  O        3.2411674190    -0.3706448667     0.6267120332
| 27>  C        4.5627310072    -0.5488305608     0.9619402706
| 28>  C        5.4530699342    -0.6730780086    -0.2799247804
| 29>  N        6.3755597098     0.4017658770     0.2666891560
| 30>  C        5.3552712312     0.7269211804     1.3432855606
| 31>  H        0.4371397598    -0.1391151942     2.4062461443
| 32>  H        0.8704461299     0.7308771071     0.8187611055
| 33>  H        2.6393696219    -1.2248091978     2.4297671352
| 34>  H        4.7003531252    -1.3620313134     1.6828079264
| 35>  H        5.9673857508    -1.6103146231    -0.4771111703
| 36>  H        4.9531840437    -0.3056077146    -1.1741569892
| 37>  H        6.6084015121     1.1584657857    -0.3745168022
| 38>  H        7.2464231425     0.0292983026     0.6409919146
| 39>  H        4.8222970054     1.6383996385     1.0789714773
| 40>  H        5.8045630452     0.8080769792     2.3303248261
| 41> *
| 42>
| 43>                          ****END OF INPUT****
 Total Charge           Charge          ....    1
 Multiplicity           Mult            ....    1
 Number of Electrons    NEL             ....   54
FINAL SINGLE POINT ENERGY      -325.957241598609

CARTESIAN COORDINATES (ANGSTROEM)
---------------------------------
  C     -1.534130   -0.841201    2.511407
  C     -1.226989    0.029404    1.571134
  O      0.000349    0.001337    0.939103
  C      0.040934    0.532736   -0.328337
  C      1.480697    0.755362   -0.806116
  N      1.178445   -0.000580   -2.087722
  C     -0.142618   -0.464508   -1.500065
  H     -2.479524   -0.753217    3.027958
  H     -0.854708   -1.632511    2.801757
  H     -1.877915    0.843917    1.262751
  H     -0.595132    1.418996   -0.425634
  H      1.833312    1.767858   -0.986521
  H      2.196321    0.192345   -0.209714
  H      1.839594   -0.733488   -2.340319
  H      1.064121    0.609963   -2.895044
  H     -0.055847   -1.500563   -1.177752
  H     -0.972442   -0.337500   -2.191738

FINAL SINGLE POINT ENERGY      -325.957242032649
                    ***********************HURRAY********************
 Multiplicity           Mult            ....    1
 Number of Electrons    NEL             ....   54
 Basis Dimension        Dim             ....  277
FINAL SINGLE POINT ENERGY      -325.957242276995

VIBRATIONAL FREQUENCIES
-----------------------

   0:         0.00 cm**-1
   1:         0.00 cm**-1
   2:         0.00 cm**-1
   3:         0.00 cm**-1
   4:         0.00 cm**-1
   5:         0.00 cm**-1
   6:        44.33 cm**-1
   7:        74.71 cm**-1
   8:        95.69 cm**-1
   9:       215.27 cm**-1
  10:       398.06 cm**-1
  11:       420.35 cm**-1
  12:       479.46 cm**-1
  13:       693.39 cm**-1
  14:       734.03 cm**-1
  15:       806.38 cm**-1
  16:       830.93 cm**-1
  17:       871.63 cm**-1
  18:       904.56 cm**-1
  19:       928.90 cm**-1
  20:       933.78 cm**-1
  21:       966.84 cm**-1
  22:       979.40 cm**-1
  23:      1001.54 cm**-1
  24:      1080.39 cm**-1
  25:      1108.16 cm**-1
  26:      1196.08 cm**-1
  27:      1235.06 cm**-1
  28:      1253.09 cm**-1
  29:      1278.82 cm**-1
  30:      1290.49 cm**-1
  31:      1309.60 cm**-1
  32:      1318.96 cm**-1
  33:      1328.30 cm**-1
  34:      1344.42 cm**-1
  35:      1411.73 cm**-1
  36:      1437.08 cm**-1
  37:      1469.43 cm**-1
  38:      1487.12 cm**-1
  39:      1652.40 cm**-1
  40:      1733.44 cm**-1
  41:      3067.55 cm**-1
  42:      3123.19 cm**-1
  43:      3128.43 cm**-1
  44:      3168.30 cm**-1
  45:      3190.51 cm**-1
  46:      3200.93 cm**-1
  47:      3204.55 cm**-1
  48:      3287.11 cm**-1
  49:      3476.33 cm**-1
  50:      3540.39 cm**-1

IR SPECTRUM
-----------

 Mode    freq (cm**-1)   T**2         TX         TY         TZ
-------------------------------------------------------------------
   6:        44.33    7.212364  (  0.690479   2.503754  -0.683241)
   7:        74.71    1.956420  (  1.300499  -0.298979   0.419207)
   8:        95.69    2.025984  (  0.772237   0.783078   0.903562)
   9:       215.27    1.573881  ( -0.582272   0.530559  -0.976395)
  10:       398.06    6.529620  ( -1.267954  -2.068643  -0.801643)
  11:       420.35    5.918887  (  0.982228  -0.909420  -2.031519)
  12:       479.46    0.775053  (  0.154579  -0.812082  -0.302789)
  13:       693.39    4.392383  ( -0.639201  -1.050023  -1.697427)
  14:       734.03    3.490438  ( -1.059473   0.201455  -1.525572)
  15:       806.38    2.015109  (  1.136808   0.490732   0.694232)
  16:       830.93    8.291621  ( -1.914099   2.111005  -0.414132)
  17:       871.63    4.636034  (  0.159006  -1.699110   1.312927)
  18:       904.56    2.361262  (  1.277403   0.806846   0.280185)
  19:       928.90   42.008142  ( -3.237434  -4.265560  -3.651322)
  20:       933.78   25.448109  (  3.931467   0.418761  -3.133100)
  21:       966.84   38.246782  ( -1.275639  -3.095510  -5.199745)
  22:       979.40    5.686852  (  1.289369   1.911086   0.610024)
  23:      1001.54    3.570147  ( -0.333985  -0.665666  -1.736516)
  24:      1080.39    4.390728  ( -0.419044  -1.045027  -1.767215)
  25:      1108.16    6.215758  (  2.459567  -0.373711   0.163179)
  26:      1196.08  110.377516  ( -7.906397  -1.417165   6.771857)
  27:      1235.06  223.391216  (  5.809872   4.153381 -13.129586)
  28:      1253.09   37.543948  (  4.110594   3.478184   2.923902)
  29:      1278.82   10.763790  (  2.507633   1.757144  -1.178140)
  30:      1290.49   20.863793  ( -0.181140  -2.713293   3.670017)
  31:      1309.60    0.787118  ( -0.238756  -0.150392  -0.841128)
  32:      1318.96   21.600817  (  3.919093   2.220602   1.144749)
  33:      1328.30    8.689065  (  1.741064   2.314494   0.548524)
  34:      1344.42    5.145082  (  1.066595  -0.761773   1.851259)
  35:      1411.73   66.036943  ( -4.582918   0.083713   6.710201)
  36:      1437.08   40.311034  ( -2.762507  -0.455843   5.698403)
  37:      1469.43   19.635665  (  3.432206   2.551097   1.160832)
  38:      1487.12    9.287098  ( -2.402228   1.208179   1.434121)
  39:      1652.40   69.038635  ( -3.830729   0.686142   7.341210)
  40:      1733.44  103.683673  ( -5.229396  -4.542478   7.463443)
  41:      3067.55   12.517411  (  0.607015  -2.886534   1.953680)
  42:      3123.19    0.119399  ( -0.046137  -0.312733  -0.139532)
  43:      3128.43    0.305388  (  0.463580  -0.211811   0.213582)
  44:      3168.30    6.878185  ( -2.207069   1.070877   0.927499)
  45:      3190.51    4.208657  (  0.637438   1.237085  -1.507299)
  46:      3200.93    0.907783  ( -0.010767   0.952708   0.003741)
  47:      3204.55    1.768314  ( -1.045181   0.621855  -0.537779)
  48:      3287.11    0.441964  ( -0.554895  -0.021171   0.365524)
  49:      3476.33   87.250707  (  4.585998  -1.172129  -8.052667)
  50:      3540.39   96.520111  ( -4.352355   7.971938  -3.745040)

--------------------------
THERMOCHEMISTRY AT 298.15K
--------------------------

Temperature         ... 298.15 K
Pressure            ... 1.00 atm
Total Mass          ... 100.14 AMU

Throughout the following assumptions are being made:
  (1) The electronic state is orbitally nondegenerate
  (2) There are no thermally accessible electronically excited states
  (3) Hindered rotations indicated by low frequency modes) are not
      treated as such but are treated as vibrations and this may
      case some error
  (4) All equations used are the standard statistical mechanics
      equations for an ideal gas
  (5) All vibrations are strinctly harmonic

------------
INNER ENERGY
------------

The inner energy is: U= E(el) + E(ZPE) + E(vib) + E(rot) + E(trans)
    E(el)   - is the total energy from the electronic structure calculation
              = E(kin-el) + E(nuc-el) + E(el-el) + E(nuc-nuc)
    E(ZPE)  - the the zero temperature vibrational energy from the frequency calculation
    E(vib)  - the the finite temperature correction to E(ZPE) due to population
              of excietd vibrational states
    E(rot)  - is the rotational thermal energy
    E(trans)- is the translational thermal energy

Summary of contributions to the inner energy U:
Electronic energy                ...   -325.95724228 Eh
Zero point energy                ...      0.15195632 Eh      95.35 kcal/mol
Thermal vibrational correction   ...      0.00463055 Eh       2.91 kcal/mol
Thermal rotational correction    ...      0.00141627 Eh       0.89 kcal/mol
Thermal translational correction ...      0.00141627 Eh       0.89 kcal/mol
-----------------------------------------------------------------------
Total thermal energy                   -325.79782286 Eh

Summary of corrections to the electronic energy:
(perhaps to be used in another calculation)
Total thermal correction                  0.00746309 Eh       4.68 kcal/mol
Non-thermal (ZPE) correction              0.15195632 Eh      95.35 kcal/mol
-----------------------------------------------------------------------
Total correction                          0.15941941 Eh     100.04 kcal/mol

--------
ENTHALPY
--------

The enthalpy is H = U + kB*T
                kB is Boltzmann's constant
Total free energy                 ...   -325.79782286 Eh
Thermal Enthalpy correction       ...      0.00094421 Eh       0.59 kcal/mol
-----------------------------------------------------------------------
Total Enthalpy                    ...   -325.79687866 Eh

-------
ENTROPY
-------

The entropy contributions are T*S = T*(S(el)+S(vib)+S(rot)+S(trans)
     S(el)   - electronic entropy
     S(vib)  - vibrational entropy
     S(rot)  - rotational entropy
     S(trans)- translational entropy
The entropies will be listed as mutliplied by the temperature to get
units of energy

Electronic entropy                ...      0.00000000 Eh      0.00 kcal/mol
Vibrational entropy               ...      0.00924901 Eh      5.80 kcal/mol
Rotational entropy                ...      0.01202101 Eh      7.54 kcal/mol
Translational entropy             ...      0.01887324 Eh     11.84 kcal/mol
-----------------------------------------------------------------------
Final entropy term                ...      0.04014326 Eh     25.19 kcal/mol

CAUTION: The rotational entropy is not quite correctly treated here
         because it includes a symmetry number that is not yet correctly
         implemented in ORCA!
For a nonlinear molecule the correct rotational entropy is:
    S(rot) = R*(ln(qrot/sn)+1.5)
    R    = 8.31441 J/mol/K = 1.987191683e-3 kcal/mol/K
    qrot = 226453.3390008
    sn is the rotational symmetry number. We have assumed 3 here
       if it is different for your molecule then you should correct
       the printed rotational entropy by manually evaluating the equation
       as given above

For convenience we print out the resulting values for sn=1 - 12:
 sn= 1  qrot/sn=  226453.3390 T*S(rot)=     8.19 kcal/mol T*S(tot)=    25.84 kcal/mol
 sn= 2  qrot/sn=  113226.6695 T*S(rot)=     7.78 kcal/mol T*S(tot)=    25.43 kcal/mol
 sn= 3  qrot/sn=   75484.4463 T*S(rot)=     7.54 kcal/mol T*S(tot)=    25.19 kcal/mol
 sn= 4  qrot/sn=   56613.3348 T*S(rot)=     7.37 kcal/mol T*S(tot)=    25.02 kcal/mol
 sn= 5  qrot/sn=   45290.6678 T*S(rot)=     7.24 kcal/mol T*S(tot)=    24.89 kcal/mol
 sn= 6  qrot/sn=   37742.2232 T*S(rot)=     7.13 kcal/mol T*S(tot)=    24.78 kcal/mol
 sn= 7  qrot/sn=   32350.4770 T*S(rot)=     7.04 kcal/mol T*S(tot)=    24.69 kcal/mol
 sn= 8  qrot/sn=   28306.6674 T*S(rot)=     6.96 kcal/mol T*S(tot)=    24.61 kcal/mol
 sn= 9  qrot/sn=   25161.4821 T*S(rot)=     6.89 kcal/mol T*S(tot)=    24.54 kcal/mol
 sn=10  qrot/sn=   22645.3339 T*S(rot)=     6.83 kcal/mol T*S(tot)=    24.48 kcal/mol
 sn=11  qrot/sn=   20586.6672 T*S(rot)=     6.77 kcal/mol T*S(tot)=    24.42 kcal/mol
 sn=12  qrot/sn=   18871.1116 T*S(rot)=     6.72 kcal/mol T*S(tot)=    24.37 kcal/mol

-------------------
GIBBS FREE ENTHALPY
-------------------

The Gibbs free enthalpy is G = H - T*S

Total enthalpy                    ...   -325.79687866 Eh
Total entropy correction          ...     -0.04014326 Eh    -25.19 kcal/mol
-----------------------------------------------------------------------
Final Gibbs free enthalpy         ...   -325.83702191 Eh

For completeness - the Gibbs free enthalpy minus the electronic energy
G-E(el)                           ...      0.12022037 Eh     75.44 kcal/mol

                             ****ORCA TERMINATED NORMALLY****
TOTAL RUN TIME: 0 days 0 hours 37 minutes 11 seconds 546 msec
