                         Program Version 3.0.3 - RELEASE   -
|  1> ! NORI PBE0 def2-TZVP UseSym TightOPT Freq TightSCF Grid3 FinalGrid5 XYZFile
|  2> % pal
|  3>     nprocs 8
|  4> end
|  5> %method
|  6>     SymThresh 5.0e-2
|  7> end
|  8> % geom
|  9>     MaxIter 10
| 10> end
| 11> % maxcore 2000
| 12> % output
| 13>     printlevel mini
| 14>     print[ P_Basis ] 0
| 15>     print[ P_SCFInfo ] 1
| 16>     print[ P_SCFIterInfo ] 1
| 17>     print[ P_OrbEn ] 0
| 18>     print[ P_Cartesian ] 0
| 19> end
| 20> % elprop
| 21>     Dipole false
| 22> end
| 23> *xyz 1 1
| 24>  C        3.0911798562    -0.7821302236    -1.0564417058
| 25>  C        2.4058594981    -0.2200024301     0.1682641197
| 26>  O        1.1924361744    -0.9101666977     0.4704772900
| 27>  C        3.2528150496    -0.3330765159     1.4258515936
| 28>  C        2.4848725571     0.0628654083     2.6987700011
| 29>  N        2.1583044093    -1.3964736258     2.9189961752
| 30>  C        3.3030715513    -1.7605575634     2.0012271513
| 31>  H        2.4429170428    -0.6936147354    -1.9312453080
| 32>  H        3.3413953032    -1.8378838680    -0.9292556521
| 33>  H        4.0078047352    -0.2301403597    -1.2740629403
| 34>  H        2.1884163159     0.8453640337     0.0119205988
| 35>  H        0.6046241580    -0.8901754488    -0.2899173244
| 36>  H        4.2151491224     0.1541865282     1.2851626201
| 37>  H        1.5968220633     0.6829642867     2.6025651054
| 38>  H        3.1212613761     0.4108415702     3.5103247686
| 39>  H        2.1638519902    -1.7576694494     3.8705730068
| 40>  H        1.2765722755    -1.6129374404     2.4458676683
| 41>  H        4.1886541490    -1.9627702465     2.6004069706
| 42>  H        3.0686123723    -2.6010132226     1.3529358611
| 43> *
| 44>
| 45>                          ****END OF INPUT****
 Total Charge           Charge          ....    1
 Multiplicity           Mult            ....    1
 Number of Electrons    NEL             ....   56
FINAL SINGLE POINT ENERGY      -327.217646567929
FINAL SINGLE POINT ENERGY      -327.217648872706

CARTESIAN COORDINATES (ANGSTROEM)
---------------------------------
  C     -2.123731   -0.787431    0.619673
  C     -1.028377    0.252686    0.561706
  O      0.000846    0.004456    1.520092
  C     -0.319743    0.292894   -0.782932
  C      0.916892    1.208319   -0.777984
  N      1.772754   -0.001934   -0.479732
  C      0.654786   -0.880985   -0.992866
  H     -2.593895   -0.792784    1.605374
  H     -1.736125   -1.790657    0.427050
  H     -2.904071   -0.567889   -0.111999
  H     -1.455980    1.248736    0.738959
  H     -0.376363   -0.046869    2.402876
  H     -1.031551    0.466517   -1.587253
  H      0.995246    1.978257   -0.013606
  H      1.183286    1.598873   -1.758329
  H      2.687914   -0.071237   -0.920355
  H      1.840087   -0.115717    0.535691
  H      0.840221   -1.118135   -2.038702
  H      0.528691   -1.785132   -0.402700

FINAL SINGLE POINT ENERGY      -327.217649770317
                    ***********************HURRAY********************
 Multiplicity           Mult            ....    1
 Number of Electrons    NEL             ....   56
 Basis Dimension        Dim             ....  289
FINAL SINGLE POINT ENERGY      -327.217650211562

VIBRATIONAL FREQUENCIES
-----------------------

   0:         0.00 cm**-1
   1:         0.00 cm**-1
   2:         0.00 cm**-1
   3:         0.00 cm**-1
   4:         0.00 cm**-1
   5:         0.00 cm**-1
   6:       118.08 cm**-1
   7:       199.69 cm**-1
   8:       222.47 cm**-1
   9:       250.92 cm**-1
  10:       300.82 cm**-1
  11:       305.21 cm**-1
  12:       374.23 cm**-1
  13:       470.53 cm**-1
  14:       572.97 cm**-1
  15:       721.72 cm**-1
  16:       789.40 cm**-1
  17:       815.00 cm**-1
  18:       907.23 cm**-1
  19:       917.99 cm**-1
  20:       934.03 cm**-1
  21:       954.68 cm**-1
  22:       971.73 cm**-1
  23:      1039.62 cm**-1
  24:      1050.51 cm**-1
  25:      1077.19 cm**-1
  26:      1093.35 cm**-1
  27:      1146.65 cm**-1
  28:      1181.51 cm**-1
  29:      1213.14 cm**-1
  30:      1239.32 cm**-1
  31:      1278.21 cm**-1
  32:      1290.45 cm**-1
  33:      1329.28 cm**-1
  34:      1347.47 cm**-1
  35:      1354.58 cm**-1
  36:      1365.37 cm**-1
  37:      1383.80 cm**-1
  38:      1413.24 cm**-1
  39:      1420.44 cm**-1
  40:      1474.11 cm**-1
  41:      1486.88 cm**-1
  42:      1489.41 cm**-1
  43:      1495.70 cm**-1
  44:      1600.27 cm**-1
  45:      3026.40 cm**-1
  46:      3057.00 cm**-1
  47:      3122.56 cm**-1
  48:      3127.08 cm**-1
  49:      3135.37 cm**-1
  50:      3140.97 cm**-1
  51:      3155.49 cm**-1
  52:      3196.66 cm**-1
  53:      3200.55 cm**-1
  54:      3418.64 cm**-1
  55:      3531.48 cm**-1
  56:      3863.38 cm**-1

IR SPECTRUM
-----------

 Mode    freq (cm**-1)   T**2         TX         TY         TZ
-------------------------------------------------------------------
   6:       118.08    5.898201  (  0.753344   2.306361   0.106647)
   7:       199.69   20.739724  (  3.283694   0.086127  -3.154308)
   8:       222.47    0.657490  ( -0.691019  -0.004443   0.424220)
   9:       250.92    1.033338  ( -0.999669  -0.173303  -0.062975)
  10:       300.82   75.820517  ( -1.464468  -8.570670  -0.468467)
  11:       305.21   41.079816  (  0.616413   5.417533   3.369003)
  12:       374.23   11.326183  ( -1.885603  -2.763398   0.366487)
  13:       470.53    5.900269  (  0.068619  -1.752112   1.680971)
  14:       572.97    7.233804  ( -2.499234  -0.287207  -0.951393)
  15:       721.72   22.175116  ( -1.754119  -0.318664   4.358513)
  16:       789.40    0.741954  (  0.487781  -0.011955  -0.709846)
  17:       815.00    0.556820  ( -0.095903   0.737399  -0.062169)
  18:       907.23   13.858029  ( -2.390498   0.104667   2.851770)
  19:       917.99   22.970750  (  3.969710   0.199225   2.678146)
  20:       934.03    2.906431  ( -0.322125   1.604019  -0.479364)
  21:       954.68    3.107836  ( -1.682140   0.109984  -0.515890)
  22:       971.73    1.426398  ( -0.253787   1.125075   0.310155)
  23:      1039.62    2.399968  ( -0.947752  -0.737707   0.978530)
  24:      1050.51   34.618265  (  3.669687  -1.101416   4.465260)
  25:      1077.19    8.246767  (  1.759641  -0.142391   2.264985)
  26:      1093.35    3.808358  (  0.399497  -0.687524   1.782153)
  27:      1146.65    2.595732  ( -0.729976   1.320451  -0.565047)
  28:      1181.51   28.535174  (  3.830111  -0.931738   3.605175)
  29:      1213.14   26.674902  (  3.491946  -2.038339   3.213470)
  30:      1239.32   41.983510  ( -4.212670  -3.011940  -3.894244)
  31:      1278.21   27.429686  (  0.091609   5.190560  -0.692376)
  32:      1290.45   13.278099  ( -3.238909   1.274939   1.078008)
  33:      1329.28   13.278887  (  0.174089   3.618525   0.393515)
  34:      1347.47    1.846531  (  0.036852  -1.205214   0.626604)
  35:      1354.58   22.700162  ( -0.730891  -4.678100  -0.530413)
  36:      1365.37    2.124022  ( -0.771472  -0.803603  -0.939720)
  37:      1383.80    2.593150  (  0.954397  -0.280678   1.266293)
  38:      1413.24    4.058224  (  1.176897  -1.541675  -0.544403)
  39:      1420.44   34.376734  ( -5.574493  -1.815225   0.081981)
  40:      1474.11   12.558039  ( -0.407020  -3.510220  -0.265947)
  41:      1486.88    8.193469  ( -1.204501   1.720110  -1.945217)
  42:      1489.41    9.943388  ( -0.137717   2.815941   1.412409)
  43:      1495.70    4.945616  ( -0.927470   0.479653   1.963504)
  44:      1600.27   98.610025  (  9.612016  -1.190831   2.191140)
  45:      3026.40   17.410596  ( -1.814190   3.720400  -0.527191)
  46:      3057.00    3.455210  ( -0.441213  -1.801341   0.125353)
  47:      3122.56    2.014850  ( -0.480698  -1.249664   0.471295)
  48:      3127.08    0.966268  ( -0.317199   0.362926   0.856702)
  49:      3135.37   10.536985  ( -1.557901   1.921342   2.101993)
  50:      3140.97    5.756540  (  1.207471  -1.681093   1.213457)
  51:      3155.49    1.380421  (  1.063101  -0.389071   0.314420)
  52:      3196.66    0.192076  (  0.278533  -0.332975  -0.060189)
  53:      3200.55    0.305702  (  0.281536   0.472674   0.054943)
  54:      3418.64   79.344027  (  2.242238  -1.295597   8.522783)
  55:      3531.48  106.328108  ( -7.381143   0.072551   7.200109)
  56:      3863.38   90.436555  ( -1.422338  -0.507882   9.389120)

--------------------------
THERMOCHEMISTRY AT 298.15K
--------------------------

Temperature         ... 298.15 K
Pressure            ... 1.00 atm
Total Mass          ... 102.16 AMU

Throughout the following assumptions are being made:
  (1) The electronic state is orbitally nondegenerate
  (2) There are no thermally accessible electronically excited states
  (3) Hindered rotations indicated by low frequency modes) are not
      treated as such but are treated as vibrations and this may
      case some error
  (4) All equations used are the standard statistical mechanics
      equations for an ideal gas
  (5) All vibrations are strinctly harmonic

------------
INNER ENERGY
------------

The inner energy is: U= E(el) + E(ZPE) + E(vib) + E(rot) + E(trans)
    E(el)   - is the total energy from the electronic structure calculation
              = E(kin-el) + E(nuc-el) + E(el-el) + E(nuc-nuc)
    E(ZPE)  - the the zero temperature vibrational energy from the frequency calculation
    E(vib)  - the the finite temperature correction to E(ZPE) due to population
              of excietd vibrational states
    E(rot)  - is the rotational thermal energy
    E(trans)- is the translational thermal energy

Summary of contributions to the inner energy U:
Electronic energy                ...   -327.21765021 Eh
Zero point energy                ...      0.17672380 Eh     110.90 kcal/mol
Thermal vibrational correction   ...      0.00464946 Eh       2.92 kcal/mol
Thermal rotational correction    ...      0.00141627 Eh       0.89 kcal/mol
Thermal translational correction ...      0.00141627 Eh       0.89 kcal/mol
-----------------------------------------------------------------------
Total thermal energy                   -327.03344441 Eh

Summary of corrections to the electronic energy:
(perhaps to be used in another calculation)
Total thermal correction                  0.00748200 Eh       4.70 kcal/mol
Non-thermal (ZPE) correction              0.17672380 Eh     110.90 kcal/mol
-----------------------------------------------------------------------
Total correction                          0.18420580 Eh     115.59 kcal/mol

--------
ENTHALPY
--------

The enthalpy is H = U + kB*T
                kB is Boltzmann's constant
Total free energy                 ...   -327.03344441 Eh
Thermal Enthalpy correction       ...      0.00094421 Eh       0.59 kcal/mol
-----------------------------------------------------------------------
Total Enthalpy                    ...   -327.03250020 Eh

-------
ENTROPY
-------

The entropy contributions are T*S = T*(S(el)+S(vib)+S(rot)+S(trans)
     S(el)   - electronic entropy
     S(vib)  - vibrational entropy
     S(rot)  - rotational entropy
     S(trans)- translational entropy
The entropies will be listed as mutliplied by the temperature to get
units of energy

Electronic entropy                ...      0.00000000 Eh      0.00 kcal/mol
Vibrational entropy               ...      0.00762239 Eh      4.78 kcal/mol
Rotational entropy                ...      0.01192681 Eh      7.48 kcal/mol
Translational entropy             ...      0.01890147 Eh     11.86 kcal/mol
-----------------------------------------------------------------------
Final entropy term                ...      0.03845066 Eh     24.13 kcal/mol

CAUTION: The rotational entropy is not quite correctly treated here
         because it includes a symmetry number that is not yet correctly
         implemented in ORCA!
For a nonlinear molecule the correct rotational entropy is:
    S(rot) = R*(ln(qrot/sn)+1.5)
    R    = 8.31441 J/mol/K = 1.987191683e-3 kcal/mol/K
    qrot = 204950.2248901
    sn is the rotational symmetry number. We have assumed 3 here
       if it is different for your molecule then you should correct
       the printed rotational entropy by manually evaluating the equation
       as given above

For convenience we print out the resulting values for sn=1 - 12:
 sn= 1  qrot/sn=  204950.2249 T*S(rot)=     8.14 kcal/mol T*S(tot)=    24.78 kcal/mol
 sn= 2  qrot/sn=  102475.1124 T*S(rot)=     7.72 kcal/mol T*S(tot)=    24.37 kcal/mol
 sn= 3  qrot/sn=   68316.7416 T*S(rot)=     7.48 kcal/mol T*S(tot)=    24.13 kcal/mol
 sn= 4  qrot/sn=   51237.5562 T*S(rot)=     7.31 kcal/mol T*S(tot)=    23.96 kcal/mol
 sn= 5  qrot/sn=   40990.0450 T*S(rot)=     7.18 kcal/mol T*S(tot)=    23.83 kcal/mol
 sn= 6  qrot/sn=   34158.3708 T*S(rot)=     7.07 kcal/mol T*S(tot)=    23.72 kcal/mol
 sn= 7  qrot/sn=   29278.6036 T*S(rot)=     6.98 kcal/mol T*S(tot)=    23.63 kcal/mol
 sn= 8  qrot/sn=   25618.7781 T*S(rot)=     6.90 kcal/mol T*S(tot)=    23.55 kcal/mol
 sn= 9  qrot/sn=   22772.2472 T*S(rot)=     6.83 kcal/mol T*S(tot)=    23.48 kcal/mol
 sn=10  qrot/sn=   20495.0225 T*S(rot)=     6.77 kcal/mol T*S(tot)=    23.41 kcal/mol
 sn=11  qrot/sn=   18631.8386 T*S(rot)=     6.71 kcal/mol T*S(tot)=    23.36 kcal/mol
 sn=12  qrot/sn=   17079.1854 T*S(rot)=     6.66 kcal/mol T*S(tot)=    23.31 kcal/mol

-------------------
GIBBS FREE ENTHALPY
-------------------

The Gibbs free enthalpy is G = H - T*S

Total enthalpy                    ...   -327.03250020 Eh
Total entropy correction          ...     -0.03845066 Eh    -24.13 kcal/mol
-----------------------------------------------------------------------
Final Gibbs free enthalpy         ...   -327.07095086 Eh

For completeness - the Gibbs free enthalpy minus the electronic energy
G-E(el)                           ...      0.14669935 Eh     92.06 kcal/mol

                             ****ORCA TERMINATED NORMALLY****
TOTAL RUN TIME: 0 days 0 hours 58 minutes 19 seconds 650 msec
