                         Program Version 3.0.3 - RELEASE   -
|  1> ! NORI PBE0 def2-TZVP UseSym TightOPT Freq TightSCF Grid3 FinalGrid5 XYZFile
|  2> % pal
|  3>     nprocs 8
|  4> end
|  5> %method
|  6>     SymThresh 5.0e-2
|  7> end
|  8> % geom
|  9>     MaxIter 10
| 10> end
| 11> % maxcore 2000
| 12> % output
| 13>     printlevel mini
| 14>     print[ P_Basis ] 0
| 15>     print[ P_SCFInfo ] 1
| 16>     print[ P_SCFIterInfo ] 1
| 17>     print[ P_OrbEn ] 0
| 18>     print[ P_Cartesian ] 0
| 19> end
| 20> % elprop
| 21>     Dipole false
| 22> end
| 23> *xyz 1 1
| 24>  C        2.8309589370     1.3230569874     0.3049843543
| 25>  C        2.4622739793    -0.1281818074     0.0807138804
| 26>  O        3.0057541316    -0.6692775970    -1.1074766420
| 27>  C        3.0104021231    -0.9994130842     1.1863446785
| 28>  N        3.2501968310    -2.4100695501     0.7846544510
| 29>  C        4.3893990924    -1.5147080365     1.1577074703
| 30>  C        5.1447410728    -1.8555744237     2.3992580002
| 31>  H        2.4065278332     1.9430328746    -0.4868480621
| 32>  H        3.9146272414     1.4548267891     0.3045448693
| 33>  H        2.4291706410     1.6872354146     1.2532428437
| 34>  H        1.3694069370    -0.2395268536     0.0794198173
| 35>  H        2.6986870243    -0.1738034080    -1.8720668636
| 36>  H        2.5331738329    -0.9054711664     2.1556152879
| 37>  H        2.9923463925    -3.1632562663     1.4111406423
| 38>  H        3.1188077104    -2.5745449163    -0.2124983765
| 39>  H        4.9676214841    -1.2621667467     0.2754933392
| 40>  H        4.4802775700    -2.1299951176     3.2215173382
| 41>  H        5.7187725311    -0.9814222213     2.7125984667
| 42>  H        5.8486946350    -2.6694008708     2.2189245047
| 43> *
| 44>
| 45>                          ****END OF INPUT****
 Total Charge           Charge          ....    1
 Multiplicity           Mult            ....    1
 Number of Electrons    NEL             ....   56
FINAL SINGLE POINT ENERGY      -327.216161021272

CARTESIAN COORDINATES (ANGSTROEM)
---------------------------------
  C     -2.052040    0.798246    0.748685
  C     -0.545931    0.894223    0.869557
  O     -0.000124    0.000496    1.819943
  C      0.122832    0.526106   -0.434052
  N      1.504290   -0.000228   -0.280041
  C      0.403849   -0.873523   -0.794769
  C      0.504644   -1.332117   -2.211864
  H     -2.521770    1.092063    1.689203
  H     -2.360571   -0.221746    0.511788
  H     -2.426383    1.471559   -0.025811
  H     -0.256277    1.925505    1.112961
  H     -0.369540    0.171463    2.690964
  H      0.024183    1.239850   -1.244633
  H      2.232165    0.299853   -0.917830
  H      1.775037   -0.148163    0.691379
  H      0.137477   -1.613983   -0.048370
  H      0.811572   -0.526802   -2.883178
  H     -0.476421   -1.682059   -2.538510
  H      1.203678   -2.164492   -2.306149

FINAL SINGLE POINT ENERGY      -327.216161431713
                    ***********************HURRAY********************
 Multiplicity           Mult            ....    1
 Number of Electrons    NEL             ....   56
 Basis Dimension        Dim             ....  289
FINAL SINGLE POINT ENERGY      -327.216161570553

VIBRATIONAL FREQUENCIES
-----------------------

   0:         0.00 cm**-1
   1:         0.00 cm**-1
   2:         0.00 cm**-1
   3:         0.00 cm**-1
   4:         0.00 cm**-1
   5:         0.00 cm**-1
   6:        98.64 cm**-1
   7:       158.91 cm**-1
   8:       206.31 cm**-1
   9:       228.41 cm**-1
  10:       251.87 cm**-1
  11:       265.72 cm**-1
  12:       338.01 cm**-1
  13:       351.87 cm**-1
  14:       419.28 cm**-1
  15:       495.83 cm**-1
  16:       622.88 cm**-1
  17:       762.92 cm**-1
  18:       811.62 cm**-1
  19:       877.90 cm**-1
  20:       921.32 cm**-1
  21:       926.31 cm**-1
  22:       968.11 cm**-1
  23:      1003.59 cm**-1
  24:      1030.39 cm**-1
  25:      1072.65 cm**-1
  26:      1083.52 cm**-1
  27:      1122.55 cm**-1
  28:      1150.84 cm**-1
  29:      1171.66 cm**-1
  30:      1195.80 cm**-1
  31:      1224.64 cm**-1
  32:      1243.94 cm**-1
  33:      1283.04 cm**-1
  34:      1352.64 cm**-1
  35:      1373.82 cm**-1
  36:      1410.87 cm**-1
  37:      1414.32 cm**-1
  38:      1422.04 cm**-1
  39:      1463.69 cm**-1
  40:      1476.13 cm**-1
  41:      1486.05 cm**-1
  42:      1490.31 cm**-1
  43:      1502.54 cm**-1
  44:      1586.27 cm**-1
  45:      3026.37 cm**-1
  46:      3060.30 cm**-1
  47:      3063.07 cm**-1
  48:      3140.87 cm**-1
  49:      3142.63 cm**-1
  50:      3147.85 cm**-1
  51:      3151.64 cm**-1
  52:      3198.33 cm**-1
  53:      3204.73 cm**-1
  54:      3464.26 cm**-1
  55:      3606.05 cm**-1
  56:      3866.31 cm**-1

IR SPECTRUM
-----------

 Mode    freq (cm**-1)   T**2         TX         TY         TZ
-------------------------------------------------------------------
   6:        98.64    4.967487  (  1.345223   1.763657  -0.217656)
   7:       158.91    0.637525  (  0.566335   0.535120  -0.174459)
   8:       206.31    3.241026  ( -1.303470  -0.077002   1.239380)
   9:       228.41    5.077503  (  1.470708   1.442924  -0.912410)
  10:       251.87   20.517991  ( -3.485990  -2.892136   0.037589)
  11:       265.72   94.947968  ( -6.642588  -6.215161  -3.492245)
  12:       338.01    8.338129  ( -0.647336   0.289670   2.799138)
  13:       351.87   10.454581  (  2.956740   1.156382  -0.612416)
  14:       419.28    7.704906  (  2.286911  -0.072544  -1.571522)
  15:       495.83    2.151794  (  0.303636  -1.292416   0.623907)
  16:       622.88   18.940698  ( -2.518860   1.348411  -3.282961)
  17:       762.92    3.636163  (  0.741614  -0.561655  -1.664546)
  18:       811.62    1.426329  ( -0.241045  -0.236150   1.145626)
  19:       877.90   20.310741  (  4.255678   0.950556   1.138589)
  20:       921.32   10.172901  ( -1.481625  -2.795919   0.400654)
  21:       926.31   17.188875  (  0.994266  -1.022736   3.892855)
  22:       968.11   11.556893  (  0.287680  -3.360188   0.428101)
  23:      1003.59    1.745186  (  0.803349  -0.776866  -0.704481)
  24:      1030.39   80.792323  ( -3.316613   8.149479   1.838042)
  25:      1072.65   29.676762  ( -1.978623  -0.797651   5.012541)
  26:      1083.52   11.214898  ( -1.118020  -2.528158  -1.890330)
  27:      1122.55   14.093642  (  1.506158  -2.594686   2.256709)
  28:      1150.84   13.734296  ( -2.656929   1.168974  -2.304023)
  29:      1171.66   41.331398  ( -3.247849   3.102482  -4.599726)
  30:      1195.80   19.355593  ( -1.990212   3.725708  -1.230345)
  31:      1224.64   20.890730  ( -1.852117   1.684920  -3.823799)
  32:      1243.94   13.613016  (  2.450756  -2.531621   1.094396)
  33:      1283.04   17.134249  (  3.068448  -2.770929   0.202061)
  34:      1352.64    3.789228  (  0.253564  -0.139199   1.924982)
  35:      1373.82    7.949179  ( -1.735203   1.112254  -1.923835)
  36:      1410.87    8.580208  (  0.198917  -2.093548  -2.039043)
  37:      1414.32   17.513723  (  4.069187  -0.833338   0.510868)
  38:      1422.04   10.117774  (  1.170258  -0.769729   2.855834)
  39:      1463.69   15.215234  (  1.058880  -3.493538  -1.374482)
  40:      1476.13    6.353285  ( -2.386851   0.195889  -0.786037)
  41:      1486.05    5.598218  (  0.125939  -2.284432  -0.603098)
  42:      1490.31   20.488476  (  1.178768   3.619917  -2.448506)
  43:      1502.54    4.394987  ( -1.996431  -0.636948   0.059560)
  44:      1586.27   87.782949  ( -9.280688  -0.833177  -0.978573)
  45:      3026.37   16.731014  ( -0.926528  -3.968790   0.348233)
  46:      3060.30    1.439717  ( -1.065157  -0.485986  -0.262630)
  47:      3063.07    1.661451  (  0.810838   0.799266  -0.604291)
  48:      3140.87    3.962562  ( -0.220299  -0.903861   1.759848)
  49:      3142.63    2.604696  (  0.179431   1.284615  -0.960346)
  50:      3147.85    6.515339  ( -0.107467  -2.369421  -0.943203)
  51:      3151.64    0.920743  ( -0.078701   0.890233   0.349333)
  52:      3198.33    0.323627  ( -0.448487  -0.319089   0.143765)
  53:      3204.73    2.885157  ( -0.241337  -1.326584   1.033000)
  54:      3464.26  108.610399  (  6.707340   0.866779   7.929103)
  55:      3606.05  142.129787  ( -6.319449  -2.546947   9.783016)
  56:      3866.31  112.504490  (  1.975787   0.000212 -10.421169)

--------------------------
THERMOCHEMISTRY AT 298.15K
--------------------------

Temperature         ... 298.15 K
Pressure            ... 1.00 atm
Total Mass          ... 102.16 AMU

Throughout the following assumptions are being made:
  (1) The electronic state is orbitally nondegenerate
  (2) There are no thermally accessible electronically excited states
  (3) Hindered rotations indicated by low frequency modes) are not
      treated as such but are treated as vibrations and this may
      case some error
  (4) All equations used are the standard statistical mechanics
      equations for an ideal gas
  (5) All vibrations are strinctly harmonic

------------
INNER ENERGY
------------

The inner energy is: U= E(el) + E(ZPE) + E(vib) + E(rot) + E(trans)
    E(el)   - is the total energy from the electronic structure calculation
              = E(kin-el) + E(nuc-el) + E(el-el) + E(nuc-nuc)
    E(ZPE)  - the the zero temperature vibrational energy from the frequency calculation
    E(vib)  - the the finite temperature correction to E(ZPE) due to population
              of excietd vibrational states
    E(rot)  - is the rotational thermal energy
    E(trans)- is the translational thermal energy

Summary of contributions to the inner energy U:
Electronic energy                ...   -327.21616157 Eh
Zero point energy                ...      0.17391444 Eh     109.13 kcal/mol
Thermal vibrational correction   ...      0.00545824 Eh       3.43 kcal/mol
Thermal rotational correction    ...      0.00141627 Eh       0.89 kcal/mol
Thermal translational correction ...      0.00141627 Eh       0.89 kcal/mol
-----------------------------------------------------------------------
Total thermal energy                   -327.03395634 Eh

Summary of corrections to the electronic energy:
(perhaps to be used in another calculation)
Total thermal correction                  0.00829079 Eh       5.20 kcal/mol
Non-thermal (ZPE) correction              0.17391444 Eh     109.13 kcal/mol
-----------------------------------------------------------------------
Total correction                          0.18220523 Eh     114.34 kcal/mol

--------
ENTHALPY
--------

The enthalpy is H = U + kB*T
                kB is Boltzmann's constant
Total free energy                 ...   -327.03395634 Eh
Thermal Enthalpy correction       ...      0.00094421 Eh       0.59 kcal/mol
-----------------------------------------------------------------------
Total Enthalpy                    ...   -327.03301213 Eh

-------
ENTROPY
-------

The entropy contributions are T*S = T*(S(el)+S(vib)+S(rot)+S(trans)
     S(el)   - electronic entropy
     S(vib)  - vibrational entropy
     S(rot)  - rotational entropy
     S(trans)- translational entropy
The entropies will be listed as mutliplied by the temperature to get
units of energy

Electronic entropy                ...      0.00000000 Eh      0.00 kcal/mol
Vibrational entropy               ...      0.00923187 Eh      5.79 kcal/mol
Rotational entropy                ...      0.01210728 Eh      7.60 kcal/mol
Translational entropy             ...      0.01890147 Eh     11.86 kcal/mol
-----------------------------------------------------------------------
Final entropy term                ...      0.04024062 Eh     25.25 kcal/mol

CAUTION: The rotational entropy is not quite correctly treated here
         because it includes a symmetry number that is not yet correctly
         implemented in ORCA!
For a nonlinear molecule the correct rotational entropy is:
    S(rot) = R*(ln(qrot/sn)+1.5)
    R    = 8.31441 J/mol/K = 1.987191683e-3 kcal/mol/K
    qrot = 248120.0289206
    sn is the rotational symmetry number. We have assumed 3 here
       if it is different for your molecule then you should correct
       the printed rotational entropy by manually evaluating the equation
       as given above

For convenience we print out the resulting values for sn=1 - 12:
 sn= 1  qrot/sn=  248120.0289 T*S(rot)=     8.25 kcal/mol T*S(tot)=    25.90 kcal/mol
 sn= 2  qrot/sn=  124060.0145 T*S(rot)=     7.84 kcal/mol T*S(tot)=    25.49 kcal/mol
 sn= 3  qrot/sn=   82706.6763 T*S(rot)=     7.60 kcal/mol T*S(tot)=    25.25 kcal/mol
 sn= 4  qrot/sn=   62030.0072 T*S(rot)=     7.43 kcal/mol T*S(tot)=    25.08 kcal/mol
 sn= 5  qrot/sn=   49624.0058 T*S(rot)=     7.29 kcal/mol T*S(tot)=    24.95 kcal/mol
 sn= 6  qrot/sn=   41353.3382 T*S(rot)=     7.19 kcal/mol T*S(tot)=    24.84 kcal/mol
 sn= 7  qrot/sn=   35445.7184 T*S(rot)=     7.10 kcal/mol T*S(tot)=    24.75 kcal/mol
 sn= 8  qrot/sn=   31015.0036 T*S(rot)=     7.02 kcal/mol T*S(tot)=    24.67 kcal/mol
 sn= 9  qrot/sn=   27568.8921 T*S(rot)=     6.95 kcal/mol T*S(tot)=    24.60 kcal/mol
 sn=10  qrot/sn=   24812.0029 T*S(rot)=     6.88 kcal/mol T*S(tot)=    24.54 kcal/mol
 sn=11  qrot/sn=   22556.3663 T*S(rot)=     6.83 kcal/mol T*S(tot)=    24.48 kcal/mol
 sn=12  qrot/sn=   20676.6691 T*S(rot)=     6.78 kcal/mol T*S(tot)=    24.43 kcal/mol

-------------------
GIBBS FREE ENTHALPY
-------------------

The Gibbs free enthalpy is G = H - T*S

Total enthalpy                    ...   -327.03301213 Eh
Total entropy correction          ...     -0.04024062 Eh    -25.25 kcal/mol
-----------------------------------------------------------------------
Final Gibbs free enthalpy         ...   -327.07325275 Eh

For completeness - the Gibbs free enthalpy minus the electronic energy
G-E(el)                           ...      0.14290882 Eh     89.68 kcal/mol

                             ****ORCA TERMINATED NORMALLY****
TOTAL RUN TIME: 0 days 0 hours 51 minutes 41 seconds 393 msec
