                         Program Version 3.0.3 - RELEASE   -
|  1> ! NORI PBE0 def2-TZVP UseSym TightOPT Freq TightSCF Grid3 FinalGrid5 XYZFile
|  2> % pal
|  3>     nprocs 8
|  4> end
|  5> %method
|  6>     SymThresh 5.0e-2
|  7> end
|  8> % geom
|  9>     MaxIter 10
| 10> end
| 11> % maxcore 2000
| 12> % output
| 13>     printlevel mini
| 14>     print[ P_Basis ] 0
| 15>     print[ P_SCFInfo ] 1
| 16>     print[ P_SCFIterInfo ] 1
| 17>     print[ P_OrbEn ] 0
| 18>     print[ P_Cartesian ] 0
| 19> end
| 20> % elprop
| 21>     Dipole false
| 22> end
| 23> *xyz 1 1
| 24>  C        3.3285144288     0.5573367429    -1.2457705960
| 25>  C        2.4712632926     0.0995556826    -0.0930363186
| 26>  O        2.2003017624    -1.2973664750    -0.1313111553
| 27>  C        3.0448226463     0.3966976942     1.2860447711
| 28>  N        2.2455455692    -0.3879698944     2.2660866165
| 29>  C        4.4956044690     0.5447158280     1.5990004855
| 30>  C        3.5635143335     1.7145399029     1.7351246465
| 31>  H        2.8020301432     0.3724636271    -2.1827980114
| 32>  H        4.2802210967     0.0199415038    -1.2706479445
| 33>  H        3.5392805849     1.6265679498    -1.1938027327
| 34>  H        1.4915441982     0.5895598732    -0.1592245153
| 35>  H        2.8641801220    -1.7492632115    -0.6618450523
| 36>  H        2.0656087626    -1.2926136014     1.7951775891
| 37>  H        1.3462599047     0.0536800942     2.4695639380
| 38>  H        2.7369507359    -0.5428916155     3.1455341885
| 39>  H        5.1926479666     0.5300964180     0.7719977509
| 40>  H        4.8825144097     0.0959788354     2.5072581807
| 41>  H        3.3206959794     2.0568187370     2.7344838991
| 42>  H        3.6116495943     2.5068519085     0.9987442600
| 43> *
| 44>
| 45>                          ****END OF INPUT****
 Total Charge           Charge          ....    1
 Multiplicity           Mult            ....    1
 Number of Electrons    NEL             ....   56
FINAL SINGLE POINT ENERGY      -327.208887865996
FINAL SINGLE POINT ENERGY      -327.208888978378

CARTESIAN COORDINATES (ANGSTROEM)
---------------------------------
  C     -1.970798    0.366199    0.515122
  C     -0.486870    0.563970    0.694373
  O      0.000289   -0.000241    1.907013
  C      0.372660   -0.002331   -0.428301
  N      1.778581    0.000547    0.059143
  C     -0.009698   -1.143142   -1.310191
  C      0.157957    0.236951   -1.878859
  H     -2.502090    0.866550    1.325157
  H     -2.235052   -0.694872    0.530071
  H     -2.325308    0.795367   -0.423296
  H     -0.275726    1.638766    0.766598
  H     -0.604133   -0.679273    2.223233
  H      1.712725   -0.273116    1.055908
  H      2.200366    0.930569    0.007820
  H      2.375252   -0.654636   -0.444663
  H     -1.009082   -1.543938   -1.208547
  H      0.739096   -1.888009   -1.557146
  H      1.019939    0.425657   -2.508954
  H     -0.726056    0.791795   -2.165326

FINAL SINGLE POINT ENERGY      -327.208889572995
                    ***********************HURRAY********************
 Multiplicity           Mult            ....    1
 Number of Electrons    NEL             ....   56
 Basis Dimension        Dim             ....  289
FINAL SINGLE POINT ENERGY      -327.208889819310

VIBRATIONAL FREQUENCIES
-----------------------

   0:         0.00 cm**-1
   1:         0.00 cm**-1
   2:         0.00 cm**-1
   3:         0.00 cm**-1
   4:         0.00 cm**-1
   5:         0.00 cm**-1
   6:        83.62 cm**-1
   7:       209.12 cm**-1
   8:       238.56 cm**-1
   9:       259.15 cm**-1
  10:       269.50 cm**-1
  11:       310.18 cm**-1
  12:       349.05 cm**-1
  13:       373.92 cm**-1
  14:       404.58 cm**-1
  15:       467.33 cm**-1
  16:       546.83 cm**-1
  17:       702.43 cm**-1
  18:       767.11 cm**-1
  19:       866.79 cm**-1
  20:       906.80 cm**-1
  21:       919.65 cm**-1
  22:       943.05 cm**-1
  23:       964.82 cm**-1
  24:      1041.70 cm**-1
  25:      1064.94 cm**-1
  26:      1075.24 cm**-1
  27:      1087.51 cm**-1
  28:      1107.47 cm**-1
  29:      1142.66 cm**-1
  30:      1181.39 cm**-1
  31:      1187.34 cm**-1
  32:      1254.62 cm**-1
  33:      1286.32 cm**-1
  34:      1380.06 cm**-1
  35:      1394.16 cm**-1
  36:      1409.55 cm**-1
  37:      1424.80 cm**-1
  38:      1458.91 cm**-1
  39:      1460.66 cm**-1
  40:      1485.46 cm**-1
  41:      1494.28 cm**-1
  42:      1518.69 cm**-1
  43:      1631.52 cm**-1
  44:      1669.80 cm**-1
  45:      3034.91 cm**-1
  46:      3060.41 cm**-1
  47:      3140.11 cm**-1
  48:      3155.75 cm**-1
  49:      3156.76 cm**-1
  50:      3158.61 cm**-1
  51:      3242.26 cm**-1
  52:      3253.42 cm**-1
  53:      3265.35 cm**-1
  54:      3457.09 cm**-1
  55:      3526.99 cm**-1
  56:      3846.15 cm**-1

IR SPECTRUM
-----------

 Mode    freq (cm**-1)   T**2         TX         TY         TZ
-------------------------------------------------------------------
   6:        83.62    8.663710  (  1.321065   1.637068  -2.058763)
   7:       209.12   40.039334  (  3.026333  -4.165847  -3.677821)
   8:       238.56   10.447073  (  2.601844  -0.424421  -1.870119)
   9:       259.15    3.275829  (  1.447286  -0.747210  -0.789221)
  10:       269.50    1.503489  ( -0.437668   0.273459   1.112275)
  11:       310.18   73.022751  (  4.818994  -3.587392  -6.077061)
  12:       349.05    6.608040  ( -0.529810  -1.824145   1.732004)
  13:       373.92    7.868163  ( -0.619566   2.405128   1.303710)
  14:       404.58   12.029798  ( -3.222271  -1.178130   0.508701)
  15:       467.33    4.258524  (  1.157635  -0.865310   1.472971)
  16:       546.83    3.513823  ( -0.617863   1.326007  -1.172082)
  17:       702.43    2.617113  (  0.328309   0.840032  -1.343009)
  18:       767.11    0.634080  ( -0.235985   0.079632   0.756339)
  19:       866.79    6.105881  (  1.822709  -1.621789  -0.391680)
  20:       906.80    2.904530  ( -1.534878   0.234505   0.702628)
  21:       919.65    9.865667  (  1.668904  -0.476265   2.617938)
  22:       943.05   26.805883  ( -0.110027  -0.246386   5.170403)
  23:       964.82   13.733918  ( -1.684844   2.086540   2.557649)
  24:      1041.70   13.917389  ( -2.791438   1.780355   1.719186)
  25:      1064.94   15.534369  ( -0.180382   3.376450  -2.025196)
  26:      1075.24   91.767557  ( -2.172179   1.565398  -9.197756)
  27:      1087.51   26.019837  ( -0.098006  -0.660768  -5.057036)
  28:      1107.47    2.421605  (  0.485489   1.458617  -0.241541)
  29:      1142.66   25.970910  ( -2.909653   1.137557  -4.026263)
  30:      1181.39   34.098289  ( -2.056199  -2.800750   4.693201)
  31:      1187.34    7.164768  (  0.635672   1.185624  -2.314084)
  32:      1254.62   10.842205  (  2.837934  -1.173883   1.187575)
  33:      1286.32    7.302042  (  1.451202  -1.090256   2.001848)
  34:      1380.06   20.515874  (  1.688083   0.744929   4.136584)
  35:      1394.16    1.902001  (  1.108741   0.601751  -0.557307)
  36:      1409.55    8.865298  (  1.063287  -1.923681   2.008524)
  37:      1424.80   28.550268  (  4.917475  -0.873684   1.898786)
  38:      1458.91   51.971956  (  6.950970   1.887863   0.303238)
  39:      1460.66  141.124660  (-11.332456   2.333748  -2.693272)
  40:      1485.46   10.224327  ( -1.702304   2.581695   0.813229)
  41:      1494.28   19.101961  (  1.384679  -3.517971   2.192831)
  42:      1518.69   16.325467  (  3.251844  -1.008536  -2.175738)
  43:      1631.52   24.446965  (  2.037599   3.799359  -2.420748)
  44:      1669.80   44.001834  (  2.705865  -4.599303  -3.940373)
  45:      3034.91   11.021697  (  1.006973   3.145601  -0.336001)
  46:      3060.41    4.658740  ( -0.820375  -1.965459  -0.350280)
  47:      3140.11    5.242390  (  0.105941  -2.182657   0.683502)
  48:      3155.75    1.311973  (  0.230441  -0.565067  -0.969314)
  49:      3156.76    1.233719  ( -0.434876   0.336848  -0.964954)
  50:      3158.61    1.260121  ( -1.076572  -0.094232  -0.303702)
  51:      3242.26    0.047417  (  0.104589  -0.189951  -0.019923)
  52:      3253.42    0.379439  ( -0.452196  -0.022548   0.417671)
  53:      3265.35  153.604571  (  3.459263   1.631484 -11.788822)
  54:      3457.09   79.145368  ( -6.632159  -4.295865   4.087222)
  55:      3526.99   79.180514  ( -3.625306   7.372479   3.418218)
  56:      3846.15   83.749164  (  4.410289   5.474500  -5.859041)

--------------------------
THERMOCHEMISTRY AT 298.15K
--------------------------

Temperature         ... 298.15 K
Pressure            ... 1.00 atm
Total Mass          ... 102.16 AMU

Throughout the following assumptions are being made:
  (1) The electronic state is orbitally nondegenerate
  (2) There are no thermally accessible electronically excited states
  (3) Hindered rotations indicated by low frequency modes) are not
      treated as such but are treated as vibrations and this may
      case some error
  (4) All equations used are the standard statistical mechanics
      equations for an ideal gas
  (5) All vibrations are strinctly harmonic

------------
INNER ENERGY
------------

The inner energy is: U= E(el) + E(ZPE) + E(vib) + E(rot) + E(trans)
    E(el)   - is the total energy from the electronic structure calculation
              = E(kin-el) + E(nuc-el) + E(el-el) + E(nuc-nuc)
    E(ZPE)  - the the zero temperature vibrational energy from the frequency calculation
    E(vib)  - the the finite temperature correction to E(ZPE) due to population
              of excietd vibrational states
    E(rot)  - is the rotational thermal energy
    E(trans)- is the translational thermal energy

Summary of contributions to the inner energy U:
Electronic energy                ...   -327.20888982 Eh
Zero point energy                ...      0.17459281 Eh     109.56 kcal/mol
Thermal vibrational correction   ...      0.00533429 Eh       3.35 kcal/mol
Thermal rotational correction    ...      0.00141627 Eh       0.89 kcal/mol
Thermal translational correction ...      0.00141627 Eh       0.89 kcal/mol
-----------------------------------------------------------------------
Total thermal energy                   -327.02613017 Eh

Summary of corrections to the electronic energy:
(perhaps to be used in another calculation)
Total thermal correction                  0.00816684 Eh       5.12 kcal/mol
Non-thermal (ZPE) correction              0.17459281 Eh     109.56 kcal/mol
-----------------------------------------------------------------------
Total correction                          0.18275965 Eh     114.68 kcal/mol

--------
ENTHALPY
--------

The enthalpy is H = U + kB*T
                kB is Boltzmann's constant
Total free energy                 ...   -327.02613017 Eh
Thermal Enthalpy correction       ...      0.00094421 Eh       0.59 kcal/mol
-----------------------------------------------------------------------
Total Enthalpy                    ...   -327.02518596 Eh

-------
ENTROPY
-------

The entropy contributions are T*S = T*(S(el)+S(vib)+S(rot)+S(trans)
     S(el)   - electronic entropy
     S(vib)  - vibrational entropy
     S(rot)  - rotational entropy
     S(trans)- translational entropy
The entropies will be listed as mutliplied by the temperature to get
units of energy

Electronic entropy                ...      0.00000000 Eh      0.00 kcal/mol
Vibrational entropy               ...      0.00886509 Eh      5.56 kcal/mol
Rotational entropy                ...      0.01201698 Eh      7.54 kcal/mol
Translational entropy             ...      0.01890147 Eh     11.86 kcal/mol
-----------------------------------------------------------------------
Final entropy term                ...      0.03978354 Eh     24.96 kcal/mol

CAUTION: The rotational entropy is not quite correctly treated here
         because it includes a symmetry number that is not yet correctly
         implemented in ORCA!
For a nonlinear molecule the correct rotational entropy is:
    S(rot) = R*(ln(qrot/sn)+1.5)
    R    = 8.31441 J/mol/K = 1.987191683e-3 kcal/mol/K
    qrot = 225488.5655440
    sn is the rotational symmetry number. We have assumed 3 here
       if it is different for your molecule then you should correct
       the printed rotational entropy by manually evaluating the equation
       as given above

For convenience we print out the resulting values for sn=1 - 12:
 sn= 1  qrot/sn=  225488.5655 T*S(rot)=     8.19 kcal/mol T*S(tot)=    25.62 kcal/mol
 sn= 2  qrot/sn=  112744.2828 T*S(rot)=     7.78 kcal/mol T*S(tot)=    25.20 kcal/mol
 sn= 3  qrot/sn=   75162.8552 T*S(rot)=     7.54 kcal/mol T*S(tot)=    24.96 kcal/mol
 sn= 4  qrot/sn=   56372.1414 T*S(rot)=     7.37 kcal/mol T*S(tot)=    24.79 kcal/mol
 sn= 5  qrot/sn=   45097.7131 T*S(rot)=     7.24 kcal/mol T*S(tot)=    24.66 kcal/mol
 sn= 6  qrot/sn=   37581.4276 T*S(rot)=     7.13 kcal/mol T*S(tot)=    24.55 kcal/mol
 sn= 7  qrot/sn=   32212.6522 T*S(rot)=     7.04 kcal/mol T*S(tot)=    24.46 kcal/mol
 sn= 8  qrot/sn=   28186.0707 T*S(rot)=     6.96 kcal/mol T*S(tot)=    24.38 kcal/mol
 sn= 9  qrot/sn=   25054.2851 T*S(rot)=     6.89 kcal/mol T*S(tot)=    24.31 kcal/mol
 sn=10  qrot/sn=   22548.8566 T*S(rot)=     6.83 kcal/mol T*S(tot)=    24.25 kcal/mol
 sn=11  qrot/sn=   20498.9605 T*S(rot)=     6.77 kcal/mol T*S(tot)=    24.19 kcal/mol
 sn=12  qrot/sn=   18790.7138 T*S(rot)=     6.72 kcal/mol T*S(tot)=    24.14 kcal/mol

-------------------
GIBBS FREE ENTHALPY
-------------------

The Gibbs free enthalpy is G = H - T*S

Total enthalpy                    ...   -327.02518596 Eh
Total entropy correction          ...     -0.03978354 Eh    -24.96 kcal/mol
-----------------------------------------------------------------------
Final Gibbs free enthalpy         ...   -327.06496950 Eh

For completeness - the Gibbs free enthalpy minus the electronic energy
G-E(el)                           ...      0.14392032 Eh     90.31 kcal/mol

                             ****ORCA TERMINATED NORMALLY****
TOTAL RUN TIME: 0 days 0 hours 57 minutes 15 seconds 2 msec
