                         Program Version 3.0.3 - RELEASE   -
|  1> ! NORI PBE0 def2-TZVP UseSym TightOPT Freq TightSCF Grid3 FinalGrid5 XYZFile
|  2> % pal
|  3>     nprocs 8
|  4> end
|  5> %method
|  6>     SymThresh 5.0e-2
|  7> end
|  8> % geom
|  9>     MaxIter 10
| 10> end
| 11> % maxcore 2000
| 12> % output
| 13>     printlevel mini
| 14>     print[ P_Basis ] 0
| 15>     print[ P_SCFInfo ] 1
| 16>     print[ P_SCFIterInfo ] 1
| 17>     print[ P_OrbEn ] 0
| 18>     print[ P_Cartesian ] 0
| 19> end
| 20> % elprop
| 21>     Dipole false
| 22> end
| 23> *xyz 1 1
| 24>  C        1.4004978446     0.6319270636    -0.6359974240
| 25>  C        2.7312828978     0.3227873836    -0.0099538261
| 26>  O        3.3621469960     1.5534855789     0.3686733866
| 27>  C        4.6035705941     1.3874844344     0.9822845682
| 28>  C        5.1248402762     2.7659565044     1.2846116321
| 29>  C        4.8962087534     3.8779341844     0.3508183919
| 30>  N        4.0459494543     3.7527619698     1.5573025543
| 31>  H        0.9148616229    -0.2982060786    -0.9353497335
| 32>  H        1.5190099678     1.2520317160    -1.5261611727
| 33>  H        0.7410884325     1.1432013675     0.0680910460
| 34>  H        3.3884376598    -0.2030496575    -0.7124177931
| 35>  H        2.6165882042    -0.3025769944     0.8837279585
| 36>  H        5.3279242594     0.8791940099     0.3306248219
| 37>  H        4.5233289237     0.8086534391     1.9129178841
| 38>  H        5.9640083572     2.8392800316     1.9666611339
| 39>  H        4.3575298326     3.6855621718    -0.5674416383
| 40>  H        5.5624255527     4.7305205886     0.3644543905
| 41>  H        3.1130113906     3.3733182799     1.3922739188
| 42>  H        4.1420989803     4.4223340070     2.3114799012
| 43> *
| 44>
| 45>                          ****END OF INPUT****
 Total Charge           Charge          ....    1
 Multiplicity           Mult            ....    1
 Number of Electrons    NEL             ....   56
FINAL SINGLE POINT ENERGY      -327.191642100021
FINAL SINGLE POINT ENERGY      -327.191643133603

CARTESIAN COORDINATES (ANGSTROEM)
---------------------------------
  C      0.687733    0.902796    2.721379
  C     -0.133273   -0.153987    2.037775
  O      0.001054    0.000024    0.618788
  C     -0.706474   -0.946267   -0.121651
  C     -0.475491   -0.622313   -1.572691
  C     -0.398999    0.772694   -2.029733
  N      0.849961    0.002143   -1.827930
  H      0.586491    0.798892    3.802969
  H      0.350169    1.903318    2.445970
  H      1.746096    0.804020    2.473097
  H     -1.194229   -0.063578    2.298022
  H      0.201443   -1.160841    2.314737
  H     -1.787063   -0.908307    0.073974
  H     -0.361614   -1.967891    0.089857
  H     -0.746557   -1.380333   -2.297971
  H     -0.527120    1.566882   -1.306264
  H     -0.613694    1.006300   -3.064071
  H      1.356621    0.216321   -0.968231
  H      1.403180   -0.276802   -2.629316

FINAL SINGLE POINT ENERGY      -327.191643603947
                    ***********************HURRAY********************
 Multiplicity           Mult            ....    1
 Number of Electrons    NEL             ....   56
 Basis Dimension        Dim             ....  289
FINAL SINGLE POINT ENERGY      -327.191643776993

VIBRATIONAL FREQUENCIES
-----------------------

   0:         0.00 cm**-1
   1:         0.00 cm**-1
   2:         0.00 cm**-1
   3:         0.00 cm**-1
   4:         0.00 cm**-1
   5:         0.00 cm**-1
   6:        69.40 cm**-1
   7:        86.53 cm**-1
   8:       135.40 cm**-1
   9:       168.78 cm**-1
  10:       255.98 cm**-1
  11:       300.85 cm**-1
  12:       364.48 cm**-1
  13:       426.80 cm**-1
  14:       577.71 cm**-1
  15:       793.22 cm**-1
  16:       821.05 cm**-1
  17:       843.61 cm**-1
  18:       861.63 cm**-1
  19:       895.42 cm**-1
  20:       911.46 cm**-1
  21:       985.76 cm**-1
  22:      1035.66 cm**-1
  23:      1056.42 cm**-1
  24:      1086.70 cm**-1
  25:      1112.25 cm**-1
  26:      1145.44 cm**-1
  27:      1170.27 cm**-1
  28:      1178.25 cm**-1
  29:      1184.91 cm**-1
  30:      1195.90 cm**-1
  31:      1247.30 cm**-1
  32:      1261.65 cm**-1
  33:      1287.41 cm**-1
  34:      1307.93 cm**-1
  35:      1384.53 cm**-1
  36:      1408.45 cm**-1
  37:      1421.53 cm**-1
  38:      1450.32 cm**-1
  39:      1478.21 cm**-1
  40:      1481.73 cm**-1
  41:      1490.73 cm**-1
  42:      1504.27 cm**-1
  43:      1521.73 cm**-1
  44:      1588.36 cm**-1
  45:      3012.42 cm**-1
  46:      3028.93 cm**-1
  47:      3051.58 cm**-1
  48:      3064.88 cm**-1
  49:      3071.38 cm**-1
  50:      3145.62 cm**-1
  51:      3149.34 cm**-1
  52:      3178.61 cm**-1
  53:      3213.34 cm**-1
  54:      3284.22 cm**-1
  55:      3449.49 cm**-1
  56:      3605.73 cm**-1

IR SPECTRUM
-----------

 Mode    freq (cm**-1)   T**2         TX         TY         TZ
-------------------------------------------------------------------
   6:        69.40    1.887175  ( -0.592024   1.183934   0.367401)
   7:        86.53    4.613240  (  1.707754  -0.977993   0.860434)
   8:       135.40    8.237332  (  0.300844   0.913634   2.704089)
   9:       168.78    7.094509  (  1.850279  -1.455453  -1.246048)
  10:       255.98    1.007821  (  0.771376  -0.629413  -0.128994)
  11:       300.85   15.767012  (  0.991312   0.950576  -3.725684)
  12:       364.48    5.310626  (  0.459208   0.818975  -2.104527)
  13:       426.80    1.796047  (  0.618806   0.674100   0.979140)
  14:       577.71    2.814445  (  0.991626   0.985761  -0.927037)
  15:       793.22    1.993036  (  0.165085   0.193061   1.388708)
  16:       821.05    0.977400  (  0.811912  -0.543825   0.149843)
  17:       843.61   14.006858  ( -3.360293   0.758837   1.462688)
  18:       861.63   10.770540  (  2.751484  -0.003131   1.788816)
  19:       895.42   31.401735  (  2.168504   1.892489  -4.808099)
  20:       911.46    1.322267  ( -0.892001   0.484781  -0.539990)
  21:       985.76    8.665074  (  2.929025  -0.091164   0.278521)
  22:      1035.66   74.652686  (  2.416660   7.843487  -2.700397)
  23:      1056.42   10.680409  ( -0.356275  -3.222656   0.409840)
  24:      1086.70    8.852825  ( -0.464486   2.779985  -0.953291)
  25:      1112.25   77.054444  (  0.028783   0.494387  -8.764086)
  26:      1145.44  108.220118  ( -0.402691  -0.647561 -10.374904)
  27:      1170.27    8.557040  ( -0.768087  -0.386095   2.796071)
  28:      1178.25   11.838256  ( -1.566414   0.567598   3.010388)
  29:      1184.91    4.901501  (  0.472420  -1.692924   1.346227)
  30:      1195.90   89.146641  (  4.341409   5.519138   6.311729)
  31:      1247.30    6.867111  ( -2.151182   0.650746  -1.347611)
  32:      1261.65    2.374116  (  1.349742  -0.628213   0.397066)
  33:      1287.41   14.681895  (  0.780306   1.201351   3.553839)
  34:      1307.93    4.418139  ( -1.537116   1.337920   0.515152)
  35:      1384.53   14.793421  (  0.454506   0.509386   3.785151)
  36:      1408.45   12.847328  ( -1.419893  -1.675989  -2.832365)
  37:      1421.53    2.508067  ( -0.730843  -0.034196  -1.404552)
  38:      1450.32   11.710586  ( -1.037821  -2.921328  -1.448915)
  39:      1478.21    9.726632  ( -2.528423   1.822589   0.108980)
  40:      1481.73   17.395375  ( -2.449932   3.064438  -1.415072)
  41:      1490.73    3.406215  ( -0.417677  -0.539923   1.714714)
  42:      1504.27    3.545783  (  0.208889  -0.623734  -1.764399)
  43:      1521.73    5.840505  ( -1.005373  -2.180022   0.277910)
  44:      1588.36   81.504684  ( -8.311354  -1.107481   3.346574)
  45:      3012.42   16.302703  ( -1.484387  -3.251389  -1.878234)
  46:      3028.93   28.643976  ( -2.357205  -3.821736   2.912369)
  47:      3051.58   12.631804  (  2.710183  -2.268215   0.376717)
  48:      3064.88    6.107196  (  1.516622   1.950220  -0.060782)
  49:      3071.38   12.872684  ( -3.016693   1.936304   0.151573)
  50:      3145.62   14.604841  ( -3.367049   1.613887   0.814365)
  51:      3149.34    7.170911  ( -0.272922   2.182594  -1.527320)
  52:      3178.61    2.544321  ( -0.488725   1.517154   0.060935)
  53:      3213.34    1.559519  ( -0.476024  -0.955693  -0.647743)
  54:      3284.22    7.915247  ( -0.094227  -0.928089  -2.654245)
  55:      3449.49  110.549281  ( -7.725890  -0.351027  -7.122969)
  56:      3605.73  185.585576  ( -4.704159   2.878535  12.456745)

--------------------------
THERMOCHEMISTRY AT 298.15K
--------------------------

Temperature         ... 298.15 K
Pressure            ... 1.00 atm
Total Mass          ... 102.16 AMU

Throughout the following assumptions are being made:
  (1) The electronic state is orbitally nondegenerate
  (2) There are no thermally accessible electronically excited states
  (3) Hindered rotations indicated by low frequency modes) are not
      treated as such but are treated as vibrations and this may
      case some error
  (4) All equations used are the standard statistical mechanics
      equations for an ideal gas
  (5) All vibrations are strinctly harmonic

------------
INNER ENERGY
------------

The inner energy is: U= E(el) + E(ZPE) + E(vib) + E(rot) + E(trans)
    E(el)   - is the total energy from the electronic structure calculation
              = E(kin-el) + E(nuc-el) + E(el-el) + E(nuc-nuc)
    E(ZPE)  - the the zero temperature vibrational energy from the frequency calculation
    E(vib)  - the the finite temperature correction to E(ZPE) due to population
              of excietd vibrational states
    E(rot)  - is the rotational thermal energy
    E(trans)- is the translational thermal energy

Summary of contributions to the inner energy U:
Electronic energy                ...   -327.19164378 Eh
Zero point energy                ...      0.17485750 Eh     109.72 kcal/mol
Thermal vibrational correction   ...      0.00527403 Eh       3.31 kcal/mol
Thermal rotational correction    ...      0.00141627 Eh       0.89 kcal/mol
Thermal translational correction ...      0.00141627 Eh       0.89 kcal/mol
-----------------------------------------------------------------------
Total thermal energy                   -327.00867970 Eh

Summary of corrections to the electronic energy:
(perhaps to be used in another calculation)
Total thermal correction                  0.00810657 Eh       5.09 kcal/mol
Non-thermal (ZPE) correction              0.17485750 Eh     109.72 kcal/mol
-----------------------------------------------------------------------
Total correction                          0.18296408 Eh     114.81 kcal/mol

--------
ENTHALPY
--------

The enthalpy is H = U + kB*T
                kB is Boltzmann's constant
Total free energy                 ...   -327.00867970 Eh
Thermal Enthalpy correction       ...      0.00094421 Eh       0.59 kcal/mol
-----------------------------------------------------------------------
Total Enthalpy                    ...   -327.00773549 Eh

-------
ENTROPY
-------

The entropy contributions are T*S = T*(S(el)+S(vib)+S(rot)+S(trans)
     S(el)   - electronic entropy
     S(vib)  - vibrational entropy
     S(rot)  - rotational entropy
     S(trans)- translational entropy
The entropies will be listed as mutliplied by the temperature to get
units of energy

Electronic entropy                ...      0.00000000 Eh      0.00 kcal/mol
Vibrational entropy               ...      0.00982124 Eh      6.16 kcal/mol
Rotational entropy                ...      0.01217848 Eh      7.64 kcal/mol
Translational entropy             ...      0.01890147 Eh     11.86 kcal/mol
-----------------------------------------------------------------------
Final entropy term                ...      0.04090119 Eh     25.67 kcal/mol

CAUTION: The rotational entropy is not quite correctly treated here
         because it includes a symmetry number that is not yet correctly
         implemented in ORCA!
For a nonlinear molecule the correct rotational entropy is:
    S(rot) = R*(ln(qrot/sn)+1.5)
    R    = 8.31441 J/mol/K = 1.987191683e-3 kcal/mol/K
    qrot = 267552.2095572
    sn is the rotational symmetry number. We have assumed 3 here
       if it is different for your molecule then you should correct
       the printed rotational entropy by manually evaluating the equation
       as given above

For convenience we print out the resulting values for sn=1 - 12:
 sn= 1  qrot/sn=  267552.2096 T*S(rot)=     8.29 kcal/mol T*S(tot)=    26.32 kcal/mol
 sn= 2  qrot/sn=  133776.1048 T*S(rot)=     7.88 kcal/mol T*S(tot)=    25.91 kcal/mol
 sn= 3  qrot/sn=   89184.0699 T*S(rot)=     7.64 kcal/mol T*S(tot)=    25.67 kcal/mol
 sn= 4  qrot/sn=   66888.0524 T*S(rot)=     7.47 kcal/mol T*S(tot)=    25.50 kcal/mol
 sn= 5  qrot/sn=   53510.4419 T*S(rot)=     7.34 kcal/mol T*S(tot)=    25.36 kcal/mol
 sn= 6  qrot/sn=   44592.0349 T*S(rot)=     7.23 kcal/mol T*S(tot)=    25.26 kcal/mol
 sn= 7  qrot/sn=   38221.7442 T*S(rot)=     7.14 kcal/mol T*S(tot)=    25.16 kcal/mol
 sn= 8  qrot/sn=   33444.0262 T*S(rot)=     7.06 kcal/mol T*S(tot)=    25.08 kcal/mol
 sn= 9  qrot/sn=   29728.0233 T*S(rot)=     6.99 kcal/mol T*S(tot)=    25.01 kcal/mol
 sn=10  qrot/sn=   26755.2210 T*S(rot)=     6.93 kcal/mol T*S(tot)=    24.95 kcal/mol
 sn=11  qrot/sn=   24322.9281 T*S(rot)=     6.87 kcal/mol T*S(tot)=    24.90 kcal/mol
 sn=12  qrot/sn=   22296.0175 T*S(rot)=     6.82 kcal/mol T*S(tot)=    24.84 kcal/mol

-------------------
GIBBS FREE ENTHALPY
-------------------

The Gibbs free enthalpy is G = H - T*S

Total enthalpy                    ...   -327.00773549 Eh
Total entropy correction          ...     -0.04090119 Eh    -25.67 kcal/mol
-----------------------------------------------------------------------
Final Gibbs free enthalpy         ...   -327.04863667 Eh

For completeness - the Gibbs free enthalpy minus the electronic energy
G-E(el)                           ...      0.14300710 Eh     89.74 kcal/mol

                             ****ORCA TERMINATED NORMALLY****
TOTAL RUN TIME: 0 days 0 hours 49 minutes 20 seconds 917 msec
