                         Program Version 3.0.3 - RELEASE   -
|  1> ! NORI PBE0 def2-TZVP UseSym TightOPT Freq TightSCF Grid3 FinalGrid5 XYZFile
|  2> % pal
|  3>     nprocs 8
|  4> end
|  5> %method
|  6>     SymThresh 5.0e-2
|  7> end
|  8> % geom
|  9>     MaxIter 10
| 10> end
| 11> % maxcore 2000
| 12> % output
| 13>     printlevel mini
| 14>     print[ P_Basis ] 0
| 15>     print[ P_SCFInfo ] 1
| 16>     print[ P_SCFIterInfo ] 1
| 17>     print[ P_OrbEn ] 0
| 18>     print[ P_Cartesian ] 0
| 19> end
| 20> % elprop
| 21>     Dipole false
| 22> end
| 23> *xyz 1 1
| 24>  C        2.8527830852     0.1046237890    -0.6957285524
| 25>  C        2.4969912361     0.5313294598     0.5026484306
| 26>  O        3.2526914052     0.4757822752     1.6490632076
| 27>  C        4.5241360937    -0.1007453349     1.5460032045
| 28>  C        5.1457065180    -0.0096555169     2.9108385471
| 29>  C        4.9128723702     1.1505615026     3.7825647796
| 30>  N        4.1734055367    -0.1099636945     4.0325730206
| 31>  H        2.1515538511     0.2173176494    -1.5108088447
| 32>  H        3.8066664963    -0.3516722799    -0.9238765306
| 33>  H        1.5403888113     0.9894065987     0.7181976939
| 34>  H        5.1610779756     0.4386479144     0.8341783234
| 35>  H        4.4604268276    -1.1479605928     1.2269862073
| 36>  H        6.0472981538    -0.5896666014     3.0703590304
| 37>  H        4.2774958322     1.9517751018     3.4285964585
| 38>  H        5.6386360358     1.3974826874     4.5459265389
| 39>  H        4.3960064338    -0.6662890918     4.8500150391
| 40>  H        3.1983733374    -0.1141238662     3.7370734463
| 41> *
| 42>
| 43>                          ****END OF INPUT****
 Total Charge           Charge          ....    1
 Multiplicity           Mult            ....    1
 Number of Electrons    NEL             ....   54
FINAL SINGLE POINT ENERGY      -325.958195024828

CARTESIAN COORDINATES (ANGSTROEM)
---------------------------------
  C     -1.848585   -0.814914    2.070303
  C     -0.647496   -0.280491    1.940305
  O     -0.000601    0.002036    0.761504
  C     -0.672287   -0.315530   -0.424667
  C      0.224142    0.114357   -1.551199
  C      1.048538    1.327102   -1.453512
  N      1.677188   -0.000600   -1.252883
  H     -2.233188   -0.978907    3.067222
  H     -2.483203   -1.101559    1.242255
  H     -0.022449    0.004208    2.776760
  H     -1.625397    0.220792   -0.510788
  H     -0.875035   -1.391427   -0.490128
  H     -0.040698   -0.239214   -2.540948
  H      1.005629    1.917372   -0.547553
  H      1.360794    1.833215   -2.357380
  H      2.312881   -0.363615   -1.953731
  H      1.883478   -0.248357   -0.286388

FINAL SINGLE POINT ENERGY      -325.958195569529
                    ***********************HURRAY********************
 Multiplicity           Mult            ....    1
 Number of Electrons    NEL             ....   54
 Basis Dimension        Dim             ....  277
FINAL SINGLE POINT ENERGY      -325.958195699771

VIBRATIONAL FREQUENCIES
-----------------------

   0:         0.00 cm**-1
   1:         0.00 cm**-1
   2:         0.00 cm**-1
   3:         0.00 cm**-1
   4:         0.00 cm**-1
   5:         0.00 cm**-1
   6:        67.62 cm**-1
   7:       128.94 cm**-1
   8:       176.39 cm**-1
   9:       230.17 cm**-1
  10:       266.83 cm**-1
  11:       375.41 cm**-1
  12:       537.98 cm**-1
  13:       613.49 cm**-1
  14:       717.59 cm**-1
  15:       790.35 cm**-1
  16:       846.43 cm**-1
  17:       864.67 cm**-1
  18:       894.10 cm**-1
  19:       901.46 cm**-1
  20:       962.91 cm**-1
  21:       983.17 cm**-1
  22:       988.11 cm**-1
  23:      1042.59 cm**-1
  24:      1050.88 cm**-1
  25:      1090.10 cm**-1
  26:      1138.03 cm**-1
  27:      1169.77 cm**-1
  28:      1184.26 cm**-1
  29:      1228.34 cm**-1
  30:      1247.45 cm**-1
  31:      1259.36 cm**-1
  32:      1288.07 cm**-1
  33:      1358.98 cm**-1
  34:      1402.41 cm**-1
  35:      1436.71 cm**-1
  36:      1438.76 cm**-1
  37:      1484.76 cm**-1
  38:      1506.29 cm**-1
  39:      1597.16 cm**-1
  40:      1716.66 cm**-1
  41:      3032.40 cm**-1
  42:      3077.07 cm**-1
  43:      3178.03 cm**-1
  44:      3193.05 cm**-1
  45:      3210.98 cm**-1
  46:      3234.64 cm**-1
  47:      3283.10 cm**-1
  48:      3283.36 cm**-1
  49:      3473.29 cm**-1
  50:      3605.72 cm**-1

IR SPECTRUM
-----------

 Mode    freq (cm**-1)   T**2         TX         TY         TZ
-------------------------------------------------------------------
   6:        67.62    3.445154  (  0.372263  -1.815214   0.107584)
   7:       128.94    3.159601  (  0.567847  -0.226717  -1.669057)
   8:       176.39    6.663189  (  0.858181   0.032118  -2.434273)
   9:       230.17    7.398896  ( -1.546093   2.167261   0.558095)
  10:       266.83   13.111622  (  2.432878   0.903533  -2.525145)
  11:       375.41    3.742531  ( -1.116884  -1.191730   1.036764)
  12:       537.98    8.356672  (  2.712004   1.000849  -0.003056)
  13:       613.49    0.238917  ( -0.060701  -0.061103   0.481143)
  14:       717.59    2.797503  (  0.677314  -1.526783   0.087648)
  15:       790.35    2.894307  ( -0.554828  -0.521448   1.521369)
  16:       846.43   15.983673  (  3.198438  -2.377052  -0.321385)
  17:       864.67    5.202072  (  1.012213  -0.647963   1.938464)
  18:       894.10   22.819125  (  3.645039   2.001777  -2.350681)
  19:       901.46   62.894538  ( -3.937555   6.883444   0.091641)
  20:       962.91   30.850313  (  3.947132   3.330528  -2.044027)
  21:       983.17   13.950756  ( -3.641700  -0.562256  -0.610449)
  22:       988.11   23.756418  ( -2.885064   3.923754  -0.192295)
  23:      1042.59   58.204720  ( -3.825737  -5.616513  -3.467454)
  24:      1050.88   42.853037  (  4.330824   3.885347  -3.000180)
  25:      1090.10    7.833646  ( -1.326685  -2.212116   1.086322)
  26:      1138.03   69.014780  (  6.133390   2.977834  -4.746452)
  27:      1169.77    2.843539  ( -1.656084   0.146656  -0.281812)
  28:      1184.26    6.596769  ( -2.187147  -1.201985   0.606950)
  29:      1228.34  202.418440  (  4.445222   1.873211 -13.384675)
  30:      1247.45    4.062619  (  1.071305  -1.663954   0.382339)
  31:      1259.36    2.359224  (  1.010707  -1.029621   0.526854)
  32:      1288.07    7.691809  ( -0.926081  -0.122829   2.611340)
  33:      1358.98   26.649141  ( -1.266202  -0.556498   4.973548)
  34:      1402.41    7.667569  (  1.607975   0.645297  -2.159995)
  35:      1436.71    8.606281  (  1.519113   1.632692   1.906015)
  36:      1438.76    1.616474  ( -0.185465   0.601785  -1.104505)
  37:      1484.76   17.041927  (  0.973272   3.886823  -0.993618)
  38:      1506.29    8.112033  (  2.012288   0.330442  -1.988350)
  39:      1597.16   94.684489  ( -9.377403   2.567054   0.398788)
  40:      1716.66  128.935114  ( -8.105835  -3.949762   6.901444)
  41:      3032.40   10.426983  ( -0.412113  -0.904329  -3.072350)
  42:      3077.07    3.890006  (  0.340772  -1.929961   0.221658)
  43:      3178.03    3.478882  ( -0.308473  -1.806266  -0.348038)
  44:      3193.05   11.263071  ( -1.844503  -0.793283   2.689160)
  45:      3210.98    2.256216  ( -0.659206  -0.487715  -1.258490)
  46:      3234.64    0.361810  ( -0.226538  -0.121135   0.543890)
  47:      3283.10    0.343626  ( -0.197779  -0.005751   0.551794)
  48:      3283.36    8.460490  (  0.474067  -0.329596  -2.850810)
  49:      3473.29   96.707852  ( -5.340980   5.404944  -6.242465)
  50:      3605.72  181.914280  (  6.848359  -1.902742 -11.462715)

--------------------------
THERMOCHEMISTRY AT 298.15K
--------------------------

Temperature         ... 298.15 K
Pressure            ... 1.00 atm
Total Mass          ... 100.14 AMU

Throughout the following assumptions are being made:
  (1) The electronic state is orbitally nondegenerate
  (2) There are no thermally accessible electronically excited states
  (3) Hindered rotations indicated by low frequency modes) are not
      treated as such but are treated as vibrations and this may
      case some error
  (4) All equations used are the standard statistical mechanics
      equations for an ideal gas
  (5) All vibrations are strinctly harmonic

------------
INNER ENERGY
------------

The inner energy is: U= E(el) + E(ZPE) + E(vib) + E(rot) + E(trans)
    E(el)   - is the total energy from the electronic structure calculation
              = E(kin-el) + E(nuc-el) + E(el-el) + E(nuc-nuc)
    E(ZPE)  - the the zero temperature vibrational energy from the frequency calculation
    E(vib)  - the the finite temperature correction to E(ZPE) due to population
              of excietd vibrational states
    E(rot)  - is the rotational thermal energy
    E(trans)- is the translational thermal energy

Summary of contributions to the inner energy U:
Electronic energy                ...   -325.95819570 Eh
Zero point energy                ...      0.15162996 Eh      95.15 kcal/mol
Thermal vibrational correction   ...      0.00452809 Eh       2.84 kcal/mol
Thermal rotational correction    ...      0.00141627 Eh       0.89 kcal/mol
Thermal translational correction ...      0.00141627 Eh       0.89 kcal/mol
-----------------------------------------------------------------------
Total thermal energy                   -325.79920511 Eh

Summary of corrections to the electronic energy:
(perhaps to be used in another calculation)
Total thermal correction                  0.00736064 Eh       4.62 kcal/mol
Non-thermal (ZPE) correction              0.15162996 Eh      95.15 kcal/mol
-----------------------------------------------------------------------
Total correction                          0.15899059 Eh      99.77 kcal/mol

--------
ENTHALPY
--------

The enthalpy is H = U + kB*T
                kB is Boltzmann's constant
Total free energy                 ...   -325.79920511 Eh
Thermal Enthalpy correction       ...      0.00094421 Eh       0.59 kcal/mol
-----------------------------------------------------------------------
Total Enthalpy                    ...   -325.79826090 Eh

-------
ENTROPY
-------

The entropy contributions are T*S = T*(S(el)+S(vib)+S(rot)+S(trans)
     S(el)   - electronic entropy
     S(vib)  - vibrational entropy
     S(rot)  - rotational entropy
     S(trans)- translational entropy
The entropies will be listed as mutliplied by the temperature to get
units of energy

Electronic entropy                ...      0.00000000 Eh      0.00 kcal/mol
Vibrational entropy               ...      0.00813602 Eh      5.11 kcal/mol
Rotational entropy                ...      0.01199894 Eh      7.53 kcal/mol
Translational entropy             ...      0.01887324 Eh     11.84 kcal/mol
-----------------------------------------------------------------------
Final entropy term                ...      0.03900819 Eh     24.48 kcal/mol

CAUTION: The rotational entropy is not quite correctly treated here
         because it includes a symmetry number that is not yet correctly
         implemented in ORCA!
For a nonlinear molecule the correct rotational entropy is:
    S(rot) = R*(ln(qrot/sn)+1.5)
    R    = 8.31441 J/mol/K = 1.987191683e-3 kcal/mol/K
    qrot = 221220.4573395
    sn is the rotational symmetry number. We have assumed 3 here
       if it is different for your molecule then you should correct
       the printed rotational entropy by manually evaluating the equation
       as given above

For convenience we print out the resulting values for sn=1 - 12:
 sn= 1  qrot/sn=  221220.4573 T*S(rot)=     8.18 kcal/mol T*S(tot)=    25.13 kcal/mol
 sn= 2  qrot/sn=  110610.2287 T*S(rot)=     7.77 kcal/mol T*S(tot)=    24.72 kcal/mol
 sn= 3  qrot/sn=   73740.1524 T*S(rot)=     7.53 kcal/mol T*S(tot)=    24.48 kcal/mol
 sn= 4  qrot/sn=   55305.1143 T*S(rot)=     7.36 kcal/mol T*S(tot)=    24.31 kcal/mol
 sn= 5  qrot/sn=   44244.0915 T*S(rot)=     7.23 kcal/mol T*S(tot)=    24.18 kcal/mol
 sn= 6  qrot/sn=   36870.0762 T*S(rot)=     7.12 kcal/mol T*S(tot)=    24.07 kcal/mol
 sn= 7  qrot/sn=   31602.9225 T*S(rot)=     7.03 kcal/mol T*S(tot)=    23.98 kcal/mol
 sn= 8  qrot/sn=   27652.5572 T*S(rot)=     6.95 kcal/mol T*S(tot)=    23.90 kcal/mol
 sn= 9  qrot/sn=   24580.0508 T*S(rot)=     6.88 kcal/mol T*S(tot)=    23.83 kcal/mol
 sn=10  qrot/sn=   22122.0457 T*S(rot)=     6.82 kcal/mol T*S(tot)=    23.76 kcal/mol
 sn=11  qrot/sn=   20110.9507 T*S(rot)=     6.76 kcal/mol T*S(tot)=    23.71 kcal/mol
 sn=12  qrot/sn=   18435.0381 T*S(rot)=     6.71 kcal/mol T*S(tot)=    23.66 kcal/mol

-------------------
GIBBS FREE ENTHALPY
-------------------

The Gibbs free enthalpy is G = H - T*S

Total enthalpy                    ...   -325.79826090 Eh
Total entropy correction          ...     -0.03900819 Eh    -24.48 kcal/mol
-----------------------------------------------------------------------
Final Gibbs free enthalpy         ...   -325.83726909 Eh

For completeness - the Gibbs free enthalpy minus the electronic energy
G-E(el)                           ...      0.12092661 Eh     75.88 kcal/mol

                             ****ORCA TERMINATED NORMALLY****
TOTAL RUN TIME: 0 days 0 hours 38 minutes 17 seconds 38 msec
