                         Program Version 3.0.3 - RELEASE   -
|  1> ! NORI PBE0 def2-TZVP UseSym TightOPT Freq TightSCF Grid3 FinalGrid5 XYZFile
|  2> % pal
|  3>     nprocs 8
|  4> end
|  5> %method
|  6>     SymThresh 5.0e-2
|  7> end
|  8> % geom
|  9>     MaxIter 10
| 10> end
| 11> % maxcore 2000
| 12> % output
| 13>     printlevel mini
| 14>     print[ P_Basis ] 0
| 15>     print[ P_SCFInfo ] 1
| 16>     print[ P_SCFIterInfo ] 1
| 17>     print[ P_OrbEn ] 0
| 18>     print[ P_Cartesian ] 0
| 19> end
| 20> % elprop
| 21>     Dipole false
| 22> end
| 23> *xyz 1 1
| 24>  C        1.1299128749    -0.1215405965     0.4313758804
| 25>  C        2.6018627955     0.1228950439     0.5334113836
| 26>  O        3.1285404668     0.6383254145     1.4849108821
| 27>  C        3.4730587562    -0.3169123437    -0.6456994979
| 28>  C        4.8865374252     0.0849759099    -0.3660264824
| 29>  C        5.8205411712    -0.7842563869     0.3539065654
| 30>  N        5.9761671504    -0.6184094763    -1.1167245549
| 31>  H        0.8327954522    -0.5778123199    -0.5125491256
| 32>  H        0.6062188781     0.8286301092     0.5575172860
| 33>  H        0.8222102424    -0.7647348028     1.2595278989
| 34>  H        3.3703117963    -1.4018249258    -0.7698771188
| 35>  H        3.1017358944     0.1462880491    -1.5650720392
| 36>  H        5.0747976492     1.1502668239    -0.2968177902
| 37>  H        6.6223766122    -0.3491441060     0.9356920414
| 38>  H        5.5021992848    -1.7771210711     0.6457347162
| 39>  H        6.7608210234    -0.0746874259    -1.4589941595
| 40>  H        5.7248825269    -1.3980278956    -1.7146358855
| 41> *
| 42>
| 43>                          ****END OF INPUT****
 Total Charge           Charge          ....    1
 Multiplicity           Mult            ....    1
 Number of Electrons    NEL             ....   54
FINAL SINGLE POINT ENERGY      -325.991204983734
FINAL SINGLE POINT ENERGY      -325.991206091258
FINAL SINGLE POINT ENERGY      -325.991207154765

CARTESIAN COORDINATES (ANGSTROEM)
---------------------------------
  C     -2.355198    0.164041    1.434323
  C     -0.921976    0.145294    1.006547
  O      0.000085    0.011044    1.768107
  C     -0.629872    0.302486   -0.487827
  C      0.853512    0.314940   -0.680860
  C      1.628688   -0.909698   -0.894504
  N      1.384553    0.000162   -2.046195
  H     -3.050248    0.309713    0.607988
  H     -2.491326    0.959502    2.170737
  H     -2.582868   -0.776878    1.941067
  H     -1.109806   -0.522326   -1.027967
  H     -1.085475    1.229217   -0.851097
  H      1.385660    1.143967   -0.229042
  H      2.662293   -0.954942   -0.577925
  H      1.112450   -1.858253   -0.974032
  H      2.162731    0.543623   -2.403106
  H      0.729878   -0.298424   -2.760679

FINAL SINGLE POINT ENERGY      -325.991207439631
                    ***********************HURRAY********************
 Multiplicity           Mult            ....    1
 Number of Electrons    NEL             ....   54
 Basis Dimension        Dim             ....  277
FINAL SINGLE POINT ENERGY      -325.991207802397

VIBRATIONAL FREQUENCIES
-----------------------

   0:         0.00 cm**-1
   1:         0.00 cm**-1
   2:         0.00 cm**-1
   3:         0.00 cm**-1
   4:         0.00 cm**-1
   5:         0.00 cm**-1
   6:      -102.88 cm**-1 ***imaginary mode***
   7:        53.94 cm**-1
   8:        92.91 cm**-1
   9:       161.98 cm**-1
  10:       322.61 cm**-1
  11:       346.05 cm**-1
  12:       406.76 cm**-1
  13:       487.97 cm**-1
  14:       583.05 cm**-1
  15:       791.71 cm**-1
  16:       804.62 cm**-1
  17:       819.92 cm**-1
  18:       862.75 cm**-1
  19:       879.21 cm**-1
  20:       911.02 cm**-1
  21:       962.92 cm**-1
  22:      1003.15 cm**-1
  23:      1021.56 cm**-1
  24:      1046.07 cm**-1
  25:      1144.01 cm**-1
  26:      1153.15 cm**-1
  27:      1170.51 cm**-1
  28:      1183.83 cm**-1
  29:      1246.99 cm**-1
  30:      1257.45 cm**-1
  31:      1294.43 cm**-1
  32:      1330.94 cm**-1
  33:      1378.99 cm**-1
  34:      1426.01 cm**-1
  35:      1459.44 cm**-1
  36:      1465.96 cm**-1
  37:      1468.97 cm**-1
  38:      1500.36 cm**-1
  39:      1634.64 cm**-1
  40:      1824.81 cm**-1
  41:      3050.87 cm**-1
  42:      3064.49 cm**-1
  43:      3102.51 cm**-1
  44:      3138.80 cm**-1
  45:      3165.01 cm**-1
  46:      3174.85 cm**-1
  47:      3210.01 cm**-1
  48:      3277.54 cm**-1
  49:      3516.77 cm**-1
  50:      3619.96 cm**-1

IR SPECTRUM
-----------

 Mode    freq (cm**-1)   T**2         TX         TY         TZ
-------------------------------------------------------------------
   7:        53.94    1.608482  ( -0.491225   0.782361   0.868960)
   8:        92.91    1.886984  (  0.449288   1.250737  -0.347537)
   9:       161.98    9.692698  (  0.189575  -0.132944  -3.104688)
  10:       322.61    5.547276  (  2.139755  -0.164065  -0.970469)
  11:       346.05    6.525991  (  1.778396  -0.407690  -1.788040)
  12:       406.76    3.401061  ( -1.712357   0.461122   0.506224)
  13:       487.97    0.274832  ( -0.303002   0.306980   0.297968)
  14:       583.05   13.851346  (  2.432062   0.466255  -2.778313)
  15:       791.71    1.215014  (  0.943579   0.532367   0.203121)
  16:       804.62    2.168961  ( -0.322058  -0.595176   1.308054)
  17:       819.92   11.523180  (  1.468842  -0.016961  -3.060293)
  18:       862.75   24.135306  (  1.482059   1.386413  -4.473999)
  19:       879.21    3.074703  ( -1.700671  -0.267393   0.333051)
  20:       911.02   10.467642  ( -0.570083   1.256871   2.926247)
  21:       962.92   15.496514  (  2.349588  -0.251289  -3.148460)
  22:      1003.15    3.847571  ( -0.440853   0.057519   1.910474)
  23:      1021.56   82.255657  ( -4.955829   7.247385   2.273946)
  24:      1046.07   20.312257  ( -0.987360   4.367705  -0.510424)
  25:      1144.01    3.312493  (  0.717954  -0.714674  -1.512043)
  26:      1153.15   11.430059  ( -2.826619  -0.075561   1.853260)
  27:      1170.51   66.946016  ( -5.541875   0.705537   5.977948)
  28:      1183.83    5.519212  ( -1.791486  -0.996106   1.147851)
  29:      1246.99    2.957591  (  1.558646   0.247105   0.683486)
  30:      1257.45    5.248739  ( -1.281197   0.085556   1.897354)
  31:      1294.43    1.543641  (  0.056002   0.072309  -1.239063)
  32:      1330.94   69.168371  ( -2.568231  -1.036459   7.842086)
  33:      1378.99   43.280786  (  4.600975   0.395410  -4.685666)
  34:      1426.01   16.515572  (  0.785866  -1.016966   3.855356)
  35:      1459.44    9.641421  (  0.290903   3.063967   0.410976)
  36:      1465.96   12.318504  (  3.064262   1.442517   0.920841)
  37:      1468.97   11.872341  ( -3.311815   0.743959  -0.592241)
  38:      1500.36   10.365639  (  1.848254  -2.622227  -0.271147)
  39:      1634.64   68.506442  (  0.956678   0.917503  -8.170030)
  40:      1824.81  143.712913  ( -9.533063   0.986145  -7.201468)
  41:      3050.87    1.590732  ( -0.953630  -0.701957   0.434257)
  42:      3064.49    4.506018  (  0.946411  -0.004737  -1.900080)
  43:      3102.51    0.719178  ( -0.241859   0.245673   0.774808)
  44:      3138.80    0.659507  (  0.059379   0.782937   0.207343)
  45:      3165.01    4.778219  ( -2.046774   0.265587  -0.719999)
  46:      3174.85    3.673471  ( -1.212605   1.358198  -0.598632)
  47:      3210.01    4.069749  ( -0.424498  -1.441014  -1.346487)
  48:      3277.54    7.013763  (  2.221010   1.198794   0.802354)
  49:      3516.77  118.746652  (  2.797489   2.401344 -10.254475)
  50:      3619.96  122.250474  (  9.408944   5.471403   1.945761)

--------------------------
THERMOCHEMISTRY AT 298.15K
--------------------------

Temperature         ... 298.15 K
Pressure            ... 1.00 atm
Total Mass          ... 100.14 AMU

Throughout the following assumptions are being made:
  (1) The electronic state is orbitally nondegenerate
  (2) There are no thermally accessible electronically excited states
  (3) Hindered rotations indicated by low frequency modes) are not
      treated as such but are treated as vibrations and this may
      case some error
  (4) All equations used are the standard statistical mechanics
      equations for an ideal gas
  (5) All vibrations are strinctly harmonic

------------
INNER ENERGY
------------

The inner energy is: U= E(el) + E(ZPE) + E(vib) + E(rot) + E(trans)
    E(el)   - is the total energy from the electronic structure calculation
              = E(kin-el) + E(nuc-el) + E(el-el) + E(nuc-nuc)
    E(ZPE)  - the the zero temperature vibrational energy from the frequency calculation
    E(vib)  - the the finite temperature correction to E(ZPE) due to population
              of excietd vibrational states
    E(rot)  - is the rotational thermal energy
    E(trans)- is the translational thermal energy

Summary of contributions to the inner energy U:
Electronic energy                ...   -325.99120780 Eh
Zero point energy                ...      0.14994784 Eh      94.09 kcal/mol
Thermal vibrational correction   ...      0.00437559 Eh       2.75 kcal/mol
Thermal rotational correction    ...      0.00141627 Eh       0.89 kcal/mol
Thermal translational correction ...      0.00141627 Eh       0.89 kcal/mol
-----------------------------------------------------------------------
Total thermal energy                   -325.83405182 Eh

Summary of corrections to the electronic energy:
(perhaps to be used in another calculation)
Total thermal correction                  0.00720814 Eh       4.52 kcal/mol
Non-thermal (ZPE) correction              0.14994784 Eh      94.09 kcal/mol
-----------------------------------------------------------------------
Total correction                          0.15715598 Eh      98.62 kcal/mol

--------
ENTHALPY
--------

The enthalpy is H = U + kB*T
                kB is Boltzmann's constant
Total free energy                 ...   -325.83405182 Eh
Thermal Enthalpy correction       ...      0.00094421 Eh       0.59 kcal/mol
-----------------------------------------------------------------------
Total Enthalpy                    ...   -325.83310761 Eh

-------
ENTROPY
-------

The entropy contributions are T*S = T*(S(el)+S(vib)+S(rot)+S(trans)
     S(el)   - electronic entropy
     S(vib)  - vibrational entropy
     S(rot)  - rotational entropy
     S(trans)- translational entropy
The entropies will be listed as mutliplied by the temperature to get
units of energy

Electronic entropy                ...      0.00000000 Eh      0.00 kcal/mol
Vibrational entropy               ...      0.00817733 Eh      5.13 kcal/mol
Rotational entropy                ...      0.01208261 Eh      7.58 kcal/mol
Translational entropy             ...      0.01887324 Eh     11.84 kcal/mol
-----------------------------------------------------------------------
Final entropy term                ...      0.03913317 Eh     24.56 kcal/mol

CAUTION: The rotational entropy is not quite correctly treated here
         because it includes a symmetry number that is not yet correctly
         implemented in ORCA!
For a nonlinear molecule the correct rotational entropy is:
    S(rot) = R*(ln(qrot/sn)+1.5)
    R    = 8.31441 J/mol/K = 1.987191683e-3 kcal/mol/K
    qrot = 241719.0975682
    sn is the rotational symmetry number. We have assumed 3 here
       if it is different for your molecule then you should correct
       the printed rotational entropy by manually evaluating the equation
       as given above

For convenience we print out the resulting values for sn=1 - 12:
 sn= 1  qrot/sn=  241719.0976 T*S(rot)=     8.23 kcal/mol T*S(tot)=    25.21 kcal/mol
 sn= 2  qrot/sn=  120859.5488 T*S(rot)=     7.82 kcal/mol T*S(tot)=    24.80 kcal/mol
 sn= 3  qrot/sn=   80573.0325 T*S(rot)=     7.58 kcal/mol T*S(tot)=    24.56 kcal/mol
 sn= 4  qrot/sn=   60429.7744 T*S(rot)=     7.41 kcal/mol T*S(tot)=    24.39 kcal/mol
 sn= 5  qrot/sn=   48343.8195 T*S(rot)=     7.28 kcal/mol T*S(tot)=    24.25 kcal/mol
 sn= 6  qrot/sn=   40286.5163 T*S(rot)=     7.17 kcal/mol T*S(tot)=    24.15 kcal/mol
 sn= 7  qrot/sn=   34531.2997 T*S(rot)=     7.08 kcal/mol T*S(tot)=    24.05 kcal/mol
 sn= 8  qrot/sn=   30214.8872 T*S(rot)=     7.00 kcal/mol T*S(tot)=    23.98 kcal/mol
 sn= 9  qrot/sn=   26857.6775 T*S(rot)=     6.93 kcal/mol T*S(tot)=    23.91 kcal/mol
 sn=10  qrot/sn=   24171.9098 T*S(rot)=     6.87 kcal/mol T*S(tot)=    23.84 kcal/mol
 sn=11  qrot/sn=   21974.4634 T*S(rot)=     6.81 kcal/mol T*S(tot)=    23.79 kcal/mol
 sn=12  qrot/sn=   20143.2581 T*S(rot)=     6.76 kcal/mol T*S(tot)=    23.74 kcal/mol

-------------------
GIBBS FREE ENTHALPY
-------------------

The Gibbs free enthalpy is G = H - T*S

Total enthalpy                    ...   -325.83310761 Eh
Total entropy correction          ...     -0.03913317 Eh    -24.56 kcal/mol
-----------------------------------------------------------------------
Final Gibbs free enthalpy         ...   -325.87224079 Eh

For completeness - the Gibbs free enthalpy minus the electronic energy
G-E(el)                           ...      0.11896702 Eh     74.65 kcal/mol

                             ****ORCA TERMINATED NORMALLY****
TOTAL RUN TIME: 0 days 0 hours 45 minutes 10 seconds 63 msec
