                         Program Version 3.0.3 - RELEASE   -
|  1> ! NORI PBE0 def2-TZVP UseSym TightOPT Freq TightSCF Grid3 FinalGrid5 XYZFile
|  2> % pal
|  3>     nprocs 8
|  4> end
|  5> %method
|  6>     SymThresh 5.0e-2
|  7> end
|  8> % geom
|  9>     MaxIter 10
| 10> end
| 11> % maxcore 2000
| 12> % output
| 13>     printlevel mini
| 14>     print[ P_Basis ] 0
| 15>     print[ P_SCFInfo ] 1
| 16>     print[ P_SCFIterInfo ] 1
| 17>     print[ P_OrbEn ] 0
| 18>     print[ P_Cartesian ] 0
| 19> end
| 20> % elprop
| 21>     Dipole false
| 22> end
| 23> *xyz 1 1
| 24>  C        3.1517596043     1.4015008401    -0.0225501606
| 25>  C        2.6493274969    -0.0193339709     0.1117170029
| 26>  O        3.1621180323    -0.8689506927    -0.9264270102
| 27>  C        3.0278820310    -0.7116729197     1.4170129042
| 28>  C        4.5125455759    -0.8425793607     1.6663274808
| 29>  C        5.1607395619    -2.1674431297     1.6866406066
| 30>  N        5.3227236827    -1.3080450385     0.5023492343
| 31>  H        2.8366466815     1.8319406899    -0.9756039811
| 32>  H        4.2428654531     1.4592466449     0.0220818408
| 33>  H        2.7400239988     2.0305431958     0.7695819236
| 34>  H        1.5554592557    -0.0233426407     0.0575205580
| 35>  H        2.8502826373    -0.5707084404    -1.7861433297
| 36>  H        2.5685433274    -1.7028469416     1.4171203912
| 37>  H        2.5962436788    -0.1625466235     2.2562499795
| 38>  H        5.0057995474    -0.0477601754     2.2133469669
| 39>  H        6.0709407900    -2.3151387095     2.2525942332
| 40>  H        4.5557034603    -3.0488746330     1.5151232900
| 41>  H        6.2267712211    -0.8823620807     0.3389908969
| 42>  H        4.7341539635    -1.4518560137    -0.3350728274
| 43> *
| 44>
| 45>                          ****END OF INPUT****
 Total Charge           Charge          ....    1
 Multiplicity           Mult            ....    1
 Number of Electrons    NEL             ....   56
FINAL SINGLE POINT ENERGY      -327.209377077586
FINAL SINGLE POINT ENERGY      -327.209379283843
FINAL SINGLE POINT ENERGY      -327.209379744903
FINAL SINGLE POINT ENERGY      -327.209379808878

CARTESIAN COORDINATES (ANGSTROEM)
---------------------------------
  C     -1.355885   -1.691174    0.540908
  C     -1.146469   -0.220372    0.829002
  O     -0.002628    0.002865    1.668578
  C     -0.909692    0.644475   -0.404991
  C      0.299434    0.265550   -1.228214
  C      1.455915    1.174341   -1.335267
  N      1.547390   -0.001467   -0.453326
  H     -1.522774   -2.244587    1.467323
  H     -0.493965   -2.137988    0.038334
  H     -2.236313   -1.837720   -0.088384
  H     -2.032563    0.181055    1.332043
  H     -0.135209   -0.405995    2.529134
  H     -0.817449    1.682289   -0.076568
  H     -1.785075    0.593963   -1.055386
  H      0.160721   -0.445908   -2.033820
  H      2.101432    1.126546   -2.202428
  H      1.429119    2.120874   -0.810576
  H      2.141444   -0.770155   -0.739261
  H      1.389120    0.091674    0.563719

FINAL SINGLE POINT ENERGY      -327.209380015325
                    ***********************HURRAY********************
 Multiplicity           Mult            ....    1
 Number of Electrons    NEL             ....   56
 Basis Dimension        Dim             ....  289
FINAL SINGLE POINT ENERGY      -327.209380070092

VIBRATIONAL FREQUENCIES
-----------------------

   0:         0.00 cm**-1
   1:         0.00 cm**-1
   2:         0.00 cm**-1
   3:         0.00 cm**-1
   4:         0.00 cm**-1
   5:         0.00 cm**-1
   6:        60.41 cm**-1
   7:       126.10 cm**-1
   8:       232.45 cm**-1
   9:       277.25 cm**-1
  10:       302.52 cm**-1
  11:       329.92 cm**-1
  12:       385.30 cm**-1
  13:       399.15 cm**-1
  14:       438.38 cm**-1
  15:       631.40 cm**-1
  16:       773.77 cm**-1
  17:       822.70 cm**-1
  18:       853.27 cm**-1
  19:       878.37 cm**-1
  20:       918.90 cm**-1
  21:       938.26 cm**-1
  22:       958.15 cm**-1
  23:       983.04 cm**-1
  24:      1037.02 cm**-1
  25:      1059.36 cm**-1
  26:      1092.33 cm**-1
  27:      1151.38 cm**-1
  28:      1157.39 cm**-1
  29:      1182.35 cm**-1
  30:      1188.91 cm**-1
  31:      1221.59 cm**-1
  32:      1249.88 cm**-1
  33:      1279.73 cm**-1
  34:      1325.06 cm**-1
  35:      1362.62 cm**-1
  36:      1379.90 cm**-1
  37:      1405.15 cm**-1
  38:      1416.14 cm**-1
  39:      1437.67 cm**-1
  40:      1472.76 cm**-1
  41:      1485.95 cm**-1
  42:      1490.43 cm**-1
  43:      1497.75 cm**-1
  44:      1649.72 cm**-1
  45:      3053.31 cm**-1
  46:      3061.28 cm**-1
  47:      3085.23 cm**-1
  48:      3130.80 cm**-1
  49:      3135.04 cm**-1
  50:      3140.38 cm**-1
  51:      3172.92 cm**-1
  52:      3204.07 cm**-1
  53:      3225.46 cm**-1
  54:      3275.24 cm**-1
  55:      3590.02 cm**-1
  56:      3855.82 cm**-1

IR SPECTRUM
-----------

 Mode    freq (cm**-1)   T**2         TX         TY         TZ
-------------------------------------------------------------------
   6:        60.41    5.677668  ( -1.405414  -1.857942   0.500530)
   7:       126.10    2.916021  (  0.129403   1.353884   1.032605)
   8:       232.45    8.018554  ( -1.422665   0.165051   2.442813)
   9:       277.25   30.591250  ( -3.405937  -0.053679   4.357518)
  10:       302.52   87.080948  ( -1.083898   8.661772   3.298457)
  11:       329.92   25.983888  (  2.287736  -2.840180  -3.561395)
  12:       385.30   14.738585  ( -2.507022   2.899084  -0.220764)
  13:       399.15    7.653836  ( -1.576791   1.304549   1.861643)
  14:       438.38    6.323093  (  0.659330   2.202282  -1.018984)
  15:       631.40   14.869563  ( -1.217444  -0.435817  -3.632830)
  16:       773.77    0.718231  (  0.605605  -0.252031   0.536613)
  17:       822.70    2.342661  ( -0.411561   1.474063  -0.020424)
  18:       853.27   19.207194  ( -4.183561   0.279728  -1.275448)
  19:       878.37   14.859553  (  1.825227  -0.849161   3.287404)
  20:       918.90    2.146113  (  0.231253  -0.254728  -1.423990)
  21:       938.26    9.349453  (  2.978685  -0.690004   0.027938)
  22:       958.15   19.276881  ( -2.902864  -1.941823  -2.660749)
  23:       983.04   36.024295  ( -5.886679  -1.135252  -0.287241)
  24:      1037.02   85.228152  ( -7.537089  -4.550763   2.776868)
  25:      1059.36    3.079357  ( -0.325623   0.098463  -1.721520)
  26:      1092.33   74.752120  ( -8.193038  -2.725348   0.445785)
  27:      1151.38   30.469597  (  3.580842  -1.359227   3.974879)
  28:      1157.39    4.800562  ( -0.277357  -0.936812  -1.961127)
  29:      1182.35    2.587442  (  1.388906  -0.295264  -0.755779)
  30:      1188.91   14.305993  ( -0.336132  -0.042040   3.767126)
  31:      1221.59   51.807596  (  5.019184   2.182781   4.674490)
  32:      1249.88    0.367643  ( -0.473681   0.355706   0.129395)
  33:      1279.73   14.620972  ( -2.329710  -0.480919  -2.993684)
  34:      1325.06   12.011316  ( -2.763392  -1.459510   1.498270)
  35:      1362.62    8.859269  ( -1.019251  -2.630524   0.949074)
  36:      1379.90    4.360320  ( -1.895072  -0.580551  -0.657255)
  37:      1405.15   30.534227  (  4.629398   2.246868  -2.013575)
  38:      1416.14   17.036851  (  1.780114   3.713685   0.276751)
  39:      1437.67   10.937601  ( -1.561506  -2.393856  -1.663957)
  40:      1472.76    9.848238  ( -0.988123   2.793996  -1.032201)
  41:      1485.95    4.339204  ( -1.294328  -0.594233  -1.520134)
  42:      1490.43   11.644213  (  2.910168  -1.475652  -0.998793)
  43:      1497.75    9.231482  (  0.583592   2.920423  -0.601690)
  44:      1649.72   42.070619  ( -5.524916   2.439612  -2.365209)
  45:      3053.31    2.797328  ( -0.377709   1.538078   0.537567)
  46:      3061.28   13.041574  (  3.189533  -1.370850  -0.994596)
  47:      3085.23    2.708891  (  0.365502  -1.604336   0.037491)
  48:      3130.80   15.780963  (  3.343027  -0.710523  -2.024917)
  49:      3135.04    2.357452  ( -0.380384  -1.200647   0.878184)
  50:      3140.38    3.840323  (  1.576961  -0.425037   1.082987)
  51:      3172.92    2.095670  (  0.870954   0.968723  -0.631414)
  52:      3204.07    1.913698  ( -1.032613  -0.400668   0.828778)
  53:      3225.46  418.670210  (  6.298678   3.832491 -19.086877)
  54:      3275.24    3.155545  ( -0.432539   1.215490   1.221082)
  55:      3590.02  134.380688  (  8.075128  -6.860527  -4.701720)
  56:      3855.82   91.513188  ( -0.386252   2.527051  -9.218352)

--------------------------
THERMOCHEMISTRY AT 298.15K
--------------------------

Temperature         ... 298.15 K
Pressure            ... 1.00 atm
Total Mass          ... 102.16 AMU

Throughout the following assumptions are being made:
  (1) The electronic state is orbitally nondegenerate
  (2) There are no thermally accessible electronically excited states
  (3) Hindered rotations indicated by low frequency modes) are not
      treated as such but are treated as vibrations and this may
      case some error
  (4) All equations used are the standard statistical mechanics
      equations for an ideal gas
  (5) All vibrations are strinctly harmonic

------------
INNER ENERGY
------------

The inner energy is: U= E(el) + E(ZPE) + E(vib) + E(rot) + E(trans)
    E(el)   - is the total energy from the electronic structure calculation
              = E(kin-el) + E(nuc-el) + E(el-el) + E(nuc-nuc)
    E(ZPE)  - the the zero temperature vibrational energy from the frequency calculation
    E(vib)  - the the finite temperature correction to E(ZPE) due to population
              of excietd vibrational states
    E(rot)  - is the rotational thermal energy
    E(trans)- is the translational thermal energy

Summary of contributions to the inner energy U:
Electronic energy                ...   -327.20938007 Eh
Zero point energy                ...      0.17492227 Eh     109.77 kcal/mol
Thermal vibrational correction   ...      0.00504855 Eh       3.17 kcal/mol
Thermal rotational correction    ...      0.00141627 Eh       0.89 kcal/mol
Thermal translational correction ...      0.00141627 Eh       0.89 kcal/mol
-----------------------------------------------------------------------
Total thermal energy                   -327.02657671 Eh

Summary of corrections to the electronic energy:
(perhaps to be used in another calculation)
Total thermal correction                  0.00788109 Eh       4.95 kcal/mol
Non-thermal (ZPE) correction              0.17492227 Eh     109.77 kcal/mol
-----------------------------------------------------------------------
Total correction                          0.18280336 Eh     114.71 kcal/mol

--------
ENTHALPY
--------

The enthalpy is H = U + kB*T
                kB is Boltzmann's constant
Total free energy                 ...   -327.02657671 Eh
Thermal Enthalpy correction       ...      0.00094421 Eh       0.59 kcal/mol
-----------------------------------------------------------------------
Total Enthalpy                    ...   -327.02563250 Eh

-------
ENTROPY
-------

The entropy contributions are T*S = T*(S(el)+S(vib)+S(rot)+S(trans)
     S(el)   - electronic entropy
     S(vib)  - vibrational entropy
     S(rot)  - rotational entropy
     S(trans)- translational entropy
The entropies will be listed as mutliplied by the temperature to get
units of energy

Electronic entropy                ...      0.00000000 Eh      0.00 kcal/mol
Vibrational entropy               ...      0.00884482 Eh      5.55 kcal/mol
Rotational entropy                ...      0.01203200 Eh      7.55 kcal/mol
Translational entropy             ...      0.01890147 Eh     11.86 kcal/mol
-----------------------------------------------------------------------
Final entropy term                ...      0.03977828 Eh     24.96 kcal/mol

CAUTION: The rotational entropy is not quite correctly treated here
         because it includes a symmetry number that is not yet correctly
         implemented in ORCA!
For a nonlinear molecule the correct rotational entropy is:
    S(rot) = R*(ln(qrot/sn)+1.5)
    R    = 8.31441 J/mol/K = 1.987191683e-3 kcal/mol/K
    qrot = 229103.2796407
    sn is the rotational symmetry number. We have assumed 3 here
       if it is different for your molecule then you should correct
       the printed rotational entropy by manually evaluating the equation
       as given above

For convenience we print out the resulting values for sn=1 - 12:
 sn= 1  qrot/sn=  229103.2796 T*S(rot)=     8.20 kcal/mol T*S(tot)=    25.61 kcal/mol
 sn= 2  qrot/sn=  114551.6398 T*S(rot)=     7.79 kcal/mol T*S(tot)=    25.20 kcal/mol
 sn= 3  qrot/sn=   76367.7599 T*S(rot)=     7.55 kcal/mol T*S(tot)=    24.96 kcal/mol
 sn= 4  qrot/sn=   57275.8199 T*S(rot)=     7.38 kcal/mol T*S(tot)=    24.79 kcal/mol
 sn= 5  qrot/sn=   45820.6559 T*S(rot)=     7.25 kcal/mol T*S(tot)=    24.66 kcal/mol
 sn= 6  qrot/sn=   38183.8799 T*S(rot)=     7.14 kcal/mol T*S(tot)=    24.55 kcal/mol
 sn= 7  qrot/sn=   32729.0399 T*S(rot)=     7.05 kcal/mol T*S(tot)=    24.46 kcal/mol
 sn= 8  qrot/sn=   28637.9100 T*S(rot)=     6.97 kcal/mol T*S(tot)=    24.38 kcal/mol
 sn= 9  qrot/sn=   25455.9200 T*S(rot)=     6.90 kcal/mol T*S(tot)=    24.31 kcal/mol
 sn=10  qrot/sn=   22910.3280 T*S(rot)=     6.84 kcal/mol T*S(tot)=    24.25 kcal/mol
 sn=11  qrot/sn=   20827.5709 T*S(rot)=     6.78 kcal/mol T*S(tot)=    24.19 kcal/mol
 sn=12  qrot/sn=   19091.9400 T*S(rot)=     6.73 kcal/mol T*S(tot)=    24.14 kcal/mol

-------------------
GIBBS FREE ENTHALPY
-------------------

The Gibbs free enthalpy is G = H - T*S

Total enthalpy                    ...   -327.02563250 Eh
Total entropy correction          ...     -0.03977828 Eh    -24.96 kcal/mol
-----------------------------------------------------------------------
Final Gibbs free enthalpy         ...   -327.06541078 Eh

For completeness - the Gibbs free enthalpy minus the electronic energy
G-E(el)                           ...      0.14396929 Eh     90.34 kcal/mol

                             ****ORCA TERMINATED NORMALLY****
TOTAL RUN TIME: 0 days 0 hours 58 minutes 24 seconds 868 msec
