                         Program Version 3.0.3 - RELEASE   -
|  1> ! NORI PBE0 def2-TZVP UseSym TightOPT Freq TightSCF Grid3 FinalGrid5 XYZFile
|  2> % pal
|  3>     nprocs 8
|  4> end
|  5> %method
|  6>     SymThresh 5.0e-2
|  7> end
|  8> % geom
|  9>     MaxIter 10
| 10> end
| 11> % maxcore 2000
| 12> % output
| 13>     printlevel mini
| 14>     print[ P_Basis ] 0
| 15>     print[ P_SCFInfo ] 1
| 16>     print[ P_SCFIterInfo ] 1
| 17>     print[ P_OrbEn ] 0
| 18>     print[ P_Cartesian ] 0
| 19> end
| 20> % elprop
| 21>     Dipole false
| 22> end
| 23> *xyz 1 1
| 24>  C        1.1120242327     0.2659335536    -0.1004324987
| 25>  C        2.6050337297     0.0889371731    -0.0505452641
| 26>  O        3.2074654325     1.3344946668     0.2802316123
| 27>  C        4.5997795445     1.2689557736     0.3576780653
| 28>  C        5.0964705272     2.6345609396     0.8015549348
| 29>  C        4.5967487134     3.6987559029    -0.1482609101
| 30>  N        4.9668448482     5.0736631783     0.3476136075
| 31>  H        0.6343184337    -0.6836984973    -0.3474628345
| 32>  H        0.8289466473     0.9957370834    -0.8613215568
| 33>  H        0.7267072465     0.5989219469     0.8648180675
| 34>  H        2.9932545921    -0.2550860908    -1.0188624074
| 35>  H        2.8868260873    -0.6569926980     0.7042451200
| 36>  H        5.0390079732     0.9989595332    -0.6160856551
| 37>  H        4.9286285780     0.5124813757     1.0829641495
| 38>  H        4.7152560976     2.8284159962     1.8105707998
| 39>  H        6.1902487643     2.6253908996     0.8449637989
| 40>  H        5.0275002818     3.6023056543    -1.1459155032
| 41>  H        3.5105404953     3.6718078246    -0.2266533752
| 42>  H        5.9804026914     5.1766069642     0.4324205996
| 43>  H        4.5646766511     5.2434025999     1.2722042207
| 44>  H        4.6285084324     5.8063962204    -0.2792249708
| 45> *
| 46>
| 47>                          ****END OF INPUT****
 Total Charge           Charge          ....    1
 Multiplicity           Mult            ....    1
 Number of Electrons    NEL             ....   58
FINAL SINGLE POINT ENERGY      -328.424806219838
FINAL SINGLE POINT ENERGY      -328.424807561416
FINAL SINGLE POINT ENERGY      -328.424809112065

CARTESIAN COORDINATES (ANGSTROEM)
---------------------------------
  C      0.748184    0.965080    2.981705
  C     -0.388598    0.275671    2.277173
  O     -0.003234    0.002748    0.935230
  C     -0.999134   -0.638731    0.196343
  C     -0.419381   -0.954381   -1.171875
  C      0.093293    0.310898   -1.820557
  N      0.808320   -0.002731   -3.110315
  H      0.470484    1.174571    4.016104
  H      0.992026    1.912933    2.498068
  H      1.639927    0.336010    2.989064
  H     -1.289201    0.904707    2.274509
  H     -0.644270   -0.668720    2.775784
  H     -1.892510   -0.001731    0.098422
  H     -1.318047   -1.573941    0.675865
  H      0.405009   -1.664355   -1.040972
  H     -1.186554   -1.432247   -1.789295
  H     -0.709067    1.006432   -2.071156
  H      0.811565    0.814722   -1.174636
  H      0.186892   -0.468052   -3.775310
  H      1.597595   -0.629879   -2.939653
  H      1.170994    0.841271   -3.557847

FINAL SINGLE POINT ENERGY      -328.424809245873
                    ***********************HURRAY********************
 Multiplicity           Mult            ....    1
 Number of Electrons    NEL             ....   58
 Basis Dimension        Dim             ....  301
FINAL SINGLE POINT ENERGY      -328.424809210621

VIBRATIONAL FREQUENCIES
-----------------------

   0:         0.00 cm**-1
   1:         0.00 cm**-1
   2:         0.00 cm**-1
   3:         0.00 cm**-1
   4:         0.00 cm**-1
   5:         0.00 cm**-1
   6:        67.20 cm**-1
   7:        72.26 cm**-1
   8:        83.20 cm**-1
   9:       134.28 cm**-1
  10:       205.60 cm**-1
  11:       236.19 cm**-1
  12:       251.14 cm**-1
  13:       263.50 cm**-1
  14:       332.60 cm**-1
  15:       439.85 cm**-1
  16:       540.41 cm**-1
  17:       766.47 cm**-1
  18:       820.53 cm**-1
  19:       859.35 cm**-1
  20:       872.02 cm**-1
  21:       927.43 cm**-1
  22:       968.38 cm**-1
  23:       990.27 cm**-1
  24:      1010.04 cm**-1
  25:      1080.13 cm**-1
  26:      1125.53 cm**-1
  27:      1165.55 cm**-1
  28:      1171.02 cm**-1
  29:      1187.92 cm**-1
  30:      1197.01 cm**-1
  31:      1268.21 cm**-1
  32:      1305.45 cm**-1
  33:      1312.32 cm**-1
  34:      1341.08 cm**-1
  35:      1352.19 cm**-1
  36:      1383.36 cm**-1
  37:      1404.75 cm**-1
  38:      1410.92 cm**-1
  39:      1447.53 cm**-1
  40:      1474.50 cm**-1
  41:      1477.51 cm**-1
  42:      1491.31 cm**-1
  43:      1502.92 cm**-1
  44:      1507.77 cm**-1
  45:      1509.52 cm**-1
  46:      1526.10 cm**-1
  47:      1659.14 cm**-1
  48:      1664.65 cm**-1
  49:      2984.40 cm**-1
  50:      3007.57 cm**-1
  51:      3033.17 cm**-1
  52:      3043.93 cm**-1
  53:      3049.55 cm**-1
  54:      3063.28 cm**-1
  55:      3098.48 cm**-1
  56:      3105.84 cm**-1
  57:      3142.49 cm**-1
  58:      3147.06 cm**-1
  59:      3171.17 cm**-1
  60:      3422.34 cm**-1
  61:      3503.31 cm**-1
  62:      3509.84 cm**-1

IR SPECTRUM
-----------

 Mode    freq (cm**-1)   T**2         TX         TY         TZ
-------------------------------------------------------------------
   6:        67.20   12.061267  ( -2.319615   0.245345  -2.573026)
   7:        72.26    0.499633  ( -0.245977   0.390849  -0.535131)
   8:        83.20    9.800381  (  0.169622  -2.879504  -1.216579)
   9:       134.28    4.392063  (  0.845656  -0.717331   1.778304)
  10:       205.60    2.742602  (  0.078278   0.972793  -1.337964)
  11:       236.19    1.603078  (  0.208906   0.460347  -1.160826)
  12:       251.14    2.987636  (  0.425006  -1.673003   0.089822)
  13:       263.50    1.718120  ( -0.006064   1.079245   0.743851)
  14:       332.60   12.379591  ( -1.790044  -1.203100   2.779907)
  15:       439.85    3.061184  ( -0.437035  -0.438121  -1.636531)
  16:       540.41    3.068512  (  1.184953   0.948314  -0.874700)
  17:       766.47    5.509186  (  1.045726  -0.365614   2.069292)
  18:       820.53    1.038922  ( -0.381260   0.847654  -0.418383)
  19:       859.35    5.558933  ( -1.196478   1.171140  -1.660062)
  20:       872.02   20.923892  (  3.464660   1.287251  -2.694997)
  21:       927.43    6.990453  ( -1.356016  -1.185678  -1.935418)
  22:       968.38    9.506426  ( -1.302333  -0.307839   2.777695)
  23:       990.27    8.496328  (  0.380853   2.414701  -1.587607)
  24:      1010.04    3.339840  (  0.958276  -1.502773  -0.404007)
  25:      1080.13   11.625601  ( -2.121015   0.066926   2.668786)
  26:      1125.53    2.718966  (  0.130708  -0.238551   1.626338)
  27:      1165.55   30.991750  (  0.624312   0.211446  -5.527864)
  28:      1171.02  138.648587  (  0.130728  -3.136605 -11.348709)
  29:      1187.92   36.435374  ( -0.869220  -5.312803  -2.730193)
  30:      1197.01   82.969037  ( -5.587178  -2.890814  -6.587539)
  31:      1268.21    0.795579  (  0.099010   0.280902  -0.840756)
  32:      1305.45    3.469698  ( -0.863583   1.535698  -0.604611)
  33:      1312.32    5.007308  ( -0.922888  -0.802641   1.873861)
  34:      1341.08    7.653213  ( -1.810623  -0.241443  -2.077634)
  35:      1352.19    4.839374  ( -1.478457   0.634537  -1.500301)
  36:      1383.36   33.124395  ( -0.502229  -1.821633  -5.436342)
  37:      1404.75   23.678754  ( -0.238770  -1.424249  -4.646855)
  38:      1410.92   10.606409  ( -2.733378  -1.433975  -1.038638)
  39:      1447.53    5.220778  ( -2.026013  -1.049901  -0.117283)
  40:      1474.50    0.107637  ( -0.059272   0.272762   0.172408)
  41:      1477.51   10.617269  ( -1.152981   2.926142  -0.851821)
  42:      1491.31    4.043334  ( -0.872155  -0.015986   1.811746)
  43:      1502.92   16.402586  (  2.011317   2.805487  -2.118120)
  44:      1507.77  139.384221  ( -5.140816   3.242243  10.121467)
  45:      1509.52    6.431032  (  2.125168  -0.264407  -1.358227)
  46:      1526.10    6.491374  ( -2.345874  -0.606839   0.787398)
  47:      1659.14   51.031156  (  6.291741  -0.342254   3.365710)
  48:      1664.65   37.326582  ( -0.877822  -5.850451   1.525855)
  49:      2984.40   31.085945  (  5.104592  -0.476374   2.191382)
  50:      3007.57   42.338091  (  5.734888   0.115680  -3.071770)
  51:      3033.17   23.223046  (  1.001031   4.109457  -2.309404)
  52:      3043.93   26.472076  (  1.994352  -4.645039   0.958255)
  53:      3049.55   13.385661  (  0.526306  -3.178377  -1.733950)
  54:      3063.28    9.045259  ( -2.419530  -1.652438  -0.678663)
  55:      3098.48    7.265750  (  2.450400   0.388477   1.053744)
  56:      3105.84    5.263591  ( -1.096439   1.256782  -1.575408)
  57:      3142.49   19.015287  (  0.714538  -3.763084   2.084208)
  58:      3147.06   10.553854  (  2.476390  -1.055002  -1.818879)
  59:      3171.17    1.454734  ( -0.565612   0.382383   0.994284)
  60:      3422.34   44.252945  (  3.152114  -0.829706  -5.799027)
  61:      3503.31   90.128034  ( -7.865102   1.753832  -5.019191)
  62:      3509.84   97.662277  (  2.797393   9.388163  -1.303561)

--------------------------
THERMOCHEMISTRY AT 298.15K
--------------------------

Temperature         ... 298.15 K
Pressure            ... 1.00 atm
Total Mass          ... 104.17 AMU

Throughout the following assumptions are being made:
  (1) The electronic state is orbitally nondegenerate
  (2) There are no thermally accessible electronically excited states
  (3) Hindered rotations indicated by low frequency modes) are not
      treated as such but are treated as vibrations and this may
      case some error
  (4) All equations used are the standard statistical mechanics
      equations for an ideal gas
  (5) All vibrations are strinctly harmonic

------------
INNER ENERGY
------------

The inner energy is: U= E(el) + E(ZPE) + E(vib) + E(rot) + E(trans)
    E(el)   - is the total energy from the electronic structure calculation
              = E(kin-el) + E(nuc-el) + E(el-el) + E(nuc-nuc)
    E(ZPE)  - the the zero temperature vibrational energy from the frequency calculation
    E(vib)  - the the finite temperature correction to E(ZPE) due to population
              of excietd vibrational states
    E(rot)  - is the rotational thermal energy
    E(trans)- is the translational thermal energy

Summary of contributions to the inner energy U:
Electronic energy                ...   -328.42480921 Eh
Zero point energy                ...      0.19840468 Eh     124.50 kcal/mol
Thermal vibrational correction   ...      0.00657876 Eh       4.13 kcal/mol
Thermal rotational correction    ...      0.00141627 Eh       0.89 kcal/mol
Thermal translational correction ...      0.00141627 Eh       0.89 kcal/mol
-----------------------------------------------------------------------
Total thermal energy                   -328.21699323 Eh

Summary of corrections to the electronic energy:
(perhaps to be used in another calculation)
Total thermal correction                  0.00941130 Eh       5.91 kcal/mol
Non-thermal (ZPE) correction              0.19840468 Eh     124.50 kcal/mol
-----------------------------------------------------------------------
Total correction                          0.20781599 Eh     130.41 kcal/mol

--------
ENTHALPY
--------

The enthalpy is H = U + kB*T
                kB is Boltzmann's constant
Total free energy                 ...   -328.21699323 Eh
Thermal Enthalpy correction       ...      0.00094421 Eh       0.59 kcal/mol
-----------------------------------------------------------------------
Total Enthalpy                    ...   -328.21604902 Eh

-------
ENTROPY
-------

The entropy contributions are T*S = T*(S(el)+S(vib)+S(rot)+S(trans)
     S(el)   - electronic entropy
     S(vib)  - vibrational entropy
     S(rot)  - rotational entropy
     S(trans)- translational entropy
The entropies will be listed as mutliplied by the temperature to get
units of energy

Electronic entropy                ...      0.00000000 Eh      0.00 kcal/mol
Vibrational entropy               ...      0.01268543 Eh      7.96 kcal/mol
Rotational entropy                ...      0.01248274 Eh      7.83 kcal/mol
Translational entropy             ...      0.01892914 Eh     11.88 kcal/mol
-----------------------------------------------------------------------
Final entropy term                ...      0.04409732 Eh     27.67 kcal/mol

CAUTION: The rotational entropy is not quite correctly treated here
         because it includes a symmetry number that is not yet correctly
         implemented in ORCA!
For a nonlinear molecule the correct rotational entropy is:
    S(rot) = R*(ln(qrot/sn)+1.5)
    R    = 8.31441 J/mol/K = 1.987191683e-3 kcal/mol/K
    qrot = 369284.0721289
    sn is the rotational symmetry number. We have assumed 3 here
       if it is different for your molecule then you should correct
       the printed rotational entropy by manually evaluating the equation
       as given above

For convenience we print out the resulting values for sn=1 - 12:
 sn= 1  qrot/sn=  369284.0721 T*S(rot)=     8.48 kcal/mol T*S(tot)=    28.32 kcal/mol
 sn= 2  qrot/sn=  184642.0361 T*S(rot)=     8.07 kcal/mol T*S(tot)=    27.91 kcal/mol
 sn= 3  qrot/sn=  123094.6907 T*S(rot)=     7.83 kcal/mol T*S(tot)=    27.67 kcal/mol
 sn= 4  qrot/sn=   92321.0180 T*S(rot)=     7.66 kcal/mol T*S(tot)=    27.50 kcal/mol
 sn= 5  qrot/sn=   73856.8144 T*S(rot)=     7.53 kcal/mol T*S(tot)=    27.37 kcal/mol
 sn= 6  qrot/sn=   61547.3454 T*S(rot)=     7.42 kcal/mol T*S(tot)=    27.26 kcal/mol
 sn= 7  qrot/sn=   52754.8674 T*S(rot)=     7.33 kcal/mol T*S(tot)=    27.17 kcal/mol
 sn= 8  qrot/sn=   46160.5090 T*S(rot)=     7.25 kcal/mol T*S(tot)=    27.09 kcal/mol
 sn= 9  qrot/sn=   41031.5636 T*S(rot)=     7.18 kcal/mol T*S(tot)=    27.02 kcal/mol
 sn=10  qrot/sn=   36928.4072 T*S(rot)=     7.12 kcal/mol T*S(tot)=    26.96 kcal/mol
 sn=11  qrot/sn=   33571.2793 T*S(rot)=     7.06 kcal/mol T*S(tot)=    26.90 kcal/mol
 sn=12  qrot/sn=   30773.6727 T*S(rot)=     7.01 kcal/mol T*S(tot)=    26.85 kcal/mol

-------------------
GIBBS FREE ENTHALPY
-------------------

The Gibbs free enthalpy is G = H - T*S

Total enthalpy                    ...   -328.21604902 Eh
Total entropy correction          ...     -0.04409732 Eh    -27.67 kcal/mol
-----------------------------------------------------------------------
Final Gibbs free enthalpy         ...   -328.26014633 Eh

For completeness - the Gibbs free enthalpy minus the electronic energy
G-E(el)                           ...      0.16466288 Eh    103.33 kcal/mol

                             ****ORCA TERMINATED NORMALLY****
TOTAL RUN TIME: 0 days 0 hours 53 minutes 12 seconds 901 msec
