                         Program Version 3.0.3 - RELEASE   -
|  1> ! NORI PBE0 def2-TZVP UseSym TightOPT Freq TightSCF Grid3 FinalGrid5 XYZFile
|  2> % pal
|  3>     nprocs 8
|  4> end
|  5> %method
|  6>     SymThresh 5.0e-2
|  7> end
|  8> % geom
|  9>     MaxIter 10
| 10> end
| 11> % maxcore 2000
| 12> % output
| 13>     printlevel mini
| 14>     print[ P_Basis ] 0
| 15>     print[ P_SCFInfo ] 1
| 16>     print[ P_SCFIterInfo ] 1
| 17>     print[ P_OrbEn ] 0
| 18>     print[ P_Cartesian ] 0
| 19> end
| 20> % elprop
| 21>     Dipole false
| 22> end
| 23> *xyz 1 1
| 24>  C        3.9550225021    -1.1205694725    -0.2913928303
| 25>  C        2.7673534231    -0.1923729262    -0.1683746391
| 26>  O        1.9015829926    -0.5519390657     0.8888183021
| 27>  C        3.0960505985     1.2666964923    -0.0339808930
| 28>  C        4.2842330427     1.8448865294    -0.1915995326
| 29>  C        4.4624361377     3.3151438187    -0.0837276881
| 30>  N        5.2439173891     3.6646042929     1.1764451822
| 31>  H        4.5509624607    -0.9007415966    -1.1800425085
| 32>  H        3.6012392322    -2.1482639809    -0.3764976105
| 33>  H        4.6062409090    -1.0542251576     0.5865286769
| 34>  H        2.1556769742    -0.2822376766    -1.0758180741
| 35>  H        2.4281676964    -0.7976147557     1.6553820939
| 36>  H        2.2284001120     1.8802353393     0.2069048711
| 37>  H        5.1596889278     1.2585152391    -0.4591579604
| 38>  H        3.5111438250     3.8404758604    -0.0037982501
| 39>  H        5.0363543564     3.7406555906    -0.9094437930
| 40>  H        4.7469434683     3.3197190326     2.0005083221
| 41>  H        5.3820523842     4.6726286692     1.2784903374
| 42>  H        6.1633135681     3.2189037674     1.1672859940
| 43> *
| 44>
| 45>                          ****END OF INPUT****
 Total Charge           Charge          ....    1
 Multiplicity           Mult            ....    1
 Number of Electrons    NEL             ....   56
FINAL SINGLE POINT ENERGY      -327.202097281008

CARTESIAN COORDINATES (ANGSTROEM)
---------------------------------
  C     -1.523256   -1.346777    1.232994
  C     -0.874002   -0.000155    1.463314
  O     -0.000744    0.000965    2.574039
  C     -0.141077    0.575875    0.285902
  C     -0.153336    0.132410   -0.968886
  C      0.578486    0.831092   -2.055773
  N      1.769022   -0.000690   -2.515338
  H     -2.279488   -1.302748    0.446486
  H     -2.017551   -1.669337    2.149580
  H     -0.782553   -2.104945    0.958421
  H     -1.655322    0.727951    1.719025
  H      0.514256   -0.811487    2.568187
  H      0.440884    1.462466    0.536210
  H     -0.747980   -0.733331   -1.249563
  H      0.987207    1.787007   -1.728701
  H     -0.027994    0.989843   -2.949620
  H      2.401882   -0.165765   -1.729676
  H      2.293545    0.456549   -3.264595
  H      1.462494   -0.914120   -2.855964

FINAL SINGLE POINT ENERGY      -327.202097992032
                    ***********************HURRAY********************
 Multiplicity           Mult            ....    1
 Number of Electrons    NEL             ....   56
 Basis Dimension        Dim             ....  289
FINAL SINGLE POINT ENERGY      -327.202098192960

VIBRATIONAL FREQUENCIES
-----------------------

   0:         0.00 cm**-1
   1:         0.00 cm**-1
   2:         0.00 cm**-1
   3:         0.00 cm**-1
   4:         0.00 cm**-1
   5:         0.00 cm**-1
   6:        51.23 cm**-1
   7:       111.63 cm**-1
   8:       142.30 cm**-1
   9:       165.55 cm**-1
  10:       228.97 cm**-1
  11:       259.54 cm**-1
  12:       271.63 cm**-1
  13:       336.25 cm**-1
  14:       392.61 cm**-1
  15:       447.30 cm**-1
  16:       456.94 cm**-1
  17:       602.33 cm**-1
  18:       822.43 cm**-1
  19:       834.55 cm**-1
  20:       875.65 cm**-1
  21:       879.85 cm**-1
  22:       964.36 cm**-1
  23:       990.18 cm**-1
  24:      1018.39 cm**-1
  25:      1047.12 cm**-1
  26:      1084.66 cm**-1
  27:      1115.18 cm**-1
  28:      1143.36 cm**-1
  29:      1186.15 cm**-1
  30:      1277.71 cm**-1
  31:      1310.22 cm**-1
  32:      1325.75 cm**-1
  33:      1350.29 cm**-1
  34:      1362.53 cm**-1
  35:      1395.00 cm**-1
  36:      1398.92 cm**-1
  37:      1414.65 cm**-1
  38:      1484.91 cm**-1
  39:      1487.98 cm**-1
  40:      1490.68 cm**-1
  41:      1494.36 cm**-1
  42:      1652.20 cm**-1
  43:      1661.44 cm**-1
  44:      1727.28 cm**-1
  45:      3030.95 cm**-1
  46:      3048.57 cm**-1
  47:      3094.69 cm**-1
  48:      3125.72 cm**-1
  49:      3148.97 cm**-1
  50:      3152.83 cm**-1
  51:      3155.70 cm**-1
  52:      3174.72 cm**-1
  53:      3416.68 cm**-1
  54:      3506.65 cm**-1
  55:      3508.87 cm**-1
  56:      3845.74 cm**-1

IR SPECTRUM
-----------

 Mode    freq (cm**-1)   T**2         TX         TY         TZ
-------------------------------------------------------------------
   6:        51.23    6.245724  (  0.239939   1.030293   2.264211)
   7:       111.63   16.974823  (  0.747333   2.609445  -3.099534)
   8:       142.30    6.071501  (  0.817115   0.383280  -2.292798)
   9:       165.55    0.267558  ( -0.199790  -0.310173   0.362539)
  10:       228.97    1.833538  (  0.544608   0.906675  -0.845506)
  11:       259.54   76.261382  ( -6.331772  -4.405290   4.094321)
  12:       271.63   24.278573  ( -3.242070  -2.621706   2.625682)
  13:       336.25    4.105402  (  1.254584   0.118014  -1.586661)
  14:       392.61   12.612614  (  2.365072   0.667764  -2.563813)
  15:       447.30    7.930623  (  0.302908   1.985576  -1.973919)
  16:       456.94    3.124410  ( -1.450182   0.908041   0.443670)
  17:       602.33    5.835272  (  2.275403  -0.423782   0.691538)
  18:       822.43    0.355075  ( -0.092186   0.585590  -0.060509)
  19:       834.55   18.684857  ( -0.726004   0.323193   4.248920)
  20:       875.65   27.923912  (  5.145778   0.630072  -1.023665)
  21:       879.85   24.039720  (  1.868196  -1.181157  -4.376578)
  22:       964.36    6.043755  ( -1.029854   1.742490  -1.395308)
  23:       990.18    8.504486  ( -1.056499   2.681265   0.446225)
  24:      1018.39   15.682283  (  2.915088  -2.511849  -0.935500)
  25:      1047.12   52.996549  ( -5.117449   1.687157  -4.895075)
  26:      1084.66   18.484441  (  3.147854  -1.907233   2.222143)
  27:      1115.18   60.671365  (  4.446686   0.404480   6.382378)
  28:      1143.36   21.518879  ( -1.959284  -2.570121   3.327846)
  29:      1186.15   30.810320  ( -0.351307   1.077249  -5.433824)
  30:      1277.71   12.843413  ( -2.759933  -1.561185  -1.669996)
  31:      1310.22   10.547630  (  0.472550  -0.475906  -3.177710)
  32:      1325.75    8.029151  ( -0.168960   1.066752   2.619665)
  33:      1350.29    3.704186  (  0.641046   0.309678   1.788112)
  34:      1362.53   27.392589  ( -1.730229  -1.092096   4.817284)
  35:      1395.00   23.650183  (  0.837957  -0.845008   4.715291)
  36:      1398.92   21.607443  ( -3.619901  -0.882018   2.779532)
  37:      1414.65   41.268480  ( -2.169525  -3.566132  -4.883067)
  38:      1484.91    0.644918  ( -0.481224   0.570755  -0.295940)
  39:      1487.98   15.370783  (  1.763497   2.890667  -1.976084)
  40:      1490.68   15.950797  ( -3.716167   1.375657  -0.498468)
  41:      1494.36  148.685608  ( -9.667331   6.111509   4.228212)
  42:      1652.20   50.443093  ( -4.557442  -3.755740  -3.945533)
  43:      1661.44   39.199495  ( -1.410782  -3.291962   5.135385)
  44:      1727.28   29.311774  (  2.355580  -0.150690  -4.872403)
  45:      3030.95    4.638146  (  0.506450  -0.894296   1.892588)
  46:      3048.57   10.457857  (  1.031903  -2.984829  -0.695580)
  47:      3094.69    3.759600  (  0.700248   0.774943  -1.633621)
  48:      3125.72   13.520587  ( -3.195940   1.535688  -0.973763)
  49:      3148.97    3.734956  (  0.948682   1.484366  -0.794742)
  50:      3152.83    4.235018  (  0.352447   0.203031  -2.017319)
  51:      3155.70    0.149442  ( -0.265175  -0.240904  -0.145222)
  52:      3174.72    0.808386  ( -0.423832  -0.770351  -0.187914)
  53:      3416.68   38.168713  (  4.922769  -2.375923  -2.879244)
  54:      3506.65   86.330024  ( -1.646638   2.595920  -8.768113)
  55:      3508.87   90.071897  ( -5.124049  -7.818751  -1.638035)
  56:      3845.74   38.202443  (  3.546484  -4.086679   2.987299)

--------------------------
THERMOCHEMISTRY AT 298.15K
--------------------------

Temperature         ... 298.15 K
Pressure            ... 1.00 atm
Total Mass          ... 102.16 AMU

Throughout the following assumptions are being made:
  (1) The electronic state is orbitally nondegenerate
  (2) There are no thermally accessible electronically excited states
  (3) Hindered rotations indicated by low frequency modes) are not
      treated as such but are treated as vibrations and this may
      case some error
  (4) All equations used are the standard statistical mechanics
      equations for an ideal gas
  (5) All vibrations are strinctly harmonic

------------
INNER ENERGY
------------

The inner energy is: U= E(el) + E(ZPE) + E(vib) + E(rot) + E(trans)
    E(el)   - is the total energy from the electronic structure calculation
              = E(kin-el) + E(nuc-el) + E(el-el) + E(nuc-nuc)
    E(ZPE)  - the the zero temperature vibrational energy from the frequency calculation
    E(vib)  - the the finite temperature correction to E(ZPE) due to population
              of excietd vibrational states
    E(rot)  - is the rotational thermal energy
    E(trans)- is the translational thermal energy

Summary of contributions to the inner energy U:
Electronic energy                ...   -327.20209819 Eh
Zero point energy                ...      0.17421642 Eh     109.32 kcal/mol
Thermal vibrational correction   ...      0.00623492 Eh       3.91 kcal/mol
Thermal rotational correction    ...      0.00141627 Eh       0.89 kcal/mol
Thermal translational correction ...      0.00141627 Eh       0.89 kcal/mol
-----------------------------------------------------------------------
Total thermal energy                   -327.01881431 Eh

Summary of corrections to the electronic energy:
(perhaps to be used in another calculation)
Total thermal correction                  0.00906746 Eh       5.69 kcal/mol
Non-thermal (ZPE) correction              0.17421642 Eh     109.32 kcal/mol
-----------------------------------------------------------------------
Total correction                          0.18328388 Eh     115.01 kcal/mol

--------
ENTHALPY
--------

The enthalpy is H = U + kB*T
                kB is Boltzmann's constant
Total free energy                 ...   -327.01881431 Eh
Thermal Enthalpy correction       ...      0.00094421 Eh       0.59 kcal/mol
-----------------------------------------------------------------------
Total Enthalpy                    ...   -327.01787010 Eh

-------
ENTROPY
-------

The entropy contributions are T*S = T*(S(el)+S(vib)+S(rot)+S(trans)
     S(el)   - electronic entropy
     S(vib)  - vibrational entropy
     S(rot)  - rotational entropy
     S(trans)- translational entropy
The entropies will be listed as mutliplied by the temperature to get
units of energy

Electronic entropy                ...      0.00000000 Eh      0.00 kcal/mol
Vibrational entropy               ...      0.01147924 Eh      7.20 kcal/mol
Rotational entropy                ...      0.01242677 Eh      7.80 kcal/mol
Translational entropy             ...      0.01890147 Eh     11.86 kcal/mol
-----------------------------------------------------------------------
Final entropy term                ...      0.04280748 Eh     26.86 kcal/mol

CAUTION: The rotational entropy is not quite correctly treated here
         because it includes a symmetry number that is not yet correctly
         implemented in ORCA!
For a nonlinear molecule the correct rotational entropy is:
    S(rot) = R*(ln(qrot/sn)+1.5)
    R    = 8.31441 J/mol/K = 1.987191683e-3 kcal/mol/K
    qrot = 348029.7002397
    sn is the rotational symmetry number. We have assumed 3 here
       if it is different for your molecule then you should correct
       the printed rotational entropy by manually evaluating the equation
       as given above

For convenience we print out the resulting values for sn=1 - 12:
 sn= 1  qrot/sn=  348029.7002 T*S(rot)=     8.45 kcal/mol T*S(tot)=    27.51 kcal/mol
 sn= 2  qrot/sn=  174014.8501 T*S(rot)=     8.04 kcal/mol T*S(tot)=    27.10 kcal/mol
 sn= 3  qrot/sn=  116009.9001 T*S(rot)=     7.80 kcal/mol T*S(tot)=    26.86 kcal/mol
 sn= 4  qrot/sn=   87007.4251 T*S(rot)=     7.63 kcal/mol T*S(tot)=    26.69 kcal/mol
 sn= 5  qrot/sn=   69605.9400 T*S(rot)=     7.50 kcal/mol T*S(tot)=    26.56 kcal/mol
 sn= 6  qrot/sn=   58004.9500 T*S(rot)=     7.39 kcal/mol T*S(tot)=    26.45 kcal/mol
 sn= 7  qrot/sn=   49718.5286 T*S(rot)=     7.30 kcal/mol T*S(tot)=    26.36 kcal/mol
 sn= 8  qrot/sn=   43503.7125 T*S(rot)=     7.22 kcal/mol T*S(tot)=    26.28 kcal/mol
 sn= 9  qrot/sn=   38669.9667 T*S(rot)=     7.15 kcal/mol T*S(tot)=    26.21 kcal/mol
 sn=10  qrot/sn=   34802.9700 T*S(rot)=     7.08 kcal/mol T*S(tot)=    26.15 kcal/mol
 sn=11  qrot/sn=   31639.0637 T*S(rot)=     7.03 kcal/mol T*S(tot)=    26.09 kcal/mol
 sn=12  qrot/sn=   29002.4750 T*S(rot)=     6.98 kcal/mol T*S(tot)=    26.04 kcal/mol

-------------------
GIBBS FREE ENTHALPY
-------------------

The Gibbs free enthalpy is G = H - T*S

Total enthalpy                    ...   -327.01787010 Eh
Total entropy correction          ...     -0.04280748 Eh    -26.86 kcal/mol
-----------------------------------------------------------------------
Final Gibbs free enthalpy         ...   -327.06067758 Eh

For completeness - the Gibbs free enthalpy minus the electronic energy
G-E(el)                           ...      0.14142061 Eh     88.74 kcal/mol

                             ****ORCA TERMINATED NORMALLY****
TOTAL RUN TIME: 0 days 0 hours 48 minutes 7 seconds 117 msec
