                         Program Version 3.0.3 - RELEASE   -
|  1> ! NORI PBE0 def2-TZVP UseSym TightOPT Freq TightSCF Grid3 FinalGrid5 XYZFile
|  2> % pal
|  3>     nprocs 8
|  4> end
|  5> %method
|  6>     SymThresh 5.0e-2
|  7> end
|  8> % geom
|  9>     MaxIter 10
| 10> end
| 11> % maxcore 2000
| 12> % output
| 13>     printlevel mini
| 14>     print[ P_Basis ] 0
| 15>     print[ P_SCFInfo ] 1
| 16>     print[ P_SCFIterInfo ] 1
| 17>     print[ P_OrbEn ] 0
| 18>     print[ P_Cartesian ] 0
| 19> end
| 20> % elprop
| 21>     Dipole false
| 22> end
| 23> *xyz 1 1
| 24>  C        2.2698459964    -1.5067479104    -0.7974444565
| 25>  C        2.5256570297    -0.1238522234    -0.2302722796
| 26>  O        3.5033498635    -0.1751942391     0.8251531751
| 27>  C        3.0593664088     0.8436020723    -1.2580076522
| 28>  C        2.2856868079     1.7344519447    -1.8654541523
| 29>  C        4.5157784046     0.7412999679    -1.5937103211
| 30>  N        5.3235047121     1.2153434322    -0.4104907397
| 31>  H        1.5068769747    -1.4597583970    -1.5760101850
| 32>  H        1.9041295376    -2.1766922356    -0.0148409926
| 33>  H        3.1749535186    -1.9453149700    -1.2228510969
| 34>  H        1.5938602928     0.2854754585     0.1721922582
| 35>  H        3.2511689235    -0.8346832398     1.4782986604
| 36>  H        2.6646237997     2.3877811114    -2.6439440380
| 37>  H        1.2328641883     1.8262809605    -1.6228450293
| 38>  H        4.7824202253     1.3506739958    -2.4553401418
| 39>  H        4.8303297559    -0.2878796366    -1.7746997867
| 40>  H        5.1901215407     2.2148976660    -0.2552120402
| 41>  H        6.3208864856     1.0293884346    -0.5147128904
| 42>  H        4.9315755341     0.7007478079     0.4081717086
| 43> *
| 44>
| 45>                          ****END OF INPUT****
 Total Charge           Charge          ....    1
 Multiplicity           Mult            ....    1
 Number of Electrons    NEL             ....   56
FINAL SINGLE POINT ENERGY      -327.220974952139
FINAL SINGLE POINT ENERGY      -327.220976351816
FINAL SINGLE POINT ENERGY      -327.220976568884
FINAL SINGLE POINT ENERGY      -327.220976456726

CARTESIAN COORDINATES (ANGSTROEM)
---------------------------------
  C     -1.819688   -1.132919    0.471056
  C     -0.961127    0.114283    0.557613
  O     -0.000082    0.001864    1.623422
  C     -0.170750    0.370674   -0.702159
  C     -0.555075    1.251690   -1.617249
  C      1.070549   -0.444459   -0.899794
  N      2.109566   -0.001189    0.099984
  H     -2.563642   -1.025161   -0.319502
  H     -2.355260   -1.291320    1.410722
  H     -1.221776   -2.024063    0.267098
  H     -1.596551    0.985369    0.745475
  H     -0.442345   -0.234673    2.444176
  H     -0.012236    1.387274   -2.546259
  H     -1.445758    1.854914   -1.481153
  H      1.485106   -0.326428   -1.899471
  H      0.904911   -1.505727   -0.705424
  H      2.421578    0.950077   -0.096117
  H      2.923060   -0.615626    0.121136
  H      1.616727   -0.002204    1.019681

FINAL SINGLE POINT ENERGY      -327.220976750588
                    ***********************HURRAY********************
 Multiplicity           Mult            ....    1
 Number of Electrons    NEL             ....   56
 Basis Dimension        Dim             ....  289
FINAL SINGLE POINT ENERGY      -327.220976771668

VIBRATIONAL FREQUENCIES
-----------------------

   0:         0.00 cm**-1
   1:         0.00 cm**-1
   2:         0.00 cm**-1
   3:         0.00 cm**-1
   4:         0.00 cm**-1
   5:         0.00 cm**-1
   6:        66.56 cm**-1
   7:       141.94 cm**-1
   8:       231.11 cm**-1
   9:       246.74 cm**-1
  10:       277.43 cm**-1
  11:       303.64 cm**-1
  12:       315.97 cm**-1
  13:       347.75 cm**-1
  14:       385.65 cm**-1
  15:       444.51 cm**-1
  16:       563.52 cm**-1
  17:       665.81 cm**-1
  18:       742.93 cm**-1
  19:       763.62 cm**-1
  20:       873.50 cm**-1
  21:       889.31 cm**-1
  22:       938.45 cm**-1
  23:       977.74 cm**-1
  24:      1008.13 cm**-1
  25:      1021.77 cm**-1
  26:      1095.90 cm**-1
  27:      1107.30 cm**-1
  28:      1130.92 cm**-1
  29:      1132.60 cm**-1
  30:      1221.65 cm**-1
  31:      1319.21 cm**-1
  32:      1336.41 cm**-1
  33:      1353.92 cm**-1
  34:      1386.96 cm**-1
  35:      1405.24 cm**-1
  36:      1410.15 cm**-1
  37:      1460.06 cm**-1
  38:      1480.54 cm**-1
  39:      1482.06 cm**-1
  40:      1491.21 cm**-1
  41:      1498.15 cm**-1
  42:      1637.50 cm**-1
  43:      1672.39 cm**-1
  44:      1738.44 cm**-1
  45:      3055.42 cm**-1
  46:      3067.70 cm**-1
  47:      3097.21 cm**-1
  48:      3109.85 cm**-1
  49:      3131.27 cm**-1
  50:      3150.25 cm**-1
  51:      3162.92 cm**-1
  52:      3167.81 cm**-1
  53:      3252.09 cm**-1
  54:      3472.74 cm**-1
  55:      3536.47 cm**-1
  56:      3855.45 cm**-1

IR SPECTRUM
-----------

 Mode    freq (cm**-1)   T**2         TX         TY         TZ
-------------------------------------------------------------------
   6:        66.56    7.378724  ( -0.694576  -2.616535  -0.223684)
   7:       141.94    6.554221  (  0.906962   1.993725  -1.325406)
   8:       231.11    0.300787  ( -0.105142   0.471495   0.259662)
   9:       246.74    7.432575  (  1.572318  -1.167445  -1.896698)
  10:       277.43   89.118288  ( -1.848632  -8.764002  -2.982132)
  11:       303.64   45.197425  ( -4.925451   2.011890   4.109703)
  12:       315.97   40.678321  ( -3.228143   5.242593   1.665124)
  13:       347.75    4.548332  ( -1.673309  -1.320241   0.073027)
  14:       385.65    7.043597  (  0.248992  -1.852057   1.884538)
  15:       444.51   13.067457  (  2.046400   2.098599  -2.115559)
  16:       563.52    9.362503  ( -1.874065  -1.052919  -2.177554)
  17:       665.81   16.821879  (  3.394730   2.180821  -0.736006)
  18:       742.93    1.849236  ( -0.881900  -0.537194   0.884823)
  19:       763.62    4.458343  ( -1.591480   0.013301   1.387573)
  20:       873.50   15.563250  ( -1.140306  -1.638930   3.402479)
  21:       889.31   15.758937  ( -1.479603   0.075385   3.682938)
  22:       938.45   37.124601  (  5.355058   0.239847   2.896624)
  23:       977.74    1.745225  ( -0.733741   0.234203  -1.073311)
  24:      1008.13   27.115098  ( -1.621128  -4.043795  -2.852150)
  25:      1021.77   24.093218  (  4.468824   1.875787  -0.777340)
  26:      1095.90   12.878373  (  1.834712  -0.134610   3.081247)
  27:      1107.30   64.785740  ( -6.551934   1.622984  -4.384498)
  28:      1130.92   42.986381  ( -1.507088   2.946686   5.659691)
  29:      1132.60   10.933438  (  1.200236  -1.465365   2.710273)
  30:      1221.65   47.364150  ( -4.367319  -1.235444  -5.173428)
  31:      1319.21    4.322855  ( -1.887295   0.023709   0.872015)
  32:      1336.41   15.553004  (  0.075722   1.407143  -3.683371)
  33:      1353.92   14.019633  (  2.656198   0.909490   2.477312)
  34:      1386.96    4.259217  (  1.918430   0.755540  -0.089455)
  35:      1405.24    9.631425  (  2.545688  -1.758221   0.244043)
  36:      1410.15   15.046929  ( -2.585339  -2.622691  -1.218377)
  37:      1460.06   19.802848  ( -1.430412   3.028552  -2.929957)
  38:      1480.54   20.183054  ( -4.318945  -1.035025  -0.677120)
  39:      1482.06  107.133964  ( -9.390215  -0.551728  -4.318961)
  40:      1491.21   22.727937  ( -1.560067   3.228453   3.141850)
  41:      1498.15   99.833407  ( -9.192690  -2.410280  -3.085193)
  42:      1637.50   17.468612  ( -1.861167  -3.178821   1.974783)
  43:      1672.39   36.706072  ( -4.533161   4.000654   0.388967)
  44:      1738.44    1.433315  (  0.925963   0.757052  -0.052733)
  45:      3055.42    4.074247  ( -0.345798  -1.720614   0.997075)
  46:      3067.70   13.580805  (  2.900477  -2.235005  -0.415682)
  47:      3097.21   87.606223  (  6.629721  -0.708523  -6.568943)
  48:      3109.85  326.418877  ( 12.467053   1.309280 -13.010659)
  49:      3131.27   20.941816  (  2.989136  -1.502394  -3.122450)
  50:      3150.25    5.326978  (  1.115593  -1.638277   1.182573)
  51:      3162.92    0.435970  ( -0.552824   0.308545   0.187499)
  52:      3167.81    1.848069  ( -1.112455   0.154543   0.765917)
  53:      3252.09    0.440895  (  0.319667   0.122077  -0.569039)
  54:      3472.74   87.447138  (  8.889734   1.974861  -2.125955)
  55:      3536.47   78.117307  (  2.917118  -8.310622   0.735731)
  56:      3855.45   92.298561  ( -2.315749  -1.822857   9.144018)

--------------------------
THERMOCHEMISTRY AT 298.15K
--------------------------

Temperature         ... 298.15 K
Pressure            ... 1.00 atm
Total Mass          ... 102.16 AMU

Throughout the following assumptions are being made:
  (1) The electronic state is orbitally nondegenerate
  (2) There are no thermally accessible electronically excited states
  (3) Hindered rotations indicated by low frequency modes) are not
      treated as such but are treated as vibrations and this may
      case some error
  (4) All equations used are the standard statistical mechanics
      equations for an ideal gas
  (5) All vibrations are strinctly harmonic

------------
INNER ENERGY
------------

The inner energy is: U= E(el) + E(ZPE) + E(vib) + E(rot) + E(trans)
    E(el)   - is the total energy from the electronic structure calculation
              = E(kin-el) + E(nuc-el) + E(el-el) + E(nuc-nuc)
    E(ZPE)  - the the zero temperature vibrational energy from the frequency calculation
    E(vib)  - the the finite temperature correction to E(ZPE) due to population
              of excietd vibrational states
    E(rot)  - is the rotational thermal energy
    E(trans)- is the translational thermal energy

Summary of contributions to the inner energy U:
Electronic energy                ...   -327.22097677 Eh
Zero point energy                ...      0.17456660 Eh     109.54 kcal/mol
Thermal vibrational correction   ...      0.00564460 Eh       3.54 kcal/mol
Thermal rotational correction    ...      0.00141627 Eh       0.89 kcal/mol
Thermal translational correction ...      0.00141627 Eh       0.89 kcal/mol
-----------------------------------------------------------------------
Total thermal energy                   -327.03793303 Eh

Summary of corrections to the electronic energy:
(perhaps to be used in another calculation)
Total thermal correction                  0.00847714 Eh       5.32 kcal/mol
Non-thermal (ZPE) correction              0.17456660 Eh     109.54 kcal/mol
-----------------------------------------------------------------------
Total correction                          0.18304374 Eh     114.86 kcal/mol

--------
ENTHALPY
--------

The enthalpy is H = U + kB*T
                kB is Boltzmann's constant
Total free energy                 ...   -327.03793303 Eh
Thermal Enthalpy correction       ...      0.00094421 Eh       0.59 kcal/mol
-----------------------------------------------------------------------
Total Enthalpy                    ...   -327.03698883 Eh

-------
ENTROPY
-------

The entropy contributions are T*S = T*(S(el)+S(vib)+S(rot)+S(trans)
     S(el)   - electronic entropy
     S(vib)  - vibrational entropy
     S(rot)  - rotational entropy
     S(trans)- translational entropy
The entropies will be listed as mutliplied by the temperature to get
units of energy

Electronic entropy                ...      0.00000000 Eh      0.00 kcal/mol
Vibrational entropy               ...      0.00972899 Eh      6.11 kcal/mol
Rotational entropy                ...      0.01212474 Eh      7.61 kcal/mol
Translational entropy             ...      0.01890147 Eh     11.86 kcal/mol
-----------------------------------------------------------------------
Final entropy term                ...      0.04075520 Eh     25.57 kcal/mol

CAUTION: The rotational entropy is not quite correctly treated here
         because it includes a symmetry number that is not yet correctly
         implemented in ORCA!
For a nonlinear molecule the correct rotational entropy is:
    S(rot) = R*(ln(qrot/sn)+1.5)
    R    = 8.31441 J/mol/K = 1.987191683e-3 kcal/mol/K
    qrot = 252750.7499605
    sn is the rotational symmetry number. We have assumed 3 here
       if it is different for your molecule then you should correct
       the printed rotational entropy by manually evaluating the equation
       as given above

For convenience we print out the resulting values for sn=1 - 12:
 sn= 1  qrot/sn=  252750.7500 T*S(rot)=     8.26 kcal/mol T*S(tot)=    26.23 kcal/mol
 sn= 2  qrot/sn=  126375.3750 T*S(rot)=     7.85 kcal/mol T*S(tot)=    25.81 kcal/mol
 sn= 3  qrot/sn=   84250.2500 T*S(rot)=     7.61 kcal/mol T*S(tot)=    25.57 kcal/mol
 sn= 4  qrot/sn=   63187.6875 T*S(rot)=     7.44 kcal/mol T*S(tot)=    25.40 kcal/mol
 sn= 5  qrot/sn=   50550.1500 T*S(rot)=     7.31 kcal/mol T*S(tot)=    25.27 kcal/mol
 sn= 6  qrot/sn=   42125.1250 T*S(rot)=     7.20 kcal/mol T*S(tot)=    25.16 kcal/mol
 sn= 7  qrot/sn=   36107.2500 T*S(rot)=     7.11 kcal/mol T*S(tot)=    25.07 kcal/mol
 sn= 8  qrot/sn=   31593.8437 T*S(rot)=     7.03 kcal/mol T*S(tot)=    24.99 kcal/mol
 sn= 9  qrot/sn=   28083.4167 T*S(rot)=     6.96 kcal/mol T*S(tot)=    24.92 kcal/mol
 sn=10  qrot/sn=   25275.0750 T*S(rot)=     6.90 kcal/mol T*S(tot)=    24.86 kcal/mol
 sn=11  qrot/sn=   22977.3409 T*S(rot)=     6.84 kcal/mol T*S(tot)=    24.80 kcal/mol
 sn=12  qrot/sn=   21062.5625 T*S(rot)=     6.79 kcal/mol T*S(tot)=    24.75 kcal/mol

-------------------
GIBBS FREE ENTHALPY
-------------------

The Gibbs free enthalpy is G = H - T*S

Total enthalpy                    ...   -327.03698883 Eh
Total entropy correction          ...     -0.04075520 Eh    -25.57 kcal/mol
-----------------------------------------------------------------------
Final Gibbs free enthalpy         ...   -327.07774403 Eh

For completeness - the Gibbs free enthalpy minus the electronic energy
G-E(el)                           ...      0.14323275 Eh     89.88 kcal/mol

                             ****ORCA TERMINATED NORMALLY****
TOTAL RUN TIME: 0 days 0 hours 58 minutes 10 seconds 235 msec
