                         Program Version 3.0.3 - RELEASE   -
|  1> ! NORI PBE0 def2-TZVP UseSym TightOPT Freq TightSCF Grid3 FinalGrid5 XYZFile
|  2> % pal
|  3>     nprocs 8
|  4> end
|  5> %method
|  6>     SymThresh 5.0e-2
|  7> end
|  8> % geom
|  9>     MaxIter 10
| 10> end
| 11> % maxcore 2000
| 12> % output
| 13>     printlevel mini
| 14>     print[ P_Basis ] 0
| 15>     print[ P_SCFInfo ] 1
| 16>     print[ P_SCFIterInfo ] 1
| 17>     print[ P_OrbEn ] 0
| 18>     print[ P_Cartesian ] 0
| 19> end
| 20> % elprop
| 21>     Dipole false
| 22> end
| 23> *xyz 1 1
| 24>  C        2.9267452416     1.4035796517    -0.5756971187
| 25>  C        2.6747009616    -0.0363235740    -0.1875738508
| 26>  O        3.3723286268    -0.9399861493    -1.0651280784
| 27>  C        3.1030883199    -0.3985260055     1.2406621050
| 28>  C        2.4709832699    -1.7044827441     1.7135086292
| 29>  C        4.6159320317    -0.4019268437     1.4161419609
| 30>  N        5.2302880547    -1.5352967193     0.6444155262
| 31>  H        2.5886899525     1.5888936329    -1.5978677321
| 32>  H        3.9854835832     1.6690669083    -0.5262223477
| 33>  H        2.3684720734     2.0785258567     0.0758844819
| 34>  H        1.6015232519    -0.2447258753    -0.2643888558
| 35>  H        3.0917241361    -0.8056195384    -1.9751089379
| 36>  H        2.7435106547     0.4085754136     1.8868435530
| 37>  H        2.6683421385    -2.5342171071     1.0286800043
| 38>  H        1.3864395103    -1.6010316735     1.7668188811
| 39>  H        2.8176597260    -1.9809032399     2.7125561921
| 40>  H        5.0736756530     0.5121170047     1.0381524769
| 41>  H        4.8970765551    -0.5205431413     2.4627314768
| 42>  H        4.7893660289    -1.5003510021    -0.3028052131
| 43>  H        5.0021631328    -2.4351747382     1.0660523878
| 44>  H        6.2442070974    -1.4577601161     0.5831144591
| 45> *
| 46>
| 47>                          ****END OF INPUT****
 Total Charge           Charge          ....    1
 Multiplicity           Mult            ....    1
 Number of Electrons    NEL             ....   58
FINAL SINGLE POINT ENERGY      -328.452991469234
FINAL SINGLE POINT ENERGY      -328.452993320550
FINAL SINGLE POINT ENERGY      -328.452993640976
FINAL SINGLE POINT ENERGY      -328.452993537395

CARTESIAN COORDINATES (ANGSTROEM)
---------------------------------
  C     -1.560088   -1.562612    0.512109
  C     -1.018150   -0.150839    0.530669
  O     -0.000985    0.001827    1.538644
  C     -0.391173    0.309105   -0.792029
  C     -0.233766    1.825451   -0.853688
  C      0.914381   -0.411928   -1.102619
  N      1.984149    0.001360   -0.131816
  H     -1.999591   -1.816825    1.479383
  H     -0.785550   -2.302464    0.296944
  H     -2.349267   -1.659226   -0.236362
  H     -1.834343    0.543641    0.759687
  H     -0.356120   -0.210551    2.406720
  H     -1.080837    0.003896   -1.585292
  H      0.331006    2.219747   -0.004030
  H     -1.211404    2.307724   -0.823480
  H      0.253814    2.142704   -1.779228
  H      0.816535   -1.493387   -1.010587
  H      1.269121   -0.181299   -2.107329
  H      1.539997   -0.053890    0.812953
  H      2.273235    0.966366   -0.289251
  H      2.808987   -0.593735   -0.187679

FINAL SINGLE POINT ENERGY      -328.452993917511
                    ***********************HURRAY********************
 Multiplicity           Mult            ....    1
 Number of Electrons    NEL             ....   58
 Basis Dimension        Dim             ....  301
FINAL SINGLE POINT ENERGY      -328.452993952090

VIBRATIONAL FREQUENCIES
-----------------------

   0:         0.00 cm**-1
   1:         0.00 cm**-1
   2:         0.00 cm**-1
   3:         0.00 cm**-1
   4:         0.00 cm**-1
   5:         0.00 cm**-1
   6:        74.35 cm**-1
   7:       169.75 cm**-1
   8:       228.82 cm**-1
   9:       237.80 cm**-1
  10:       256.64 cm**-1
  11:       285.42 cm**-1
  12:       306.54 cm**-1
  13:       322.85 cm**-1
  14:       346.43 cm**-1
  15:       376.71 cm**-1
  16:       438.57 cm**-1
  17:       516.82 cm**-1
  18:       671.48 cm**-1
  19:       750.84 cm**-1
  20:       857.54 cm**-1
  21:       875.96 cm**-1
  22:       930.11 cm**-1
  23:       970.95 cm**-1
  24:      1007.11 cm**-1
  25:      1020.98 cm**-1
  26:      1023.77 cm**-1
  27:      1072.62 cm**-1
  28:      1113.91 cm**-1
  29:      1153.83 cm**-1
  30:      1188.40 cm**-1
  31:      1194.38 cm**-1
  32:      1231.15 cm**-1
  33:      1317.83 cm**-1
  34:      1354.41 cm**-1
  35:      1370.02 cm**-1
  36:      1381.23 cm**-1
  37:      1399.39 cm**-1
  38:      1410.79 cm**-1
  39:      1420.29 cm**-1
  40:      1425.37 cm**-1
  41:      1481.98 cm**-1
  42:      1485.53 cm**-1
  43:      1488.16 cm**-1
  44:      1496.54 cm**-1
  45:      1506.48 cm**-1
  46:      1508.81 cm**-1
  47:      1636.54 cm**-1
  48:      1674.85 cm**-1
  49:      3050.42 cm**-1
  50:      3051.64 cm**-1
  51:      3056.72 cm**-1
  52:      3068.10 cm**-1
  53:      3078.60 cm**-1
  54:      3107.89 cm**-1
  55:      3122.20 cm**-1
  56:      3131.70 cm**-1
  57:      3140.73 cm**-1
  58:      3143.78 cm**-1
  59:      3162.23 cm**-1
  60:      3483.21 cm**-1
  61:      3544.32 cm**-1
  62:      3858.00 cm**-1

IR SPECTRUM
-----------

 Mode    freq (cm**-1)   T**2         TX         TY         TZ
-------------------------------------------------------------------
   6:        74.35    8.584119  (  0.629120   2.857690  -0.148114)
   7:       169.75    5.946402  ( -0.498427  -1.648462   1.726426)
   8:       228.82    1.269085  (  0.191185  -0.213591  -1.089455)
   9:       237.80    0.663735  (  0.744010  -0.261820  -0.204044)
  10:       256.64    5.257365  ( -1.812981  -1.386540  -0.219020)
  11:       285.42   17.930677  (  2.430872   3.416711   0.589597)
  12:       306.54   43.887756  ( -0.405225  -6.581500   0.638279)
  13:       322.85  101.244703  (  5.146325  -7.194384  -4.795923)
  14:       346.43   14.301827  ( -2.659781  -1.449358   2.264233)
  15:       376.71    9.776564  ( -2.919446  -0.795167   0.788104)
  16:       438.57   11.751952  ( -1.045656   2.608886  -1.962720)
  17:       516.82    5.566879  (  2.058531   1.152940   0.007605)
  18:       671.48    9.046096  ( -1.191341   1.202018   2.486354)
  19:       750.84    1.157958  (  0.350281   0.140450  -1.007738)
  20:       857.54    9.919314  ( -1.280071  -2.175852   1.883189)
  21:       875.96   21.664898  (  0.586440   0.698129  -4.564384)
  22:       930.11   28.379805  (  4.417666   0.590859   2.918033)
  23:       970.95    0.232705  (  0.014940   0.294210  -0.381999)
  24:      1007.11   24.550173  (  0.515434   0.678987  -4.880930)
  25:      1020.98   10.016222  ( -1.868219   1.411379   2.129316)
  26:      1023.77    7.057509  ( -2.448529  -1.024024  -0.116572)
  27:      1072.62   33.387767  (  5.578661   0.097470   1.502269)
  28:      1113.91   14.627525  (  3.329954  -1.684640   0.837208)
  29:      1153.83   19.677371  (  1.666129  -1.179542  -3.938282)
  30:      1188.40   14.499321  ( -2.786750  -0.693148  -2.500579)
  31:      1194.38    5.832202  (  2.007851  -1.325982  -0.206174)
  32:      1231.15   61.218247  ( -4.617047  -2.695296  -5.712837)
  33:      1317.83    3.719186  (  0.655421   1.294644  -1.270238)
  34:      1354.41   16.735329  (  1.819883   1.886638  -3.140693)
  35:      1370.02    2.545063  (  0.733776  -0.674365  -1.245740)
  36:      1381.23   13.501063  (  3.188163   0.921331   1.577286)
  37:      1399.39    0.574425  (  0.640379   0.358726   0.188826)
  38:      1410.79    8.902562  ( -0.294601   2.958609  -0.249809)
  39:      1420.29   12.569965  (  2.691683   2.087082   0.984326)
  40:      1425.37    9.029897  ( -1.275088  -2.703930   0.304651)
  41:      1481.98   16.031307  (  3.843528   0.750387  -0.833978)
  42:      1485.53    5.596418  ( -1.836257  -0.082531   1.489216)
  43:      1488.16   40.164577  ( -6.030128   0.223471  -1.937060)
  44:      1496.54   42.977775  ( -4.321207  -3.642713  -3.321985)
  45:      1506.48  108.644372  (  9.556024   1.039540   4.030650)
  46:      1508.81   56.476480  (  7.271687  -0.887096  -1.676933)
  47:      1636.54   15.059979  (  1.184612   3.527183  -1.102568)
  48:      1674.85   35.999490  (  4.780240  -3.530704  -0.826394)
  49:      3050.42    9.988374  ( -2.976136  -1.033306  -0.251531)
  50:      3051.64   22.282919  ( -3.441350   2.121611   2.436964)
  51:      3056.72    8.130696  ( -1.081235   2.567951  -0.606013)
  52:      3068.10  427.120821  (-13.607732  -1.875775  15.441241)
  53:      3078.60    6.284664  ( -1.249204   0.938528   1.960438)
  54:      3107.89    8.174622  ( -1.743107  -1.529114   1.672725)
  55:      3122.20    9.667849  ( -0.713078  -0.247182  -3.016334)
  56:      3131.70   17.664137  (  2.822606  -1.070239  -2.924315)
  57:      3140.73    6.733851  (  1.476382  -1.319268   1.677403)
  58:      3143.78    8.506036  ( -2.804218   0.193576   0.777768)
  59:      3162.23    2.279908  (  0.872951  -1.214930  -0.204475)
  60:      3483.21   79.474914  ( -8.139130  -2.651642   2.489632)
  61:      3544.32   87.878710  ( -4.559603   8.187404  -0.234840)
  62:      3858.00   92.980253  (  1.606505   1.113410  -9.442442)

--------------------------
THERMOCHEMISTRY AT 298.15K
--------------------------

Temperature         ... 298.15 K
Pressure            ... 1.00 atm
Total Mass          ... 104.17 AMU

Throughout the following assumptions are being made:
  (1) The electronic state is orbitally nondegenerate
  (2) There are no thermally accessible electronically excited states
  (3) Hindered rotations indicated by low frequency modes) are not
      treated as such but are treated as vibrations and this may
      case some error
  (4) All equations used are the standard statistical mechanics
      equations for an ideal gas
  (5) All vibrations are strinctly harmonic

------------
INNER ENERGY
------------

The inner energy is: U= E(el) + E(ZPE) + E(vib) + E(rot) + E(trans)
    E(el)   - is the total energy from the electronic structure calculation
              = E(kin-el) + E(nuc-el) + E(el-el) + E(nuc-nuc)
    E(ZPE)  - the the zero temperature vibrational energy from the frequency calculation
    E(vib)  - the the finite temperature correction to E(ZPE) due to population
              of excietd vibrational states
    E(rot)  - is the rotational thermal energy
    E(trans)- is the translational thermal energy

Summary of contributions to the inner energy U:
Electronic energy                ...   -328.45299395 Eh
Zero point energy                ...      0.19815844 Eh     124.35 kcal/mol
Thermal vibrational correction   ...      0.00607361 Eh       3.81 kcal/mol
Thermal rotational correction    ...      0.00141627 Eh       0.89 kcal/mol
Thermal translational correction ...      0.00141627 Eh       0.89 kcal/mol
-----------------------------------------------------------------------
Total thermal energy                   -328.24592936 Eh

Summary of corrections to the electronic energy:
(perhaps to be used in another calculation)
Total thermal correction                  0.00890615 Eh       5.59 kcal/mol
Non-thermal (ZPE) correction              0.19815844 Eh     124.35 kcal/mol
-----------------------------------------------------------------------
Total correction                          0.20706459 Eh     129.93 kcal/mol

--------
ENTHALPY
--------

The enthalpy is H = U + kB*T
                kB is Boltzmann's constant
Total free energy                 ...   -328.24592936 Eh
Thermal Enthalpy correction       ...      0.00094421 Eh       0.59 kcal/mol
-----------------------------------------------------------------------
Total Enthalpy                    ...   -328.24498515 Eh

-------
ENTROPY
-------

The entropy contributions are T*S = T*(S(el)+S(vib)+S(rot)+S(trans)
     S(el)   - electronic entropy
     S(vib)  - vibrational entropy
     S(rot)  - rotational entropy
     S(trans)- translational entropy
The entropies will be listed as mutliplied by the temperature to get
units of energy

Electronic entropy                ...      0.00000000 Eh      0.00 kcal/mol
Vibrational entropy               ...      0.01029558 Eh      6.46 kcal/mol
Rotational entropy                ...      0.01213571 Eh      7.62 kcal/mol
Translational entropy             ...      0.01892914 Eh     11.88 kcal/mol
-----------------------------------------------------------------------
Final entropy term                ...      0.04136043 Eh     25.95 kcal/mol

CAUTION: The rotational entropy is not quite correctly treated here
         because it includes a symmetry number that is not yet correctly
         implemented in ORCA!
For a nonlinear molecule the correct rotational entropy is:
    S(rot) = R*(ln(qrot/sn)+1.5)
    R    = 8.31441 J/mol/K = 1.987191683e-3 kcal/mol/K
    qrot = 255704.3398310
    sn is the rotational symmetry number. We have assumed 3 here
       if it is different for your molecule then you should correct
       the printed rotational entropy by manually evaluating the equation
       as given above

For convenience we print out the resulting values for sn=1 - 12:
 sn= 1  qrot/sn=  255704.3398 T*S(rot)=     8.27 kcal/mol T*S(tot)=    26.60 kcal/mol
 sn= 2  qrot/sn=  127852.1699 T*S(rot)=     7.86 kcal/mol T*S(tot)=    26.19 kcal/mol
 sn= 3  qrot/sn=   85234.7799 T*S(rot)=     7.62 kcal/mol T*S(tot)=    25.95 kcal/mol
 sn= 4  qrot/sn=   63926.0850 T*S(rot)=     7.44 kcal/mol T*S(tot)=    25.78 kcal/mol
 sn= 5  qrot/sn=   51140.8680 T*S(rot)=     7.31 kcal/mol T*S(tot)=    25.65 kcal/mol
 sn= 6  qrot/sn=   42617.3900 T*S(rot)=     7.20 kcal/mol T*S(tot)=    25.54 kcal/mol
 sn= 7  qrot/sn=   36529.1914 T*S(rot)=     7.11 kcal/mol T*S(tot)=    25.45 kcal/mol
 sn= 8  qrot/sn=   31963.0425 T*S(rot)=     7.03 kcal/mol T*S(tot)=    25.37 kcal/mol
 sn= 9  qrot/sn=   28411.5933 T*S(rot)=     6.96 kcal/mol T*S(tot)=    25.30 kcal/mol
 sn=10  qrot/sn=   25570.4340 T*S(rot)=     6.90 kcal/mol T*S(tot)=    25.24 kcal/mol
 sn=11  qrot/sn=   23245.8491 T*S(rot)=     6.85 kcal/mol T*S(tot)=    25.18 kcal/mol
 sn=12  qrot/sn=   21308.6950 T*S(rot)=     6.79 kcal/mol T*S(tot)=    25.13 kcal/mol

-------------------
GIBBS FREE ENTHALPY
-------------------

The Gibbs free enthalpy is G = H - T*S

Total enthalpy                    ...   -328.24498515 Eh
Total entropy correction          ...     -0.04136043 Eh    -25.95 kcal/mol
-----------------------------------------------------------------------
Final Gibbs free enthalpy         ...   -328.28634559 Eh

For completeness - the Gibbs free enthalpy minus the electronic energy
G-E(el)                           ...      0.16664836 Eh    104.57 kcal/mol

                             ****ORCA TERMINATED NORMALLY****
TOTAL RUN TIME: 0 days 1 hours 7 minutes 57 seconds 658 msec
