                         Program Version 3.0.3 - RELEASE   -
|  1> ! NORI PBE0 def2-TZVP UseSym TightOPT Freq TightSCF Grid3 FinalGrid5 XYZFile
|  2> % pal
|  3>     nprocs 8
|  4> end
|  5> %method
|  6>     SymThresh 5.0e-2
|  7> end
|  8> % geom
|  9>     MaxIter 10
| 10> end
| 11> % maxcore 2000
| 12> % output
| 13>     printlevel mini
| 14>     print[ P_Basis ] 0
| 15>     print[ P_SCFInfo ] 1
| 16>     print[ P_SCFIterInfo ] 1
| 17>     print[ P_OrbEn ] 0
| 18>     print[ P_Cartesian ] 0
| 19> end
| 20> % elprop
| 21>     Dipole false
| 22> end
| 23> *xyz 1 1
| 24>  C        3.7022980283    -1.1805986807    -0.1485054544
| 25>  C        2.8415095372     0.0035536590     0.2404961815
| 26>  O        1.5266218754    -0.1135442320    -0.2832255935
| 27>  C        2.6185973993     0.2048712309     1.7542597318
| 28>  C        1.9340761057     1.5351313359     2.0221747497
| 29>  C        3.8706830137     0.0370215504     2.5880742295
| 30>  N        1.6230245874    -0.8796412919     2.1432926242
| 31>  H        3.7445986646    -1.2585927272    -1.2372468902
| 32>  H        3.3056898596    -2.1300701966     0.2244361639
| 33>  H        4.7287825594    -1.0673141055     0.2013410812
| 34>  H        3.3109304388     0.9271399534    -0.1198773269
| 35>  H        1.5518081031    -0.2543611694    -1.2340895261
| 36>  H        1.0326567797     1.6528723315     1.4199997668
| 37>  H        2.6176512909     2.3454759191     1.7668279532
| 38>  H        1.6821399373     1.6450380772     3.0801571404
| 39>  H        4.6234461172     0.7555249103     2.2592343364
| 40>  H        4.3050178205    -0.9612625031     2.5008913637
| 41>  H        3.6686446997     0.2399810816     3.6424100973
| 42>  H        0.9221357711    -0.9094651272     1.3877770848
| 43>  H        1.1729026284    -0.6726265656     3.0345125144
| 44>  H        2.0662147828    -1.7960534502     2.2082997721
| 45> *
| 46>
| 47>                          ****END OF INPUT****
 Total Charge           Charge          ....    1
 Multiplicity           Mult            ....    1
 Number of Electrons    NEL             ....   58
FINAL SINGLE POINT ENERGY      -328.453044328887
FINAL SINGLE POINT ENERGY      -328.453047710816
FINAL SINGLE POINT ENERGY      -328.453050020114

CARTESIAN COORDINATES (ANGSTROEM)
---------------------------------
  C     -0.886807   -1.817735    0.437841
  C     -0.708347   -0.321816    0.597301
  O      0.003714   -0.003998    1.784363
  C      0.096829    0.381691   -0.515611
  C      0.010717    1.891911   -0.368176
  C     -0.267023   -0.067403   -1.914742
  N      1.545691    0.000447   -0.240460
  H     -1.419871   -2.215858    1.304020
  H      0.066115   -2.352164    0.375543
  H     -1.483479   -2.060720   -0.441909
  H     -1.692808    0.161295    0.606815
  H     -0.421145   -0.399038    2.551108
  H      0.279398    2.218128    0.637376
  H     -1.013968    2.210723   -0.562087
  H      0.650082    2.397365   -1.097013
  H     -1.326918    0.122015   -2.092039
  H     -0.089288   -1.132870   -2.074087
  H      0.292676    0.497081   -2.663836
  H      1.666581    0.054471    0.782006
  H      2.195061    0.633543   -0.706047
  H      1.750620   -0.952789   -0.540425

FINAL SINGLE POINT ENERGY      -328.453050622993
                    ***********************HURRAY********************
 Multiplicity           Mult            ....    1
 Number of Electrons    NEL             ....   58
 Basis Dimension        Dim             ....  301
FINAL SINGLE POINT ENERGY      -328.453050924165

VIBRATIONAL FREQUENCIES
-----------------------

   0:         0.00 cm**-1
   1:         0.00 cm**-1
   2:         0.00 cm**-1
   3:         0.00 cm**-1
   4:         0.00 cm**-1
   5:         0.00 cm**-1
   6:       108.89 cm**-1
   7:       214.59 cm**-1
   8:       229.17 cm**-1
   9:       237.51 cm**-1
  10:       250.71 cm**-1
  11:       288.73 cm**-1
  12:       297.79 cm**-1
  13:       313.14 cm**-1
  14:       346.71 cm**-1
  15:       374.51 cm**-1
  16:       385.24 cm**-1
  17:       443.40 cm**-1
  18:       491.95 cm**-1
  19:       580.82 cm**-1
  20:       711.23 cm**-1
  21:       832.06 cm**-1
  22:       917.31 cm**-1
  23:       937.08 cm**-1
  24:       955.40 cm**-1
  25:       964.99 cm**-1
  26:      1006.68 cm**-1
  27:      1034.46 cm**-1
  28:      1050.77 cm**-1
  29:      1125.20 cm**-1
  30:      1141.35 cm**-1
  31:      1172.49 cm**-1
  32:      1256.66 cm**-1
  33:      1286.77 cm**-1
  34:      1314.92 cm**-1
  35:      1366.11 cm**-1
  36:      1399.94 cm**-1
  37:      1411.74 cm**-1
  38:      1420.49 cm**-1
  39:      1422.51 cm**-1
  40:      1458.50 cm**-1
  41:      1470.08 cm**-1
  42:      1479.26 cm**-1
  43:      1486.03 cm**-1
  44:      1492.62 cm**-1
  45:      1497.38 cm**-1
  46:      1510.07 cm**-1
  47:      1631.60 cm**-1
  48:      1662.43 cm**-1
  49:      3045.86 cm**-1
  50:      3054.03 cm**-1
  51:      3059.71 cm**-1
  52:      3063.01 cm**-1
  53:      3125.39 cm**-1
  54:      3137.54 cm**-1
  55:      3140.75 cm**-1
  56:      3149.06 cm**-1
  57:      3151.94 cm**-1
  58:      3160.52 cm**-1
  59:      3326.11 cm**-1
  60:      3483.20 cm**-1
  61:      3536.85 cm**-1
  62:      3863.66 cm**-1

IR SPECTRUM
-----------

 Mode    freq (cm**-1)   T**2         TX         TY         TZ
-------------------------------------------------------------------
   6:       108.89    6.471807  (  0.383356  -2.321370  -0.967516)
   7:       214.59    4.791747  (  0.453201  -2.096277   0.438153)
   8:       229.17    4.024464  ( -1.311321   1.275654   0.823170)
   9:       237.51    4.202502  (  0.495596  -1.985438   0.122164)
  10:       250.71    3.470273  ( -1.244453  -0.971356   0.988978)
  11:       288.73    7.979139  (  0.476884  -2.728351  -0.554814)
  12:       297.79   97.186787  (  5.053713  -7.931043  -2.957251)
  13:       313.14   17.689258  ( -2.170519  -2.609517   2.483652)
  14:       346.71    6.008853  (  0.591990  -1.748188  -1.613145)
  15:       374.51   20.383723  ( -1.508373  -0.281878   4.246066)
  16:       385.24    8.440578  ( -2.021727   1.829183  -1.003638)
  17:       443.40    0.028663  (  0.065491  -0.040809   0.150694)
  18:       491.95    4.666187  (  0.497340  -1.790812   1.100834)
  19:       580.82    4.998226  ( -1.520232  -0.973971  -1.318523)
  20:       711.23    2.513799  (  1.134622   0.377574   1.041091)
  21:       832.06    5.045922  (  0.734277  -0.937107   1.904886)
  22:       917.31   10.787976  (  2.804833   1.588248   0.631155)
  23:       937.08   22.828934  ( -0.336178   0.119272  -4.764629)
  24:       955.40    4.330033  ( -0.267824   0.781883   1.909702)
  25:       964.99   11.305604  (  0.525894  -1.612880  -2.903043)
  26:      1006.68    1.679566  ( -0.853147   0.815455  -0.535482)
  27:      1034.46    8.979131  ( -1.611517   0.568814  -2.461422)
  28:      1050.77   32.939278  ( -0.387547  -0.935872   5.649180)
  29:      1125.20   11.538837  (  2.833111  -1.296172   1.353610)
  30:      1141.35   73.470588  ( -3.643895  -2.216311  -7.435091)
  31:      1172.49   34.668285  ( -4.806056  -1.370064  -3.113364)
  32:      1256.66   33.838768  (  1.313080   4.833258   2.958751)
  33:      1286.77   14.639534  (  2.220386   2.528738  -1.820689)
  34:      1314.92    8.154125  (  0.475325  -0.215474  -2.807448)
  35:      1366.11    3.304486  ( -1.425874  -0.132575  -1.119729)
  36:      1399.94    5.829719  (  0.107378  -0.420178  -2.375214)
  37:      1411.74   21.265437  ( -0.736449   4.126764   1.921691)
  38:      1420.49   16.011290  (  0.616484   3.953481   0.035008)
  39:      1422.51   69.895868  ( -7.513440   1.769316  -3.211481)
  40:      1458.50  117.616742  (-10.689576   0.013214   1.830175)
  41:      1470.08   14.258157  ( -3.742830  -0.110277  -0.487049)
  42:      1479.26    4.077890  ( -1.486564  -1.321382  -0.349235)
  43:      1486.03   22.273650  ( -3.781673   0.416311  -2.792720)
  44:      1492.62   32.660772  (  5.641762  -0.864394  -0.290021)
  45:      1497.38   12.399491  (  2.861550  -1.440323   1.461674)
  46:      1510.07    4.359592  (  1.723977   0.675408  -0.965048)
  47:      1631.60   32.498392  ( -1.075699   4.792776   2.893192)
  48:      1662.43   48.039907  (  3.165162   4.226930  -4.489401)
  49:      3045.86    2.981871  (  0.887128  -0.479925   1.401623)
  50:      3054.03   12.918142  (  2.866654  -2.078614   0.616279)
  51:      3059.71    2.535694  (  0.121145   1.578005  -0.175838)
  52:      3063.01    4.549224  (  1.664455   0.098599  -1.330072)
  53:      3125.39    9.976344  ( -2.936751   0.502828   1.048332)
  54:      3137.54    4.406430  (  0.313997  -1.981800   0.616688)
  55:      3140.75    6.631745  ( -1.050875  -1.689272   1.635166)
  56:      3149.06    2.447994  (  1.217368  -0.705983  -0.683811)
  57:      3151.94    4.015609  ( -1.105549  -0.231854  -1.655178)
  58:      3160.52    1.208914  (  0.703808   0.522651   0.663630)
  59:      3326.11  107.695555  (  0.170757  -0.842823  10.341956)
  60:      3483.20   76.153798  (  5.456899  -1.522144  -6.637705)
  61:      3536.85   69.801383  (  3.327092   7.543675  -1.350856)
  62:      3863.66  104.351263  ( -2.608985  -2.355069   9.591564)

--------------------------
THERMOCHEMISTRY AT 298.15K
--------------------------

Temperature         ... 298.15 K
Pressure            ... 1.00 atm
Total Mass          ... 104.17 AMU

Throughout the following assumptions are being made:
  (1) The electronic state is orbitally nondegenerate
  (2) There are no thermally accessible electronically excited states
  (3) Hindered rotations indicated by low frequency modes) are not
      treated as such but are treated as vibrations and this may
      case some error
  (4) All equations used are the standard statistical mechanics
      equations for an ideal gas
  (5) All vibrations are strinctly harmonic

------------
INNER ENERGY
------------

The inner energy is: U= E(el) + E(ZPE) + E(vib) + E(rot) + E(trans)
    E(el)   - is the total energy from the electronic structure calculation
              = E(kin-el) + E(nuc-el) + E(el-el) + E(nuc-nuc)
    E(ZPE)  - the the zero temperature vibrational energy from the frequency calculation
    E(vib)  - the the finite temperature correction to E(ZPE) due to population
              of excietd vibrational states
    E(rot)  - is the rotational thermal energy
    E(trans)- is the translational thermal energy

Summary of contributions to the inner energy U:
Electronic energy                ...   -328.45305092 Eh
Zero point energy                ...      0.19655328 Eh     123.34 kcal/mol
Thermal vibrational correction   ...      0.00635470 Eh       3.99 kcal/mol
Thermal rotational correction    ...      0.00141627 Eh       0.89 kcal/mol
Thermal translational correction ...      0.00141627 Eh       0.89 kcal/mol
-----------------------------------------------------------------------
Total thermal energy                   -328.24731040 Eh

Summary of corrections to the electronic energy:
(perhaps to be used in another calculation)
Total thermal correction                  0.00918724 Eh       5.77 kcal/mol
Non-thermal (ZPE) correction              0.19655328 Eh     123.34 kcal/mol
-----------------------------------------------------------------------
Total correction                          0.20574052 Eh     129.10 kcal/mol

--------
ENTHALPY
--------

The enthalpy is H = U + kB*T
                kB is Boltzmann's constant
Total free energy                 ...   -328.24731040 Eh
Thermal Enthalpy correction       ...      0.00094421 Eh       0.59 kcal/mol
-----------------------------------------------------------------------
Total Enthalpy                    ...   -328.24636619 Eh

-------
ENTROPY
-------

The entropy contributions are T*S = T*(S(el)+S(vib)+S(rot)+S(trans)
     S(el)   - electronic entropy
     S(vib)  - vibrational entropy
     S(rot)  - rotational entropy
     S(trans)- translational entropy
The entropies will be listed as mutliplied by the temperature to get
units of energy

Electronic entropy                ...      0.00000000 Eh      0.00 kcal/mol
Vibrational entropy               ...      0.01038082 Eh      6.51 kcal/mol
Rotational entropy                ...      0.01206557 Eh      7.57 kcal/mol
Translational entropy             ...      0.01892914 Eh     11.88 kcal/mol
-----------------------------------------------------------------------
Final entropy term                ...      0.04137554 Eh     25.96 kcal/mol

CAUTION: The rotational entropy is not quite correctly treated here
         because it includes a symmetry number that is not yet correctly
         implemented in ORCA!
For a nonlinear molecule the correct rotational entropy is:
    S(rot) = R*(ln(qrot/sn)+1.5)
    R    = 8.31441 J/mol/K = 1.987191683e-3 kcal/mol/K
    qrot = 237396.3743141
    sn is the rotational symmetry number. We have assumed 3 here
       if it is different for your molecule then you should correct
       the printed rotational entropy by manually evaluating the equation
       as given above

For convenience we print out the resulting values for sn=1 - 12:
 sn= 1  qrot/sn=  237396.3743 T*S(rot)=     8.22 kcal/mol T*S(tot)=    26.61 kcal/mol
 sn= 2  qrot/sn=  118698.1872 T*S(rot)=     7.81 kcal/mol T*S(tot)=    26.20 kcal/mol
 sn= 3  qrot/sn=   79132.1248 T*S(rot)=     7.57 kcal/mol T*S(tot)=    25.96 kcal/mol
 sn= 4  qrot/sn=   59349.0936 T*S(rot)=     7.40 kcal/mol T*S(tot)=    25.79 kcal/mol
 sn= 5  qrot/sn=   47479.2749 T*S(rot)=     7.27 kcal/mol T*S(tot)=    25.66 kcal/mol
 sn= 6  qrot/sn=   39566.0624 T*S(rot)=     7.16 kcal/mol T*S(tot)=    25.55 kcal/mol
 sn= 7  qrot/sn=   33913.7678 T*S(rot)=     7.07 kcal/mol T*S(tot)=    25.46 kcal/mol
 sn= 8  qrot/sn=   29674.5468 T*S(rot)=     6.99 kcal/mol T*S(tot)=    25.38 kcal/mol
 sn= 9  qrot/sn=   26377.3749 T*S(rot)=     6.92 kcal/mol T*S(tot)=    25.31 kcal/mol
 sn=10  qrot/sn=   23739.6374 T*S(rot)=     6.86 kcal/mol T*S(tot)=    25.25 kcal/mol
 sn=11  qrot/sn=   21581.4886 T*S(rot)=     6.80 kcal/mol T*S(tot)=    25.19 kcal/mol
 sn=12  qrot/sn=   19783.0312 T*S(rot)=     6.75 kcal/mol T*S(tot)=    25.14 kcal/mol

-------------------
GIBBS FREE ENTHALPY
-------------------

The Gibbs free enthalpy is G = H - T*S

Total enthalpy                    ...   -328.24636619 Eh
Total entropy correction          ...     -0.04137554 Eh    -25.96 kcal/mol
-----------------------------------------------------------------------
Final Gibbs free enthalpy         ...   -328.28774173 Eh

For completeness - the Gibbs free enthalpy minus the electronic energy
G-E(el)                           ...      0.16530919 Eh    103.73 kcal/mol

                             ****ORCA TERMINATED NORMALLY****
TOTAL RUN TIME: 0 days 1 hours 8 minutes 41 seconds 624 msec
