                         Program Version 3.0.3 - RELEASE   -
|  1> ! NORI PBE0 def2-TZVP UseSym TightOPT Freq TightSCF Grid3 FinalGrid5 XYZFile
|  2> % pal
|  3>     nprocs 8
|  4> end
|  5> %method
|  6>     SymThresh 5.0e-2
|  7> end
|  8> % geom
|  9>     MaxIter 10
| 10> end
| 11> % maxcore 2000
| 12> % output
| 13>     printlevel mini
| 14>     print[ P_Basis ] 0
| 15>     print[ P_SCFInfo ] 1
| 16>     print[ P_SCFIterInfo ] 1
| 17>     print[ P_OrbEn ] 0
| 18>     print[ P_Cartesian ] 0
| 19> end
| 20> % elprop
| 21>     Dipole false
| 22> end
| 23> *xyz 1 1
| 24>  C        1.5513953790     0.6257940259    -0.5442610404
| 25>  C        2.8874557183     0.2236877347    -0.1274434727
| 26>  O        3.8209412402     0.2202224883    -0.9910685776
| 27>  C        3.3765239848    -0.2086378737     1.1862567769
| 28>  C        4.8730528019    -0.2463884912     0.9772704112
| 29>  N        5.0264218142    -0.2681279982    -0.4352153722
| 30>  N        5.7339034877    -0.3052466634     1.8736126806
| 31>  H        1.5166492188     0.8933070073    -1.5984959317
| 32>  H        1.2241856348     1.4666856414     0.0782255196
| 33>  H        0.8528404303    -0.1936612200    -0.3346179146
| 34>  H        2.9946437419    -1.2196139320     1.3964319397
| 35>  H        3.0461128188     0.4276608755     2.0103018857
| 36>  H        5.7796980657     0.2594632966    -0.8686768394
| 37>  H        6.7014256636    -0.3532248913     1.5608499346
| 38> *
| 39>
| 40>                          ****END OF INPUT****
 Total Charge           Charge          ....    1
 Multiplicity           Mult            ....    1
 Number of Electrons    NEL             ....   52
FINAL SINGLE POINT ENERGY      -340.762412290267

CARTESIAN COORDINATES (ANGSTROEM)
---------------------------------
  C     -2.320158    0.280598    1.026244
  C     -0.979895    0.177350    0.466311
  O     -0.000038    0.000504    1.257448
  C     -0.531093    0.250057   -0.928339
  C      0.919401   -0.162138   -0.822973
  N      1.227606   -0.000101    0.554719
  N      1.652281   -0.501721   -1.769476
  H     -2.317594    0.183499    2.110142
  H     -2.954281   -0.489232    0.571282
  H     -2.755213    1.242760    0.729868
  H     -0.607472    1.291960   -1.276223
  H     -1.128785   -0.353278   -1.615407
  H      1.827140   -0.676720    1.019904
  H      2.616642   -0.722504   -1.530305

FINAL SINGLE POINT ENERGY      -340.762412611150
                    ***********************HURRAY********************
 Multiplicity           Mult            ....    1
 Number of Electrons    NEL             ....   52
 Basis Dimension        Dim             ....  259
FINAL SINGLE POINT ENERGY      -340.762412736338

VIBRATIONAL FREQUENCIES
-----------------------

   0:         0.00 cm**-1
   1:         0.00 cm**-1
   2:         0.00 cm**-1
   3:         0.00 cm**-1
   4:         0.00 cm**-1
   5:         0.00 cm**-1
   6:        93.89 cm**-1
   7:       114.09 cm**-1
   8:       297.75 cm**-1
   9:       306.72 cm**-1
  10:       421.26 cm**-1
  11:       466.60 cm**-1
  12:       514.64 cm**-1
  13:       599.84 cm**-1
  14:       638.69 cm**-1
  15:       746.52 cm**-1
  16:       842.78 cm**-1
  17:       873.63 cm**-1
  18:       888.49 cm**-1
  19:       926.39 cm**-1
  20:       969.79 cm**-1
  21:      1006.06 cm**-1
  22:      1023.79 cm**-1
  23:      1054.81 cm**-1
  24:      1162.09 cm**-1
  25:      1217.44 cm**-1
  26:      1268.60 cm**-1
  27:      1354.72 cm**-1
  28:      1370.02 cm**-1
  29:      1398.85 cm**-1
  30:      1430.32 cm**-1
  31:      1432.59 cm**-1
  32:      1469.35 cm**-1
  33:      1584.58 cm**-1
  34:      1829.87 cm**-1
  35:      3025.88 cm**-1
  36:      3043.31 cm**-1
  37:      3098.82 cm**-1
  38:      3124.79 cm**-1
  39:      3183.69 cm**-1
  40:      3531.06 cm**-1
  41:      3543.49 cm**-1

IR SPECTRUM
-----------

 Mode    freq (cm**-1)   T**2         TX         TY         TZ
-------------------------------------------------------------------
   6:        93.89    0.813240  ( -0.666907   0.361138   0.487909)
   7:       114.09    5.142936  ( -1.403255  -1.741156   0.377074)
   8:       297.75    6.368884  (  1.298673   2.086058   0.575058)
   9:       306.72    4.411551  ( -1.369851  -0.697516   1.431269)
  10:       421.26   15.085256  (  2.050572   2.868416   1.628681)
  11:       466.60   21.711406  (  4.034389  -1.491357  -1.791917)
  12:       514.64   38.308772  (  4.427112   3.529692   2.500146)
  13:       599.84    4.327401  (  0.950760   1.465201  -1.129886)
  14:       638.69   81.863824  (  3.377198   2.439849   8.031531)
  15:       746.52   35.856476  (  2.693311   2.334365   4.811786)
  16:       842.78    6.541425  ( -0.827146  -2.415439  -0.151349)
  17:       873.63   28.384552  ( -4.953462  -0.408989   1.918462)
  18:       888.49   61.742055  ( -2.299545  -7.497968   0.484384)
  19:       926.39    8.419934  (  1.981099  -0.595423  -2.034859)
  20:       969.79   23.083499  (  3.169211   3.535971  -0.732470)
  21:      1006.06    2.791115  ( -1.224485  -0.832997   0.773219)
  22:      1023.79   14.170519  ( -2.120594  -0.503185   3.069268)
  23:      1054.81   82.566101  ( -3.676379   4.533173   6.964243)
  24:      1162.09    3.298221  ( -0.905629   1.561315  -0.200880)
  25:      1217.44    4.509001  ( -1.707539   0.813731   0.964962)
  26:      1268.60  107.768560  (  6.999730  -1.537306  -7.510595)
  27:      1354.72   49.956390  ( -5.192879   0.841435  -4.720422)
  28:      1370.02   83.355374  (  3.709401  -2.279959   8.024806)
  29:      1398.85   21.808310  (  2.564789  -0.286520  -3.892052)
  30:      1430.32   47.707737  (  6.293738  -2.162876  -1.848937)
  31:      1432.59   22.605434  (  2.814160   3.822389   0.274369)
  32:      1469.35   56.379660  (  4.148511   0.358876  -6.248257)
  33:      1584.58   76.481752  (  8.468895  -1.201689   1.820856)
  34:      1829.87  171.671565  (  8.164793  -3.690756  -9.559604)
  35:      3025.88   42.333204  (  1.364340   3.675267  -5.192706)
  36:      3043.31   42.341572  ( -6.212688   1.824155   0.645393)
  37:      3098.82   11.186552  (  0.321694   3.326031  -0.143459)
  38:      3124.79   26.168855  (  1.844603   3.255926   3.487870)
  39:      3183.69    7.694607  ( -1.916263   0.321053  -1.979765)
  40:      3531.06   58.723909  (  6.986745  -2.019289  -2.414907)
  41:      3543.49  110.141933  ( -7.081197   5.625686  -5.324494)

--------------------------
THERMOCHEMISTRY AT 298.15K
--------------------------

Temperature         ... 298.15 K
Pressure            ... 1.00 atm
Total Mass          ... 99.11 AMU

Throughout the following assumptions are being made:
  (1) The electronic state is orbitally nondegenerate
  (2) There are no thermally accessible electronically excited states
  (3) Hindered rotations indicated by low frequency modes) are not
      treated as such but are treated as vibrations and this may
      case some error
  (4) All equations used are the standard statistical mechanics
      equations for an ideal gas
  (5) All vibrations are strinctly harmonic

------------
INNER ENERGY
------------

The inner energy is: U= E(el) + E(ZPE) + E(vib) + E(rot) + E(trans)
    E(el)   - is the total energy from the electronic structure calculation
              = E(kin-el) + E(nuc-el) + E(el-el) + E(nuc-nuc)
    E(ZPE)  - the the zero temperature vibrational energy from the frequency calculation
    E(vib)  - the the finite temperature correction to E(ZPE) due to population
              of excietd vibrational states
    E(rot)  - is the rotational thermal energy
    E(trans)- is the translational thermal energy

Summary of contributions to the inner energy U:
Electronic energy                ...   -340.76241274 Eh
Zero point energy                ...      0.11357855 Eh      71.27 kcal/mol
Thermal vibrational correction   ...      0.00390592 Eh       2.45 kcal/mol
Thermal rotational correction    ...      0.00141627 Eh       0.89 kcal/mol
Thermal translational correction ...      0.00141627 Eh       0.89 kcal/mol
-----------------------------------------------------------------------
Total thermal energy                   -340.64209573 Eh

Summary of corrections to the electronic energy:
(perhaps to be used in another calculation)
Total thermal correction                  0.00673846 Eh       4.23 kcal/mol
Non-thermal (ZPE) correction              0.11357855 Eh      71.27 kcal/mol
-----------------------------------------------------------------------
Total correction                          0.12031701 Eh      75.50 kcal/mol

--------
ENTHALPY
--------

The enthalpy is H = U + kB*T
                kB is Boltzmann's constant
Total free energy                 ...   -340.64209573 Eh
Thermal Enthalpy correction       ...      0.00094421 Eh       0.59 kcal/mol
-----------------------------------------------------------------------
Total Enthalpy                    ...   -340.64115152 Eh

-------
ENTROPY
-------

The entropy contributions are T*S = T*(S(el)+S(vib)+S(rot)+S(trans)
     S(el)   - electronic entropy
     S(vib)  - vibrational entropy
     S(rot)  - rotational entropy
     S(trans)- translational entropy
The entropies will be listed as mutliplied by the temperature to get
units of energy

Electronic entropy                ...      0.00000000 Eh      0.00 kcal/mol
Vibrational entropy               ...      0.00671299 Eh      4.21 kcal/mol
Rotational entropy                ...      0.01180687 Eh      7.41 kcal/mol
Translational entropy             ...      0.01885862 Eh     11.83 kcal/mol
-----------------------------------------------------------------------
Final entropy term                ...      0.03737849 Eh     23.46 kcal/mol

CAUTION: The rotational entropy is not quite correctly treated here
         because it includes a symmetry number that is not yet correctly
         implemented in ORCA!
For a nonlinear molecule the correct rotational entropy is:
    S(rot) = R*(ln(qrot/sn)+1.5)
    R    = 8.31441 J/mol/K = 1.987191683e-3 kcal/mol/K
    qrot = 180501.3835918
    sn is the rotational symmetry number. We have assumed 3 here
       if it is different for your molecule then you should correct
       the printed rotational entropy by manually evaluating the equation
       as given above

For convenience we print out the resulting values for sn=1 - 12:
 sn= 1  qrot/sn=  180501.3836 T*S(rot)=     8.06 kcal/mol T*S(tot)=    24.11 kcal/mol
 sn= 2  qrot/sn=   90250.6918 T*S(rot)=     7.65 kcal/mol T*S(tot)=    23.70 kcal/mol
 sn= 3  qrot/sn=   60167.1279 T*S(rot)=     7.41 kcal/mol T*S(tot)=    23.46 kcal/mol
 sn= 4  qrot/sn=   45125.3459 T*S(rot)=     7.24 kcal/mol T*S(tot)=    23.28 kcal/mol
 sn= 5  qrot/sn=   36100.2767 T*S(rot)=     7.11 kcal/mol T*S(tot)=    23.15 kcal/mol
 sn= 6  qrot/sn=   30083.5639 T*S(rot)=     7.00 kcal/mol T*S(tot)=    23.04 kcal/mol
 sn= 7  qrot/sn=   25785.9119 T*S(rot)=     6.91 kcal/mol T*S(tot)=    22.95 kcal/mol
 sn= 8  qrot/sn=   22562.6729 T*S(rot)=     6.83 kcal/mol T*S(tot)=    22.87 kcal/mol
 sn= 9  qrot/sn=   20055.7093 T*S(rot)=     6.76 kcal/mol T*S(tot)=    22.80 kcal/mol
 sn=10  qrot/sn=   18050.1384 T*S(rot)=     6.70 kcal/mol T*S(tot)=    22.74 kcal/mol
 sn=11  qrot/sn=   16409.2167 T*S(rot)=     6.64 kcal/mol T*S(tot)=    22.69 kcal/mol
 sn=12  qrot/sn=   15041.7820 T*S(rot)=     6.59 kcal/mol T*S(tot)=    22.63 kcal/mol

-------------------
GIBBS FREE ENTHALPY
-------------------

The Gibbs free enthalpy is G = H - T*S

Total enthalpy                    ...   -340.64115152 Eh
Total entropy correction          ...     -0.03737849 Eh    -23.46 kcal/mol
-----------------------------------------------------------------------
Final Gibbs free enthalpy         ...   -340.67853000 Eh

For completeness - the Gibbs free enthalpy minus the electronic energy
G-E(el)                           ...      0.08388273 Eh     52.64 kcal/mol

                             ****ORCA TERMINATED NORMALLY****
TOTAL RUN TIME: 0 days 0 hours 34 minutes 37 seconds 929 msec
