                         Program Version 3.0.3 - RELEASE   -
|  1> ! NORI PBE0 def2-TZVP UseSym TightOPT Freq TightSCF Grid3 FinalGrid5 XYZFile
|  2> % pal
|  3>     nprocs 8
|  4> end
|  5> %method
|  6>     SymThresh 5.0e-2
|  7> end
|  8> % geom
|  9>     MaxIter 10
| 10> end
| 11> % maxcore 2000
| 12> % output
| 13>     printlevel mini
| 14>     print[ P_Basis ] 0
| 15>     print[ P_SCFInfo ] 1
| 16>     print[ P_SCFIterInfo ] 1
| 17>     print[ P_OrbEn ] 0
| 18>     print[ P_Cartesian ] 0
| 19> end
| 20> % elprop
| 21>     Dipole false
| 22> end
| 23> *xyz 1 1
| 24>  C        2.8679918560    -1.5229952812    -1.5716868621
| 25>  C        2.6604457202    -0.1006250390    -1.1516193389
| 26>  O        1.8767595033     0.6474537876    -1.6585852387
| 27>  C        3.4583489130     0.4300454981     0.0507241440
| 28>  N        4.8569297281    -0.0349554803     0.0969111365
| 29>  C        5.9125963900     0.6444346864    -0.6882863210
| 30>  C        5.9067506446     0.7578069793     0.7779414842
| 31>  H        2.1329994710    -1.7854860537    -2.3302815028
| 32>  H        2.7670933139    -2.2034620816    -0.7192602302
| 33>  H        3.8669420780    -1.6644361876    -1.9994723069
| 34>  H        2.9714193717     0.1092130863     0.9766829122
| 35>  H        3.4585905097     1.5193477041     0.0139574516
| 36>  H        4.9625229434    -1.0419559754     0.1783244973
| 37>  H        5.5460064075     1.4699272580    -1.2859219692
| 38>  H        6.6197984912    -0.0193202429    -1.1697668444
| 39>  H        5.5369638617     1.6643087734     1.2396634194
| 40>  H        6.6065207966     0.1731785685     1.3618655689
| 41> *
| 42>
| 43>                          ****END OF INPUT****
 Total Charge           Charge          ....    1
 Multiplicity           Mult            ....    1
 Number of Electrons    NEL             ....   54
FINAL SINGLE POINT ENERGY      -325.973101786991
FINAL SINGLE POINT ENERGY      -325.973102929540
FINAL SINGLE POINT ENERGY      -325.973103748292
FINAL SINGLE POINT ENERGY      -325.973104650085

CARTESIAN COORDINATES (ANGSTROEM)
---------------------------------
  C     -1.377579   -1.362311    0.970105
  C     -0.210590   -0.480835    1.294434
  O      0.007021   -0.017146    2.375181
  C      0.818253   -0.194360    0.188581
  N      0.226286   -0.001629   -1.148574
  C     -0.313132    1.314383   -1.560548
  C      0.916925    0.803411   -2.183515
  H     -1.915528   -1.599535    1.885864
  H     -1.049860   -2.291745    0.492107
  H     -2.071128   -0.857991    0.287860
  H      1.519441   -1.031778    0.123641
  H      1.371684    0.706428    0.452198
  H     -0.283356   -0.805656   -1.502112
  H     -0.241000    2.071748   -0.789928
  H     -1.246278    1.272784   -2.107534
  H      1.875187    1.191866   -1.863424
  H      0.878262    0.385870   -3.181528

FINAL SINGLE POINT ENERGY      -325.973105517458
                    ***********************HURRAY********************
 Multiplicity           Mult            ....    1
 Number of Electrons    NEL             ....   54
 Basis Dimension        Dim             ....  277
FINAL SINGLE POINT ENERGY      -325.973105799847

VIBRATIONAL FREQUENCIES
-----------------------

   0:         0.00 cm**-1
   1:         0.00 cm**-1
   2:         0.00 cm**-1
   3:         0.00 cm**-1
   4:         0.00 cm**-1
   5:         0.00 cm**-1
   6:        35.66 cm**-1
   7:        72.80 cm**-1
   8:       130.35 cm**-1
   9:       159.72 cm**-1
  10:       316.45 cm**-1
  11:       356.23 cm**-1
  12:       419.32 cm**-1
  13:       499.69 cm**-1
  14:       539.97 cm**-1
  15:       770.91 cm**-1
  16:       797.49 cm**-1
  17:       816.62 cm**-1
  18:       865.75 cm**-1
  19:       883.69 cm**-1
  20:       944.64 cm**-1
  21:      1005.78 cm**-1
  22:      1021.68 cm**-1
  23:      1077.19 cm**-1
  24:      1145.23 cm**-1
  25:      1153.72 cm**-1
  26:      1172.70 cm**-1
  27:      1180.90 cm**-1
  28:      1213.93 cm**-1
  29:      1236.17 cm**-1
  30:      1271.87 cm**-1
  31:      1308.17 cm**-1
  32:      1347.82 cm**-1
  33:      1386.40 cm**-1
  34:      1446.59 cm**-1
  35:      1456.25 cm**-1
  36:      1462.09 cm**-1
  37:      1473.41 cm**-1
  38:      1479.64 cm**-1
  39:      1517.85 cm**-1
  40:      1858.78 cm**-1
  41:      3039.37 cm**-1
  42:      3081.42 cm**-1
  43:      3104.38 cm**-1
  44:      3160.74 cm**-1
  45:      3170.23 cm**-1
  46:      3173.30 cm**-1
  47:      3176.49 cm**-1
  48:      3269.11 cm**-1
  49:      3279.62 cm**-1
  50:      3539.51 cm**-1

IR SPECTRUM
-----------

 Mode    freq (cm**-1)   T**2         TX         TY         TZ
-------------------------------------------------------------------
   6:        35.66    3.544560  (  0.412620  -1.592345   0.915829)
   7:        72.80    1.749885  (  0.487214  -1.224616   0.113246)
   8:       130.35    0.474165  ( -0.171420   0.151775  -0.649419)
   9:       159.72    1.507882  ( -0.653671   0.158675  -1.027335)
  10:       316.45    1.466350  ( -0.835196  -0.839156  -0.254195)
  11:       356.23    1.253798  (  0.915325   0.333076  -0.552302)
  12:       419.32    3.274653  ( -0.304967  -0.032657  -1.783418)
  13:       499.69    8.577610  (  1.825898   1.087810  -2.015038)
  14:       539.97   10.215543  (  2.733281   1.485846  -0.732787)
  15:       770.91    2.710897  ( -0.881697  -0.007580   1.390485)
  16:       797.49    3.024549  ( -0.317510  -0.424399  -1.656388)
  17:       816.62   11.523464  ( -0.216985  -2.938454   1.685784)
  18:       865.75    1.741053  (  0.267103  -1.116268  -0.650887)
  19:       883.69    6.959029  (  1.420787   2.018981  -0.929575)
  20:       944.64   28.352637  ( -4.362364   0.714352   2.968521)
  21:      1005.78    0.956653  (  0.137552   0.847526  -0.468435)
  22:      1021.68   60.592316  (  0.755334   5.253378  -5.694190)
  23:      1077.19    1.134389  ( -0.939590   0.480984  -0.142176)
  24:      1145.23    7.812460  (  2.107232  -0.293342  -1.812728)
  25:      1153.72    9.654310  ( -2.114232   1.089379   1.999396)
  26:      1172.70   10.312286  ( -2.992880  -0.872205   0.770851)
  27:      1180.90    0.593222  (  0.245532  -0.701693  -0.201404)
  28:      1213.93    5.281053  ( -1.070433   1.738949   1.054173)
  29:      1236.17   80.390616  ( -5.752693  -3.832526   5.710419)
  30:      1271.87    4.133025  (  0.949734  -1.514604   0.967990)
  31:      1308.17    5.677747  (  0.977978   2.149909   0.314957)
  32:      1347.82    7.766276  (  2.120973   0.714846  -1.660345)
  33:      1386.40   49.062507  (  5.777529   3.957262  -0.150811)
  34:      1446.59   25.351772  ( -2.170483   0.926021  -4.447838)
  35:      1456.25   12.288843  ( -3.077807  -0.175218   1.668906)
  36:      1462.09   32.669578  ( -1.094190   4.628977  -3.169369)
  37:      1473.41   20.957169  ( -3.592305   0.370117   2.813454)
  38:      1479.64    9.649130  ( -2.347402   1.713901   1.096075)
  39:      1517.85    5.743763  ( -1.176163   0.392121  -2.051011)
  40:      1858.78  159.775102  ( -2.467636  -4.449232 -11.571094)
  41:      3039.37    9.664857  (  1.320062   1.195311  -2.548240)
  42:      3081.42    1.935247  ( -1.273913   0.031936   0.558009)
  43:      3104.38    1.467985  ( -0.614170   1.041144  -0.082456)
  44:      3160.74    1.546974  (  0.133471  -0.611496  -1.074817)
  45:      3170.23    4.808588  (  1.581351  -1.460242  -0.419057)
  46:      3173.30    3.497428  (  0.993911   0.816704  -1.357411)
  47:      3176.49    0.805417  ( -0.419014  -0.082718   0.789305)
  48:      3269.11    0.243853  ( -0.019271  -0.243389  -0.429236)
  49:      3279.62   14.188932  (  2.070430   1.709026   2.642249)
  50:      3539.51   80.756452  (  4.147584   7.766432   1.799037)

--------------------------
THERMOCHEMISTRY AT 298.15K
--------------------------

Temperature         ... 298.15 K
Pressure            ... 1.00 atm
Total Mass          ... 100.14 AMU

Throughout the following assumptions are being made:
  (1) The electronic state is orbitally nondegenerate
  (2) There are no thermally accessible electronically excited states
  (3) Hindered rotations indicated by low frequency modes) are not
      treated as such but are treated as vibrations and this may
      case some error
  (4) All equations used are the standard statistical mechanics
      equations for an ideal gas
  (5) All vibrations are strinctly harmonic

------------
INNER ENERGY
------------

The inner energy is: U= E(el) + E(ZPE) + E(vib) + E(rot) + E(trans)
    E(el)   - is the total energy from the electronic structure calculation
              = E(kin-el) + E(nuc-el) + E(el-el) + E(nuc-nuc)
    E(ZPE)  - the the zero temperature vibrational energy from the frequency calculation
    E(vib)  - the the finite temperature correction to E(ZPE) due to population
              of excietd vibrational states
    E(rot)  - is the rotational thermal energy
    E(trans)- is the translational thermal energy

Summary of contributions to the inner energy U:
Electronic energy                ...   -325.97310580 Eh
Zero point energy                ...      0.14994810 Eh      94.09 kcal/mol
Thermal vibrational correction   ...      0.00510884 Eh       3.21 kcal/mol
Thermal rotational correction    ...      0.00141627 Eh       0.89 kcal/mol
Thermal translational correction ...      0.00141627 Eh       0.89 kcal/mol
-----------------------------------------------------------------------
Total thermal energy                   -325.81521631 Eh

Summary of corrections to the electronic energy:
(perhaps to be used in another calculation)
Total thermal correction                  0.00794138 Eh       4.98 kcal/mol
Non-thermal (ZPE) correction              0.14994810 Eh      94.09 kcal/mol
-----------------------------------------------------------------------
Total correction                          0.15788949 Eh      99.08 kcal/mol

--------
ENTHALPY
--------

The enthalpy is H = U + kB*T
                kB is Boltzmann's constant
Total free energy                 ...   -325.81521631 Eh
Thermal Enthalpy correction       ...      0.00094421 Eh       0.59 kcal/mol
-----------------------------------------------------------------------
Total Enthalpy                    ...   -325.81427211 Eh

-------
ENTROPY
-------

The entropy contributions are T*S = T*(S(el)+S(vib)+S(rot)+S(trans)
     S(el)   - electronic entropy
     S(vib)  - vibrational entropy
     S(rot)  - rotational entropy
     S(trans)- translational entropy
The entropies will be listed as mutliplied by the temperature to get
units of energy

Electronic entropy                ...      0.00000000 Eh      0.00 kcal/mol
Vibrational entropy               ...      0.01016697 Eh      6.38 kcal/mol
Rotational entropy                ...      0.01211130 Eh      7.60 kcal/mol
Translational entropy             ...      0.01887324 Eh     11.84 kcal/mol
-----------------------------------------------------------------------
Final entropy term                ...      0.04115151 Eh     25.82 kcal/mol

CAUTION: The rotational entropy is not quite correctly treated here
         because it includes a symmetry number that is not yet correctly
         implemented in ORCA!
For a nonlinear molecule the correct rotational entropy is:
    S(rot) = R*(ln(qrot/sn)+1.5)
    R    = 8.31441 J/mol/K = 1.987191683e-3 kcal/mol/K
    qrot = 249176.1074941
    sn is the rotational symmetry number. We have assumed 3 here
       if it is different for your molecule then you should correct
       the printed rotational entropy by manually evaluating the equation
       as given above

For convenience we print out the resulting values for sn=1 - 12:
 sn= 1  qrot/sn=  249176.1075 T*S(rot)=     8.25 kcal/mol T*S(tot)=    26.47 kcal/mol
 sn= 2  qrot/sn=  124588.0537 T*S(rot)=     7.84 kcal/mol T*S(tot)=    26.06 kcal/mol
 sn= 3  qrot/sn=   83058.7025 T*S(rot)=     7.60 kcal/mol T*S(tot)=    25.82 kcal/mol
 sn= 4  qrot/sn=   62294.0269 T*S(rot)=     7.43 kcal/mol T*S(tot)=    25.65 kcal/mol
 sn= 5  qrot/sn=   49835.2215 T*S(rot)=     7.30 kcal/mol T*S(tot)=    25.52 kcal/mol
 sn= 6  qrot/sn=   41529.3512 T*S(rot)=     7.19 kcal/mol T*S(tot)=    25.41 kcal/mol
 sn= 7  qrot/sn=   35596.5868 T*S(rot)=     7.10 kcal/mol T*S(tot)=    25.32 kcal/mol
 sn= 8  qrot/sn=   31147.0134 T*S(rot)=     7.02 kcal/mol T*S(tot)=    25.24 kcal/mol
 sn= 9  qrot/sn=   27686.2342 T*S(rot)=     6.95 kcal/mol T*S(tot)=    25.17 kcal/mol
 sn=10  qrot/sn=   24917.6107 T*S(rot)=     6.89 kcal/mol T*S(tot)=    25.11 kcal/mol
 sn=11  qrot/sn=   22652.3734 T*S(rot)=     6.83 kcal/mol T*S(tot)=    25.05 kcal/mol
 sn=12  qrot/sn=   20764.6756 T*S(rot)=     6.78 kcal/mol T*S(tot)=    25.00 kcal/mol

-------------------
GIBBS FREE ENTHALPY
-------------------

The Gibbs free enthalpy is G = H - T*S

Total enthalpy                    ...   -325.81427211 Eh
Total entropy correction          ...     -0.04115151 Eh    -25.82 kcal/mol
-----------------------------------------------------------------------
Final Gibbs free enthalpy         ...   -325.85542361 Eh

For completeness - the Gibbs free enthalpy minus the electronic energy
G-E(el)                           ...      0.11768219 Eh     73.85 kcal/mol

                             ****ORCA TERMINATED NORMALLY****
TOTAL RUN TIME: 0 days 0 hours 49 minutes 22 seconds 840 msec
