                         Program Version 3.0.3 - RELEASE   -
|  1> ! NORI PBE0 def2-TZVP UseSym TightOPT Freq TightSCF Grid3 FinalGrid5 XYZFile
|  2> % pal
|  3>     nprocs 8
|  4> end
|  5> %method
|  6>     SymThresh 5.0e-2
|  7> end
|  8> % geom
|  9>     MaxIter 10
| 10> end
| 11> % maxcore 2000
| 12> % output
| 13>     printlevel mini
| 14>     print[ P_Basis ] 0
| 15>     print[ P_SCFInfo ] 1
| 16>     print[ P_SCFIterInfo ] 1
| 17>     print[ P_OrbEn ] 0
| 18>     print[ P_Cartesian ] 0
| 19> end
| 20> % elprop
| 21>     Dipole false
| 22> end
| 23> *xyz 1 1
| 24>  C        0.9327580978    -0.1237999076    -0.2193002640
| 25>  C        2.4336770410    -0.0389812359    -0.0672073974
| 26>  O        3.1385751535    -0.4441241881    -1.2288397340
| 27>  C        2.8891643037     1.3949896148     0.1401356043
| 28>  N        4.3596425117     1.4356539429     0.0338167480
| 29>  C        5.1551341128     2.6216041188     0.3842462441
| 30>  C        5.2483266366     1.4051322358     1.2100397407
| 31>  H        0.6255577420    -1.1618456379    -0.3605289962
| 32>  H        0.5959438768     0.4559834844    -1.0809661197
| 33>  H        0.4262111313     0.2443558271     0.6759595754
| 34>  H        2.7544616378    -0.6450701202     0.7925213516
| 35>  H        2.8633868469    -1.3244039999    -1.5005524740
| 36>  H        2.4946213422     2.0349186844    -0.6523294183
| 37>  H        2.5924467730     1.7917392200     1.1110146715
| 38>  H        4.6630220201     0.8795539614    -0.7673353043
| 39>  H        4.5661154600     3.4562516970     0.7424817707
| 40>  H        5.9494129741     2.8597766976    -0.3108910121
| 41>  H        6.1099857029     0.7577566542     1.1117122475
| 42>  H        4.7278566357     1.3705289512     2.1583027661
| 43> *
| 44>
| 45>                          ****END OF INPUT****
 Total Charge           Charge          ....    1
 Multiplicity           Mult            ....    1
 Number of Electrons    NEL             ....   56
FINAL SINGLE POINT ENERGY      -327.201699642044
FINAL SINGLE POINT ENERGY      -327.201701549691
FINAL SINGLE POINT ENERGY      -327.201703255942

CARTESIAN COORDINATES (ANGSTROEM)
---------------------------------
  C     -2.332825   -0.479381    1.244643
  C     -1.023143    0.160503    0.844976
  O      0.000928   -0.008516    1.811421
  C     -0.446004   -0.493154   -0.398698
  N      0.929459    0.003935   -0.588869
  C      1.720049   -0.268099   -1.798716
  C      1.260539    1.102470   -1.514548
  H     -2.732387    0.003624    2.138515
  H     -2.195831   -1.541509    1.457637
  H     -3.079739   -0.369662    0.455032
  H     -1.176340    1.231677    0.648989
  H     -0.290683    0.311340    2.670088
  H     -0.378948   -1.574204   -0.258899
  H     -1.029383   -0.275773   -1.293444
  H      1.419466    0.013537    0.307131
  H      1.197166   -0.854513   -2.543328
  H      2.752900   -0.535787   -1.617787
  H      1.959610    1.830649   -1.124747
  H      0.410442    1.496293   -2.056543

FINAL SINGLE POINT ENERGY      -327.201703756585
                    ***********************HURRAY********************
 Multiplicity           Mult            ....    1
 Number of Electrons    NEL             ....   56
 Basis Dimension        Dim             ....  289
FINAL SINGLE POINT ENERGY      -327.201704280300

VIBRATIONAL FREQUENCIES
-----------------------

   0:         0.00 cm**-1
   1:         0.00 cm**-1
   2:         0.00 cm**-1
   3:         0.00 cm**-1
   4:         0.00 cm**-1
   5:         0.00 cm**-1
   6:        82.03 cm**-1
   7:       103.74 cm**-1
   8:       166.93 cm**-1
   9:       238.64 cm**-1
  10:       282.12 cm**-1
  11:       308.44 cm**-1
  12:       354.31 cm**-1
  13:       399.60 cm**-1
  14:       478.81 cm**-1
  15:       502.54 cm**-1
  16:       785.32 cm**-1
  17:       830.37 cm**-1
  18:       867.17 cm**-1
  19:       886.52 cm**-1
  20:       939.33 cm**-1
  21:       951.13 cm**-1
  22:       971.49 cm**-1
  23:      1027.60 cm**-1
  24:      1089.28 cm**-1
  25:      1124.51 cm**-1
  26:      1149.65 cm**-1
  27:      1157.32 cm**-1
  28:      1165.84 cm**-1
  29:      1178.31 cm**-1
  30:      1195.69 cm**-1
  31:      1231.45 cm**-1
  32:      1264.88 cm**-1
  33:      1277.76 cm**-1
  34:      1318.03 cm**-1
  35:      1345.84 cm**-1
  36:      1379.42 cm**-1
  37:      1414.96 cm**-1
  38:      1428.73 cm**-1
  39:      1452.63 cm**-1
  40:      1472.93 cm**-1
  41:      1481.91 cm**-1
  42:      1487.38 cm**-1
  43:      1492.12 cm**-1
  44:      1520.17 cm**-1
  45:      3009.70 cm**-1
  46:      3058.99 cm**-1
  47:      3092.71 cm**-1
  48:      3139.14 cm**-1
  49:      3145.59 cm**-1
  50:      3161.20 cm**-1
  51:      3172.31 cm**-1
  52:      3174.40 cm**-1
  53:      3269.89 cm**-1
  54:      3280.39 cm**-1
  55:      3461.66 cm**-1
  56:      3862.13 cm**-1

IR SPECTRUM
-----------

 Mode    freq (cm**-1)   T**2         TX         TY         TZ
-------------------------------------------------------------------
   6:        82.03    1.918720  (  0.382288  -1.209191  -0.557165)
   7:       103.74    4.789373  ( -0.753633  -1.673583   1.191860)
   8:       166.93    6.000563  ( -1.362320   0.345561   2.006299)
   9:       238.64    0.091330  ( -0.087482  -0.288522   0.020795)
  10:       282.12  113.684327  ( -3.749464  -9.802381   1.881271)
  11:       308.44   11.077860  (  1.649928   0.832603  -2.768098)
  12:       354.31    5.254162  ( -0.088797   0.444459   2.246939)
  13:       399.60   10.311937  ( -2.227019  -2.094288   0.982997)
  14:       478.81    1.121651  ( -0.325183  -0.779103   0.639458)
  15:       502.54   10.703032  ( -1.734044  -0.215289  -2.765823)
  16:       785.32    0.352605  ( -0.378260  -0.358843  -0.284176)
  17:       830.37    6.010512  (  1.114283   1.458913  -1.624949)
  18:       867.17    8.585074  ( -2.349239  -0.214812  -1.737817)
  19:       886.52    3.216974  ( -1.686231   0.609408   0.047113)
  20:       939.33    2.837495  (  1.275448  -0.092690   1.096419)
  21:       951.13   23.321170  (  2.921684  -0.367957   3.827472)
  22:       971.49   17.462376  ( -1.561900   3.469585   1.727664)
  23:      1027.60   53.196246  ( -4.660185  -2.020926   5.234002)
  24:      1089.28   16.846374  ( -1.493301   0.759746  -3.746894)
  25:      1124.51   48.650920  (  3.818285  -0.211586   5.833254)
  26:      1149.65    3.563938  (  1.810421  -0.329073   0.421929)
  27:      1157.32   18.675320  (  2.294532   0.530825   3.623350)
  28:      1165.84   16.546101  ( -3.307759   2.264474  -0.690641)
  29:      1178.31    0.848883  ( -0.508243  -0.765740   0.064921)
  30:      1195.69    9.211133  (  2.710732  -1.055242   0.865754)
  31:      1231.45   12.979932  ( -1.811808   2.417708   1.962645)
  32:      1264.88   22.714637  (  3.727254  -1.455286   2.589278)
  33:      1277.76    6.107831  (  1.127629   0.050195  -2.198582)
  34:      1318.03   28.322670  ( -4.989206   0.451395  -1.796311)
  35:      1345.84    4.951125  ( -2.045221   0.211762  -0.850503)
  36:      1379.42    6.472803  (  2.238821   0.996907   0.683125)
  37:      1414.96   10.161619  ( -2.698812  -1.652752  -0.382676)
  38:      1428.73   21.507410  ( -4.000397   0.934484   2.151970)
  39:      1452.63   80.422582  (  6.068432   3.087406  -5.836492)
  40:      1472.93   17.016052  (  1.528641  -2.583588  -2.829202)
  41:      1481.91   10.315031  ( -0.777771   3.030666  -0.724684)
  42:      1487.38    9.480370  ( -1.520456   2.382801   1.221000)
  43:      1492.12    9.460327  (  1.109308   0.261828   2.856783)
  44:      1520.17   12.176179  ( -3.215147  -1.236207   0.557495)
  45:      3009.70   23.846425  (  0.844408  -4.272748   2.208399)
  46:      3058.99    1.703661  (  1.044483   0.702421  -0.345429)
  47:      3092.71    1.275316  ( -0.519565  -0.968966  -0.257823)
  48:      3139.14    4.893129  ( -0.564139  -0.039243  -2.138536)
  49:      3145.59    5.609762  (  0.805996  -2.218128  -0.200105)
  50:      3161.20    1.429212  ( -0.129234   0.750685  -0.921402)
  51:      3172.31    2.687171  ( -0.527453   1.496255   0.412533)
  52:      3174.40    1.358691  (  0.805546   0.464758  -0.702699)
  53:      3269.89    0.052883  ( -0.198458   0.008052  -0.115901)
  54:      3280.39    8.773602  (  2.513477   0.603670   1.446244)
  55:      3461.66  161.031494  (  1.500678  -0.743118  12.578841)
  56:      3862.13   97.751430  ( -0.480930   2.508032   9.551435)

--------------------------
THERMOCHEMISTRY AT 298.15K
--------------------------

Temperature         ... 298.15 K
Pressure            ... 1.00 atm
Total Mass          ... 102.16 AMU

Throughout the following assumptions are being made:
  (1) The electronic state is orbitally nondegenerate
  (2) There are no thermally accessible electronically excited states
  (3) Hindered rotations indicated by low frequency modes) are not
      treated as such but are treated as vibrations and this may
      case some error
  (4) All equations used are the standard statistical mechanics
      equations for an ideal gas
  (5) All vibrations are strinctly harmonic

------------
INNER ENERGY
------------

The inner energy is: U= E(el) + E(ZPE) + E(vib) + E(rot) + E(trans)
    E(el)   - is the total energy from the electronic structure calculation
              = E(kin-el) + E(nuc-el) + E(el-el) + E(nuc-nuc)
    E(ZPE)  - the the zero temperature vibrational energy from the frequency calculation
    E(vib)  - the the finite temperature correction to E(ZPE) due to population
              of excietd vibrational states
    E(rot)  - is the rotational thermal energy
    E(trans)- is the translational thermal energy

Summary of contributions to the inner energy U:
Electronic energy                ...   -327.20170428 Eh
Zero point energy                ...      0.17458281 Eh     109.55 kcal/mol
Thermal vibrational correction   ...      0.00528822 Eh       3.32 kcal/mol
Thermal rotational correction    ...      0.00141627 Eh       0.89 kcal/mol
Thermal translational correction ...      0.00141627 Eh       0.89 kcal/mol
-----------------------------------------------------------------------
Total thermal energy                   -327.01900071 Eh

Summary of corrections to the electronic energy:
(perhaps to be used in another calculation)
Total thermal correction                  0.00812077 Eh       5.10 kcal/mol
Non-thermal (ZPE) correction              0.17458281 Eh     109.55 kcal/mol
-----------------------------------------------------------------------
Total correction                          0.18270357 Eh     114.65 kcal/mol

--------
ENTHALPY
--------

The enthalpy is H = U + kB*T
                kB is Boltzmann's constant
Total free energy                 ...   -327.01900071 Eh
Thermal Enthalpy correction       ...      0.00094421 Eh       0.59 kcal/mol
-----------------------------------------------------------------------
Total Enthalpy                    ...   -327.01805650 Eh

-------
ENTROPY
-------

The entropy contributions are T*S = T*(S(el)+S(vib)+S(rot)+S(trans)
     S(el)   - electronic entropy
     S(vib)  - vibrational entropy
     S(rot)  - rotational entropy
     S(trans)- translational entropy
The entropies will be listed as mutliplied by the temperature to get
units of energy

Electronic entropy                ...      0.00000000 Eh      0.00 kcal/mol
Vibrational entropy               ...      0.00933051 Eh      5.85 kcal/mol
Rotational entropy                ...      0.01213147 Eh      7.61 kcal/mol
Translational entropy             ...      0.01890147 Eh     11.86 kcal/mol
-----------------------------------------------------------------------
Final entropy term                ...      0.04036344 Eh     25.33 kcal/mol

CAUTION: The rotational entropy is not quite correctly treated here
         because it includes a symmetry number that is not yet correctly
         implemented in ORCA!
For a nonlinear molecule the correct rotational entropy is:
    S(rot) = R*(ln(qrot/sn)+1.5)
    R    = 8.31441 J/mol/K = 1.987191683e-3 kcal/mol/K
    qrot = 254556.5001409
    sn is the rotational symmetry number. We have assumed 3 here
       if it is different for your molecule then you should correct
       the printed rotational entropy by manually evaluating the equation
       as given above

For convenience we print out the resulting values for sn=1 - 12:
 sn= 1  qrot/sn=  254556.5001 T*S(rot)=     8.26 kcal/mol T*S(tot)=    25.98 kcal/mol
 sn= 2  qrot/sn=  127278.2501 T*S(rot)=     7.85 kcal/mol T*S(tot)=    25.57 kcal/mol
 sn= 3  qrot/sn=   84852.1667 T*S(rot)=     7.61 kcal/mol T*S(tot)=    25.33 kcal/mol
 sn= 4  qrot/sn=   63639.1250 T*S(rot)=     7.44 kcal/mol T*S(tot)=    25.16 kcal/mol
 sn= 5  qrot/sn=   50911.3000 T*S(rot)=     7.31 kcal/mol T*S(tot)=    25.03 kcal/mol
 sn= 6  qrot/sn=   42426.0834 T*S(rot)=     7.20 kcal/mol T*S(tot)=    24.92 kcal/mol
 sn= 7  qrot/sn=   36365.2143 T*S(rot)=     7.11 kcal/mol T*S(tot)=    24.83 kcal/mol
 sn= 8  qrot/sn=   31819.5625 T*S(rot)=     7.03 kcal/mol T*S(tot)=    24.75 kcal/mol
 sn= 9  qrot/sn=   28284.0556 T*S(rot)=     6.96 kcal/mol T*S(tot)=    24.68 kcal/mol
 sn=10  qrot/sn=   25455.6500 T*S(rot)=     6.90 kcal/mol T*S(tot)=    24.62 kcal/mol
 sn=11  qrot/sn=   23141.5000 T*S(rot)=     6.84 kcal/mol T*S(tot)=    24.56 kcal/mol
 sn=12  qrot/sn=   21213.0417 T*S(rot)=     6.79 kcal/mol T*S(tot)=    24.51 kcal/mol

-------------------
GIBBS FREE ENTHALPY
-------------------

The Gibbs free enthalpy is G = H - T*S

Total enthalpy                    ...   -327.01805650 Eh
Total entropy correction          ...     -0.04036344 Eh    -25.33 kcal/mol
-----------------------------------------------------------------------
Final Gibbs free enthalpy         ...   -327.05841994 Eh

For completeness - the Gibbs free enthalpy minus the electronic energy
G-E(el)                           ...      0.14328434 Eh     89.91 kcal/mol

                             ****ORCA TERMINATED NORMALLY****
TOTAL RUN TIME: 0 days 0 hours 53 minutes 36 seconds 737 msec
