                         Program Version 3.0.3 - RELEASE   -
|  1> ! NORI PBE0 def2-TZVP UseSym TightOPT Freq TightSCF Grid3 FinalGrid5 XYZFile
|  2> % pal
|  3>     nprocs 8
|  4> end
|  5> %method
|  6>     SymThresh 5.0e-2
|  7> end
|  8> % geom
|  9>     MaxIter 10
| 10> end
| 11> % maxcore 2000
| 12> % output
| 13>     printlevel mini
| 14>     print[ P_Basis ] 0
| 15>     print[ P_SCFInfo ] 1
| 16>     print[ P_SCFIterInfo ] 1
| 17>     print[ P_OrbEn ] 0
| 18>     print[ P_Cartesian ] 0
| 19> end
| 20> % elprop
| 21>     Dipole false
| 22> end
| 23> *xyz 1 1
| 24>  C        0.8559437676    -0.1836224303    -0.3669074106
| 25>  C        2.2617838497    -0.0760779014     0.1981406255
| 26>  O        3.1987494608     0.3374440338    -0.7813161405
| 27>  C        2.3279388446     1.0655828333     1.2147377534
| 28>  N        3.7685278262     1.2524728429     1.5638148149
| 29>  C        2.6789239779    -1.3560325475     0.8834591476
| 30>  C        3.8368907259    -1.9759364409     0.6947919637
| 31>  H        0.8131720630    -0.9902323380    -1.1023133574
| 32>  H        0.5650328995     0.7492713813    -0.8529991459
| 33>  H        0.1312240462    -0.4164035570     0.4159622822
| 34>  H        3.1410580422    -0.2281051671    -1.5581034808
| 35>  H        1.7747931209     0.8444868503     2.1263452883
| 36>  H        1.9739418424     1.9985125523     0.7763257765
| 37>  H        4.1387634767     0.3702953529     1.9386612916
| 38>  H        3.9290789414     2.0069736363     2.2301539028
| 39>  H        4.2764247029     1.4371844442     0.6916702835
| 40>  H        1.9473568002    -1.7699189204     1.5743985206
| 41>  H        4.5756609245    -1.6084388974    -0.0102657112
| 42>  H        4.0679346874    -2.8978157272     1.2142135957
| 43> *
| 44>
| 45>                          ****END OF INPUT****
 Total Charge           Charge          ....    1
 Multiplicity           Mult            ....    1
 Number of Electrons    NEL             ....   56
FINAL SINGLE POINT ENERGY      -327.217240530577
FINAL SINGLE POINT ENERGY      -327.217241979949

CARTESIAN COORDINATES (ANGSTROEM)
---------------------------------
  C     -1.494043   -1.415355    0.099308
  C     -0.384848   -0.377681    0.090757
  O      0.000156   -0.000336    1.401638
  C      0.901539   -0.995936   -0.461540
  N      1.993395   -0.000893   -0.236872
  C     -0.750858    0.814082   -0.762899
  C     -0.620736    2.082151   -0.393858
  H     -2.408601   -0.976868    0.504014
  H     -1.213463   -2.271083    0.715753
  H     -1.718158   -1.764265   -0.910886
  H     -0.770262    0.272475    1.910087
  H      0.837761   -1.206838   -1.527919
  H      1.165310   -1.900523    0.086431
  H      1.746948    0.878187   -0.708454
  H      2.906058   -0.322095   -0.557416
  H      2.023219    0.203320    0.768195
  H     -1.146489    0.573070   -1.747161
  H     -0.258454    2.358475    0.591171
  H     -0.909414    2.888917   -1.056726

FINAL SINGLE POINT ENERGY      -327.217242567216
                    ***********************HURRAY********************
 Multiplicity           Mult            ....    1
 Number of Electrons    NEL             ....   56
 Basis Dimension        Dim             ....  289
FINAL SINGLE POINT ENERGY      -327.217242907849

VIBRATIONAL FREQUENCIES
-----------------------

   0:         0.00 cm**-1
   1:         0.00 cm**-1
   2:         0.00 cm**-1
   3:         0.00 cm**-1
   4:         0.00 cm**-1
   5:         0.00 cm**-1
   6:       113.63 cm**-1
   7:       162.30 cm**-1
   8:       197.62 cm**-1
   9:       232.22 cm**-1
  10:       253.53 cm**-1
  11:       277.09 cm**-1
  12:       299.27 cm**-1
  13:       336.03 cm**-1
  14:       375.31 cm**-1
  15:       419.37 cm**-1
  16:       516.29 cm**-1
  17:       567.25 cm**-1
  18:       715.30 cm**-1
  19:       745.42 cm**-1
  20:       861.59 cm**-1
  21:       907.83 cm**-1
  22:       951.59 cm**-1
  23:       986.19 cm**-1
  24:      1014.22 cm**-1
  25:      1027.58 cm**-1
  26:      1047.92 cm**-1
  27:      1060.29 cm**-1
  28:      1066.04 cm**-1
  29:      1125.83 cm**-1
  30:      1215.87 cm**-1
  31:      1265.30 cm**-1
  32:      1314.99 cm**-1
  33:      1331.00 cm**-1
  34:      1349.08 cm**-1
  35:      1399.17 cm**-1
  36:      1414.62 cm**-1
  37:      1442.27 cm**-1
  38:      1477.70 cm**-1
  39:      1487.39 cm**-1
  40:      1489.45 cm**-1
  41:      1490.34 cm**-1
  42:      1614.46 cm**-1
  43:      1665.94 cm**-1
  44:      1710.79 cm**-1
  45:      3060.22 cm**-1
  46:      3111.50 cm**-1
  47:      3141.26 cm**-1
  48:      3149.63 cm**-1
  49:      3159.66 cm**-1
  50:      3167.51 cm**-1
  51:      3180.66 cm**-1
  52:      3254.29 cm**-1
  53:      3368.27 cm**-1
  54:      3431.60 cm**-1
  55:      3528.75 cm**-1
  56:      3848.04 cm**-1

IR SPECTRUM
-----------

 Mode    freq (cm**-1)   T**2         TX         TY         TZ
-------------------------------------------------------------------
   6:       113.63    9.685814  (  1.489798  -2.378356   1.345266)
   7:       162.30    8.365167  ( -0.114047   1.000196  -2.711414)
   8:       197.62   11.414649  ( -1.158401  -2.728730   1.620737)
   9:       232.22    6.440379  (  2.016256  -0.277943  -1.515863)
  10:       253.53   15.047406  ( -3.177674  -0.706169   2.109767)
  11:       277.09   39.896485  ( -0.752348  -5.894463   2.141440)
  12:       299.27   48.220854  ( -0.081844   6.680297  -1.894146)
  13:       336.03   22.163768  ( -0.031448  -4.156122   2.211204)
  14:       375.31   33.678230  (  5.118811   0.573164  -2.673479)
  15:       419.37    1.868074  (  0.024368   1.254703   0.541479)
  16:       516.29   10.965453  (  2.828305   0.448457   1.662837)
  17:       567.25    4.389808  ( -0.445814   1.971620  -0.551157)
  18:       715.30   12.273418  (  3.252101   0.282739  -1.271738)
  19:       745.42    3.937827  (  0.443696  -1.139896   1.562561)
  20:       861.59    8.452951  (  1.328787   2.309976  -1.162449)
  21:       907.83   11.501126  ( -1.762469   1.852362   2.227910)
  22:       951.59   19.172581  (  0.776592  -0.234123   4.302868)
  23:       986.19    8.978880  ( -2.903547  -0.297768  -0.677961)
  24:      1014.22   42.887096  (  6.055480   0.456168  -2.451564)
  25:      1027.58   15.458260  ( -1.497484   0.450946  -3.607277)
  26:      1047.92   30.586325  ( -4.018334   0.257358   3.791185)
  27:      1060.29   71.708929  (  2.363879  -4.660179  -6.663613)
  28:      1066.04   23.848670  (  3.717108  -2.510529   1.931067)
  29:      1125.83   12.989985  (  0.778331  -0.031976   3.518972)
  30:      1215.87   21.468388  ( -3.737590  -1.187826  -2.467362)
  31:      1265.30   15.460071  ( -1.124234   0.160678  -3.764353)
  32:      1314.99   12.895438  (  3.055831  -0.015247   1.886028)
  33:      1331.00   15.075802  ( -2.234414   0.107133  -3.173597)
  34:      1349.08   26.382282  (  1.058426  -2.118291   4.557945)
  35:      1399.17    7.963453  (  2.332758   1.031759   1.207132)
  36:      1414.62    9.495689  ( -1.896047  -2.418507  -0.226985)
  37:      1442.27   15.684515  ( -0.858685   3.845195   0.402060)
  38:      1477.70   23.221679  ( -4.031728  -2.628418   0.241383)
  39:      1487.39   17.834976  (  3.703221   0.789202  -1.870371)
  40:      1489.45   20.283637  (  3.167670  -2.789936  -1.570275)
  41:      1490.34  153.515557  (-10.927004  -5.289383  -2.477615)
  42:      1614.46   37.936969  ( -0.139147   1.918075  -5.851376)
  43:      1665.94   43.322959  ( -5.558662   3.045160   1.775172)
  44:      1710.79    2.291483  ( -0.910355  -0.748168  -0.950253)
  45:      3060.22    1.153065  (  0.409003   0.990829  -0.063561)
  46:      3111.50    0.583311  ( -0.097568   0.728782   0.206563)
  47:      3141.26    3.083182  ( -0.577178   0.857131   1.419638)
  48:      3149.63    4.046515  ( -0.702667   1.572895  -1.038642)
  49:      3159.66    1.239925  ( -0.313369  -0.028376  -1.068139)
  50:      3167.51    0.341904  ( -0.078170  -0.417710  -0.401637)
  51:      3180.66    0.436449  (  0.426341  -0.446527   0.235152)
  52:      3254.29    0.240663  ( -0.015293  -0.484932  -0.072599)
  53:      3368.27   48.772588  ( -2.396196   6.550828   0.342762)
  54:      3431.60  111.097438  ( -3.693135   2.747208  -9.482143)
  55:      3528.75  139.467517  ( -9.966671   4.414203   4.543985)
  56:      3848.04   83.546327  (  5.321249  -2.110041  -7.125893)

--------------------------
THERMOCHEMISTRY AT 298.15K
--------------------------

Temperature         ... 298.15 K
Pressure            ... 1.00 atm
Total Mass          ... 102.16 AMU

Throughout the following assumptions are being made:
  (1) The electronic state is orbitally nondegenerate
  (2) There are no thermally accessible electronically excited states
  (3) Hindered rotations indicated by low frequency modes) are not
      treated as such but are treated as vibrations and this may
      case some error
  (4) All equations used are the standard statistical mechanics
      equations for an ideal gas
  (5) All vibrations are strinctly harmonic

------------
INNER ENERGY
------------

The inner energy is: U= E(el) + E(ZPE) + E(vib) + E(rot) + E(trans)
    E(el)   - is the total energy from the electronic structure calculation
              = E(kin-el) + E(nuc-el) + E(el-el) + E(nuc-nuc)
    E(ZPE)  - the the zero temperature vibrational energy from the frequency calculation
    E(vib)  - the the finite temperature correction to E(ZPE) due to population
              of excietd vibrational states
    E(rot)  - is the rotational thermal energy
    E(trans)- is the translational thermal energy

Summary of contributions to the inner energy U:
Electronic energy                ...   -327.21724291 Eh
Zero point energy                ...      0.17389134 Eh     109.12 kcal/mol
Thermal vibrational correction   ...      0.00583973 Eh       3.66 kcal/mol
Thermal rotational correction    ...      0.00141627 Eh       0.89 kcal/mol
Thermal translational correction ...      0.00141627 Eh       0.89 kcal/mol
-----------------------------------------------------------------------
Total thermal energy                   -327.03467930 Eh

Summary of corrections to the electronic energy:
(perhaps to be used in another calculation)
Total thermal correction                  0.00867228 Eh       5.44 kcal/mol
Non-thermal (ZPE) correction              0.17389134 Eh     109.12 kcal/mol
-----------------------------------------------------------------------
Total correction                          0.18256361 Eh     114.56 kcal/mol

--------
ENTHALPY
--------

The enthalpy is H = U + kB*T
                kB is Boltzmann's constant
Total free energy                 ...   -327.03467930 Eh
Thermal Enthalpy correction       ...      0.00094421 Eh       0.59 kcal/mol
-----------------------------------------------------------------------
Total Enthalpy                    ...   -327.03373509 Eh

-------
ENTROPY
-------

The entropy contributions are T*S = T*(S(el)+S(vib)+S(rot)+S(trans)
     S(el)   - electronic entropy
     S(vib)  - vibrational entropy
     S(rot)  - rotational entropy
     S(trans)- translational entropy
The entropies will be listed as mutliplied by the temperature to get
units of energy

Electronic entropy                ...      0.00000000 Eh      0.00 kcal/mol
Vibrational entropy               ...      0.00974086 Eh      6.11 kcal/mol
Rotational entropy                ...      0.01205287 Eh      7.56 kcal/mol
Translational entropy             ...      0.01890147 Eh     11.86 kcal/mol
-----------------------------------------------------------------------
Final entropy term                ...      0.04069520 Eh     25.54 kcal/mol

CAUTION: The rotational entropy is not quite correctly treated here
         because it includes a symmetry number that is not yet correctly
         implemented in ORCA!
For a nonlinear molecule the correct rotational entropy is:
    S(rot) = R*(ln(qrot/sn)+1.5)
    R    = 8.31441 J/mol/K = 1.987191683e-3 kcal/mol/K
    qrot = 234225.1575956
    sn is the rotational symmetry number. We have assumed 3 here
       if it is different for your molecule then you should correct
       the printed rotational entropy by manually evaluating the equation
       as given above

For convenience we print out the resulting values for sn=1 - 12:
 sn= 1  qrot/sn=  234225.1576 T*S(rot)=     8.21 kcal/mol T*S(tot)=    26.19 kcal/mol
 sn= 2  qrot/sn=  117112.5788 T*S(rot)=     7.80 kcal/mol T*S(tot)=    25.78 kcal/mol
 sn= 3  qrot/sn=   78075.0525 T*S(rot)=     7.56 kcal/mol T*S(tot)=    25.54 kcal/mol
 sn= 4  qrot/sn=   58556.2894 T*S(rot)=     7.39 kcal/mol T*S(tot)=    25.37 kcal/mol
 sn= 5  qrot/sn=   46845.0315 T*S(rot)=     7.26 kcal/mol T*S(tot)=    25.23 kcal/mol
 sn= 6  qrot/sn=   39037.5263 T*S(rot)=     7.15 kcal/mol T*S(tot)=    25.13 kcal/mol
 sn= 7  qrot/sn=   33460.7368 T*S(rot)=     7.06 kcal/mol T*S(tot)=    25.03 kcal/mol
 sn= 8  qrot/sn=   29278.1447 T*S(rot)=     6.98 kcal/mol T*S(tot)=    24.96 kcal/mol
 sn= 9  qrot/sn=   26025.0175 T*S(rot)=     6.91 kcal/mol T*S(tot)=    24.89 kcal/mol
 sn=10  qrot/sn=   23422.5158 T*S(rot)=     6.85 kcal/mol T*S(tot)=    24.82 kcal/mol
 sn=11  qrot/sn=   21293.1961 T*S(rot)=     6.79 kcal/mol T*S(tot)=    24.77 kcal/mol
 sn=12  qrot/sn=   19518.7631 T*S(rot)=     6.74 kcal/mol T*S(tot)=    24.72 kcal/mol

-------------------
GIBBS FREE ENTHALPY
-------------------

The Gibbs free enthalpy is G = H - T*S

Total enthalpy                    ...   -327.03373509 Eh
Total entropy correction          ...     -0.04069520 Eh    -25.54 kcal/mol
-----------------------------------------------------------------------
Final Gibbs free enthalpy         ...   -327.07443028 Eh

For completeness - the Gibbs free enthalpy minus the electronic energy
G-E(el)                           ...      0.14281263 Eh     89.62 kcal/mol

                             ****ORCA TERMINATED NORMALLY****
TOTAL RUN TIME: 0 days 0 hours 57 minutes 5 seconds 659 msec
