                         Program Version 3.0.3 - RELEASE   -
|  1> ! NORI PBE0 def2-TZVP UseSym TightOPT Freq TightSCF Grid3 FinalGrid5 XYZFile
|  2> % pal
|  3>     nprocs 8
|  4> end
|  5> %method
|  6>     SymThresh 5.0e-2
|  7> end
|  8> % geom
|  9>     MaxIter 10
| 10> end
| 11> % maxcore 2000
| 12> % output
| 13>     printlevel mini
| 14>     print[ P_Basis ] 0
| 15>     print[ P_SCFInfo ] 1
| 16>     print[ P_SCFIterInfo ] 1
| 17>     print[ P_OrbEn ] 0
| 18>     print[ P_Cartesian ] 0
| 19> end
| 20> % elprop
| 21>     Dipole false
| 22> end
| 23> *xyz 1 1
| 24>  C        1.0274387823     0.1190666371    -0.0404103278
| 25>  C        2.5450659136     0.0746057584     0.0122104770
| 26>  O        3.1296113624     1.3590108510    -0.1682817656
| 27>  C        3.0252306395    -0.3090520575     1.4119836134
| 28>  N        4.5154597489    -0.2113380363     1.4018608402
| 29>  C        3.1006026695    -0.8849625996    -0.9507384749
| 30>  C        3.5922096196    -1.6659165504    -1.7186901026
| 31>  H        0.7024078035     0.4128682867    -1.0392806014
| 32>  H        0.6527506154     0.8479366251     0.6798551533
| 33>  H        0.5987424910    -0.8613142262     0.1742440745
| 34>  H        2.9673294049     1.6744053878    -1.0640275781
| 35>  H        2.7397679984    -1.3233970497     1.6829558704
| 36>  H        2.6522714830     0.4049113400     2.1457735117
| 37>  H        4.8992847030    -0.8994690928     0.7448469283
| 38>  H        4.9344916887    -0.3475776889     2.3213551375
| 39>  H        4.7547947513     0.7199063913     1.0383527672
| 40>  H        3.9973803248    -2.3563239760    -2.4255595231
| 41> *
| 42>
| 43>                          ****END OF INPUT****
 Total Charge           Charge          ....    1
 Multiplicity           Mult            ....    1
 Number of Electrons    NEL             ....   54
FINAL SINGLE POINT ENERGY      -325.960183678562

CARTESIAN COORDINATES (ANGSTROEM)
---------------------------------
  C     -1.548370   -1.274124    0.132599
  C     -0.375066   -0.310736    0.192837
  O      0.001304    0.000449    1.529047
  C      0.890552   -0.968330   -0.357380
  N      2.008591   -0.000273   -0.147988
  C     -0.632215    0.917468   -0.570376
  C     -0.801357    1.931150   -1.190937
  H     -2.437728   -0.796942    0.546231
  H     -1.324480   -2.167719    0.717318
  H     -1.770899   -1.557076   -0.897638
  H     -0.696377    0.504948    1.961356
  H      0.811499   -1.192721   -1.419163
  H      1.122709   -1.869108    0.210422
  H      1.836257    0.846622   -0.700715
  H      2.923095   -0.382964   -0.386851
  H      1.987769    0.275659    0.842056
  H     -0.991459    2.828687   -1.737516

FINAL SINGLE POINT ENERGY      -325.960184288977
                    ***********************HURRAY********************
 Multiplicity           Mult            ....    1
 Number of Electrons    NEL             ....   54
 Basis Dimension        Dim             ....  277
FINAL SINGLE POINT ENERGY      -325.960184444679

VIBRATIONAL FREQUENCIES
-----------------------

   0:         0.00 cm**-1
   1:         0.00 cm**-1
   2:         0.00 cm**-1
   3:         0.00 cm**-1
   4:         0.00 cm**-1
   5:         0.00 cm**-1
   6:       109.99 cm**-1
   7:       168.24 cm**-1
   8:       188.81 cm**-1
   9:       223.07 cm**-1
  10:       243.95 cm**-1
  11:       266.76 cm**-1
  12:       325.85 cm**-1
  13:       373.87 cm**-1
  14:       419.33 cm**-1
  15:       446.81 cm**-1
  16:       567.75 cm**-1
  17:       606.68 cm**-1
  18:       718.89 cm**-1
  19:       737.80 cm**-1
  20:       749.35 cm**-1
  21:       862.05 cm**-1
  22:       913.68 cm**-1
  23:       948.16 cm**-1
  24:       990.02 cm**-1
  25:      1054.87 cm**-1
  26:      1070.20 cm**-1
  27:      1132.68 cm**-1
  28:      1199.29 cm**-1
  29:      1238.78 cm**-1
  30:      1330.97 cm**-1
  31:      1351.75 cm**-1
  32:      1399.16 cm**-1
  33:      1416.08 cm**-1
  34:      1474.36 cm**-1
  35:      1483.85 cm**-1
  36:      1487.08 cm**-1
  37:      1488.42 cm**-1
  38:      1619.79 cm**-1
  39:      1667.41 cm**-1
  40:      2230.58 cm**-1
  41:      3066.83 cm**-1
  42:      3116.70 cm**-1
  43:      3153.91 cm**-1
  44:      3157.54 cm**-1
  45:      3189.98 cm**-1
  46:      3372.26 cm**-1
  47:      3432.02 cm**-1
  48:      3451.09 cm**-1
  49:      3523.72 cm**-1
  50:      3840.47 cm**-1

IR SPECTRUM
-----------

 Mode    freq (cm**-1)   T**2         TX         TY         TZ
-------------------------------------------------------------------
   6:       109.99    8.613176  (  1.238313  -1.648679   2.088448)
   7:       168.24    3.145135  ( -1.180244  -0.831283   1.030111)
   8:       188.81    6.944630  ( -0.526717  -0.113693   2.579588)
   9:       223.07    3.929499  ( -0.972314   1.723815   0.112101)
  10:       243.95    1.146953  ( -0.741542   0.704820  -0.316699)
  11:       266.76   20.600679  (  3.534631  -1.519196  -2.408134)
  12:       325.85   98.722566  (  2.404008   8.744675  -4.058814)
  13:       373.87   38.033620  ( -5.120761  -2.415611   2.444636)
  14:       419.33    9.577324  (  1.740778  -2.542673   0.286059)
  15:       446.81   25.396933  (  4.602551   1.803768   0.979735)
  16:       567.75   20.323523  (  0.420934   3.772775   2.431564)
  17:       606.68    6.501069  ( -1.664754  -0.801348   1.757129)
  18:       718.89    1.609645  (  0.060598   0.342315   1.220161)
  19:       737.80   41.223365  (  4.959099   3.304945   2.389150)
  20:       749.35   34.315122  ( -3.714930   1.257747   4.351148)
  21:       862.05    4.398485  (  1.220091   1.507832  -0.797687)
  22:       913.68   16.730857  ( -1.344217   2.301638   3.102644)
  23:       948.16   25.866218  ( -1.106450   0.766757  -4.904495)
  24:       990.02   12.430290  (  3.490422   0.336332   0.366227)
  25:      1054.87   94.521877  ( -2.045203   3.728601   8.742800)
  26:      1070.20   27.124699  (  3.104043  -3.813855   1.715847)
  27:      1132.68   11.109361  ( -0.071262  -0.041679   3.332048)
  28:      1199.29   57.282065  (  5.007118   0.671238   5.635625)
  29:      1238.78   14.815931  (  1.653710   2.619815  -2.284238)
  30:      1330.97   12.769129  ( -2.540132   1.000258  -2.305719)
  31:      1351.75   60.431638  (  2.361192  -3.271801   6.644677)
  32:      1399.16    8.708130  (  2.500108   0.619137   1.440228)
  33:      1416.08    6.565690  (  1.705421   1.903230   0.186935)
  34:      1474.36   19.905007  (  3.591323   2.571214  -0.629497)
  35:      1483.85    7.562129  ( -0.636373   1.147598   2.416646)
  36:      1487.08   22.799264  ( -3.886081   2.355062   1.466738)
  37:      1488.42  177.839975  ( 11.738019   5.651604   2.849253)
  38:      1619.79   34.558294  (  0.406913   1.970473  -5.523582)
  39:      1667.41   46.434210  (  5.157814  -4.216017  -1.434004)
  40:      2230.58   14.306296  (  1.481989  -2.766610   2.110894)
  41:      3066.83    0.555978  ( -0.062544   0.732338  -0.125490)
  42:      3116.70    0.069375  (  0.131959   0.227720  -0.010275)
  43:      3153.91    1.705107  (  0.254430  -0.222012  -1.261381)
  44:      3157.54    2.354451  (  0.574308  -1.309133   0.557487)
  45:      3189.98    0.173242  ( -0.199174   0.224581   0.288332)
  46:      3372.26   47.050984  (  0.043206  -4.785793  -4.913787)
  47:      3432.02  101.748980  (  0.683212  -3.739896   9.343200)
  48:      3451.09  105.476219  (  1.833964  -8.607480   5.293777)
  49:      3523.72  139.403416  ( 10.123405  -5.414526  -2.757352)
  50:      3840.47   98.276382  ( -4.966809   4.373012   7.381325)

--------------------------
THERMOCHEMISTRY AT 298.15K
--------------------------

Temperature         ... 298.15 K
Pressure            ... 1.00 atm
Total Mass          ... 100.14 AMU

Throughout the following assumptions are being made:
  (1) The electronic state is orbitally nondegenerate
  (2) There are no thermally accessible electronically excited states
  (3) Hindered rotations indicated by low frequency modes) are not
      treated as such but are treated as vibrations and this may
      case some error
  (4) All equations used are the standard statistical mechanics
      equations for an ideal gas
  (5) All vibrations are strinctly harmonic

------------
INNER ENERGY
------------

The inner energy is: U= E(el) + E(ZPE) + E(vib) + E(rot) + E(trans)
    E(el)   - is the total energy from the electronic structure calculation
              = E(kin-el) + E(nuc-el) + E(el-el) + E(nuc-nuc)
    E(ZPE)  - the the zero temperature vibrational energy from the frequency calculation
    E(vib)  - the the finite temperature correction to E(ZPE) due to population
              of excietd vibrational states
    E(rot)  - is the rotational thermal energy
    E(trans)- is the translational thermal energy

Summary of contributions to the inner energy U:
Electronic energy                ...   -325.96018444 Eh
Zero point energy                ...      0.14992816 Eh      94.08 kcal/mol
Thermal vibrational correction   ...      0.00567320 Eh       3.56 kcal/mol
Thermal rotational correction    ...      0.00141627 Eh       0.89 kcal/mol
Thermal translational correction ...      0.00141627 Eh       0.89 kcal/mol
-----------------------------------------------------------------------
Total thermal energy                   -325.80175054 Eh

Summary of corrections to the electronic energy:
(perhaps to be used in another calculation)
Total thermal correction                  0.00850574 Eh       5.34 kcal/mol
Non-thermal (ZPE) correction              0.14992816 Eh      94.08 kcal/mol
-----------------------------------------------------------------------
Total correction                          0.15843390 Eh      99.42 kcal/mol

--------
ENTHALPY
--------

The enthalpy is H = U + kB*T
                kB is Boltzmann's constant
Total free energy                 ...   -325.80175054 Eh
Thermal Enthalpy correction       ...      0.00094421 Eh       0.59 kcal/mol
-----------------------------------------------------------------------
Total Enthalpy                    ...   -325.80080633 Eh

-------
ENTROPY
-------

The entropy contributions are T*S = T*(S(el)+S(vib)+S(rot)+S(trans)
     S(el)   - electronic entropy
     S(vib)  - vibrational entropy
     S(rot)  - rotational entropy
     S(trans)- translational entropy
The entropies will be listed as mutliplied by the temperature to get
units of energy

Electronic entropy                ...      0.00000000 Eh      0.00 kcal/mol
Vibrational entropy               ...      0.00950750 Eh      5.97 kcal/mol
Rotational entropy                ...      0.01204873 Eh      7.56 kcal/mol
Translational entropy             ...      0.01887324 Eh     11.84 kcal/mol
-----------------------------------------------------------------------
Final entropy term                ...      0.04042947 Eh     25.37 kcal/mol

CAUTION: The rotational entropy is not quite correctly treated here
         because it includes a symmetry number that is not yet correctly
         implemented in ORCA!
For a nonlinear molecule the correct rotational entropy is:
    S(rot) = R*(ln(qrot/sn)+1.5)
    R    = 8.31441 J/mol/K = 1.987191683e-3 kcal/mol/K
    qrot = 233199.1872084
    sn is the rotational symmetry number. We have assumed 3 here
       if it is different for your molecule then you should correct
       the printed rotational entropy by manually evaluating the equation
       as given above

For convenience we print out the resulting values for sn=1 - 12:
 sn= 1  qrot/sn=  233199.1872 T*S(rot)=     8.21 kcal/mol T*S(tot)=    26.02 kcal/mol
 sn= 2  qrot/sn=  116599.5936 T*S(rot)=     7.80 kcal/mol T*S(tot)=    25.61 kcal/mol
 sn= 3  qrot/sn=   77733.0624 T*S(rot)=     7.56 kcal/mol T*S(tot)=    25.37 kcal/mol
 sn= 4  qrot/sn=   58299.7968 T*S(rot)=     7.39 kcal/mol T*S(tot)=    25.20 kcal/mol
 sn= 5  qrot/sn=   46639.8374 T*S(rot)=     7.26 kcal/mol T*S(tot)=    25.07 kcal/mol
 sn= 6  qrot/sn=   38866.5312 T*S(rot)=     7.15 kcal/mol T*S(tot)=    24.96 kcal/mol
 sn= 7  qrot/sn=   33314.1696 T*S(rot)=     7.06 kcal/mol T*S(tot)=    24.87 kcal/mol
 sn= 8  qrot/sn=   29149.8984 T*S(rot)=     6.98 kcal/mol T*S(tot)=    24.79 kcal/mol
 sn= 9  qrot/sn=   25911.0208 T*S(rot)=     6.91 kcal/mol T*S(tot)=    24.72 kcal/mol
 sn=10  qrot/sn=   23319.9187 T*S(rot)=     6.85 kcal/mol T*S(tot)=    24.66 kcal/mol
 sn=11  qrot/sn=   21199.9261 T*S(rot)=     6.79 kcal/mol T*S(tot)=    24.60 kcal/mol
 sn=12  qrot/sn=   19433.2656 T*S(rot)=     6.74 kcal/mol T*S(tot)=    24.55 kcal/mol

-------------------
GIBBS FREE ENTHALPY
-------------------

The Gibbs free enthalpy is G = H - T*S

Total enthalpy                    ...   -325.80080633 Eh
Total entropy correction          ...     -0.04042947 Eh    -25.37 kcal/mol
-----------------------------------------------------------------------
Final Gibbs free enthalpy         ...   -325.84123580 Eh

For completeness - the Gibbs free enthalpy minus the electronic energy
G-E(el)                           ...      0.11894864 Eh     74.64 kcal/mol

                             ****ORCA TERMINATED NORMALLY****
TOTAL RUN TIME: 0 days 0 hours 45 minutes 47 seconds 689 msec
