                         Program Version 3.0.3 - RELEASE   -
|  1> ! NORI PBE0 def2-TZVP UseSym TightOPT Freq TightSCF Grid3 FinalGrid5 XYZFile
|  2> % pal
|  3>     nprocs 8
|  4> end
|  5> %method
|  6>     SymThresh 5.0e-2
|  7> end
|  8> % geom
|  9>     MaxIter 10
| 10> end
| 11> % maxcore 2000
| 12> % output
| 13>     printlevel mini
| 14>     print[ P_Basis ] 0
| 15>     print[ P_SCFInfo ] 1
| 16>     print[ P_SCFIterInfo ] 1
| 17>     print[ P_OrbEn ] 0
| 18>     print[ P_Cartesian ] 0
| 19> end
| 20> % elprop
| 21>     Dipole false
| 22> end
| 23> *xyz 1 1
| 24>  C        3.3011987389    -0.9209004319    -1.0911791919
| 25>  C        2.5333089368    -0.0817534601    -0.1016600020
| 26>  O        2.2336471950    -0.7567549265     1.1039582117
| 27>  C        3.2547745325     1.2366674689     0.2753742613
| 28>  N        2.4299630073     1.8060590781     1.3936161533
| 29>  C        4.6710934454     1.0592121233     0.7159670166
| 30>  C        5.1046513201     0.9814997551     1.9663551461
| 31>  H        3.5192313187    -0.3558110441    -1.9999010573
| 32>  H        2.7076986370    -1.7909489368    -1.3729891531
| 33>  H        4.2483885127    -1.2658284127    -0.6689486037
| 34>  H        1.5628729916     0.1895317837    -0.5350012475
| 35>  H        2.8964401987    -1.4334734327     1.2780496860
| 36>  H        3.2046591055     1.9400218984    -0.5593808216
| 37>  H        2.1892517902     0.9986244819     1.9932554743
| 38>  H        1.5603897947     2.2180296052     1.0544551602
| 39>  H        2.9459896338     2.5067944619     1.9271876026
| 40>  H        5.3796651240     0.9743689193    -0.1016867266
| 41>  H        4.4616810848     1.0463940217     2.8396189333
| 42>  H        6.1576246322     0.8425670474     2.1775391581
| 43> *
| 44>
| 45>                          ****END OF INPUT****
 Total Charge           Charge          ....    1
 Multiplicity           Mult            ....    1
 Number of Electrons    NEL             ....   56
FINAL SINGLE POINT ENERGY      -327.211213318880
FINAL SINGLE POINT ENERGY      -327.211214905363

CARTESIAN COORDINATES (ANGSTROEM)
---------------------------------
  C     -1.732879    1.265236    0.507897
  C     -0.268164    0.947410    0.670021
  O     -0.003261   -0.003000    1.682625
  C      0.395509    0.430454   -0.631229
  N      1.769547    0.000966   -0.203156
  C     -0.323391   -0.707709   -1.278923
  C     -0.042111   -1.996282   -1.146301
  H     -1.891451    1.992577   -0.291336
  H     -2.118958    1.694729    1.432791
  H     -2.309975    0.367293    0.271602
  H      0.267449    1.855769    0.971947
  H     -0.760017   -0.588602    1.792176
  H      0.515276    1.253203   -1.339982
  H      1.635049   -0.484883    0.699633
  H      2.386059    0.798242   -0.044177
  H      2.201098   -0.624676   -0.884723
  H     -1.160604   -0.404736   -1.899370
  H      0.771957   -2.383288   -0.539598
  H     -0.634356   -2.745464   -1.656709

FINAL SINGLE POINT ENERGY      -327.211215368664
                    ***********************HURRAY********************
 Multiplicity           Mult            ....    1
 Number of Electrons    NEL             ....   56
 Basis Dimension        Dim             ....  289
FINAL SINGLE POINT ENERGY      -327.211215639869

VIBRATIONAL FREQUENCIES
-----------------------

   0:         0.00 cm**-1
   1:         0.00 cm**-1
   2:         0.00 cm**-1
   3:         0.00 cm**-1
   4:         0.00 cm**-1
   5:         0.00 cm**-1
   6:        86.89 cm**-1
   7:       104.02 cm**-1
   8:       233.28 cm**-1
   9:       255.44 cm**-1
  10:       268.19 cm**-1
  11:       280.34 cm**-1
  12:       297.08 cm**-1
  13:       357.94 cm**-1
  14:       378.20 cm**-1
  15:       482.91 cm**-1
  16:       508.39 cm**-1
  17:       592.53 cm**-1
  18:       723.55 cm**-1
  19:       798.78 cm**-1
  20:       885.42 cm**-1
  21:       933.46 cm**-1
  22:       959.53 cm**-1
  23:       990.57 cm**-1
  24:      1033.61 cm**-1
  25:      1043.24 cm**-1
  26:      1054.95 cm**-1
  27:      1082.48 cm**-1
  28:      1109.55 cm**-1
  29:      1152.91 cm**-1
  30:      1190.44 cm**-1
  31:      1285.53 cm**-1
  32:      1317.11 cm**-1
  33:      1330.87 cm**-1
  34:      1355.99 cm**-1
  35:      1408.16 cm**-1
  36:      1415.19 cm**-1
  37:      1427.38 cm**-1
  38:      1459.15 cm**-1
  39:      1468.03 cm**-1
  40:      1483.03 cm**-1
  41:      1490.91 cm**-1
  42:      1628.78 cm**-1
  43:      1667.71 cm**-1
  44:      1723.81 cm**-1
  45:      3044.52 cm**-1
  46:      3058.82 cm**-1
  47:      3104.69 cm**-1
  48:      3136.12 cm**-1
  49:      3154.69 cm**-1
  50:      3155.16 cm**-1
  51:      3193.90 cm**-1
  52:      3249.21 cm**-1
  53:      3288.01 cm**-1
  54:      3470.27 cm**-1
  55:      3527.68 cm**-1
  56:      3837.71 cm**-1

IR SPECTRUM
-----------

 Mode    freq (cm**-1)   T**2         TX         TY         TZ
-------------------------------------------------------------------
   6:        86.89    2.063344  (  0.846579   0.916712  -0.711538)
   7:       104.02    7.106863  (  1.105567   0.939742  -2.236396)
   8:       233.28   12.282480  ( -2.361158   0.326143   2.569249)
   9:       255.44   10.774429  (  0.782063  -2.161128  -2.343573)
  10:       268.19    3.068510  (  0.648069  -0.428486  -1.570006)
  11:       280.34   21.885619  ( -3.597540  -0.151019   2.986724)
  12:       297.08   10.249506  ( -0.295787  -1.786636  -2.640066)
  13:       357.94   99.486555  ( -4.622849   4.856241   7.384629)
  14:       378.20    7.383561  ( -2.431292  -1.209333   0.099473)
  15:       482.91    1.488651  ( -0.017365  -1.080623   0.566219)
  16:       508.39    7.471008  (  0.048343   0.067884   2.732044)
  17:       592.53   19.064209  ( -3.599218  -0.245068   2.459630)
  18:       723.55    3.654773  ( -1.019565   0.475383   1.545727)
  19:       798.78    1.741518  (  0.486553  -0.763950   0.959773)
  20:       885.42    8.965522  (  0.173350   2.785378  -1.084962)
  21:       933.46   11.498906  ( -1.339334   0.195757  -3.109143)
  22:       959.53    2.896966  ( -0.752479  -0.912806  -1.223735)
  23:       990.57   47.331966  (  4.257181   0.087594  -5.403767)
  24:      1033.61   35.974063  (  2.148380   2.428790  -5.045741)
  25:      1043.24    3.823450  ( -0.869738   1.595281   0.722555)
  26:      1054.95   59.327346  ( -3.650675   2.567349   6.277630)
  27:      1082.48   66.441555  ( -2.623716   3.346781  -6.953900)
  28:      1109.55    4.819625  (  1.926841  -0.839346   0.634354)
  29:      1152.91   14.753395  (  0.670743   3.168585  -2.064840)
  30:      1190.44   25.546182  (  0.647266  -3.525468   3.563468)
  31:      1285.53   13.438478  ( -0.880813   3.011396  -1.895822)
  32:      1317.11    2.785168  ( -0.360853  -0.697842  -1.472403)
  33:      1330.87    0.580317  (  0.058579  -0.675210  -0.347817)
  34:      1355.99    5.177097  ( -0.445904  -0.540170   2.164829)
  35:      1408.16   11.745859  ( -0.147755  -2.135880   2.676200)
  36:      1415.19   21.503730  ( -3.721465   0.895088  -2.617871)
  37:      1427.38   30.536497  ( -3.771446   3.721048  -1.570507)
  38:      1459.15  148.934263  (-12.052772   1.495293  -1.195431)
  39:      1468.03   55.804331  ( -4.842010   5.652551  -0.638699)
  40:      1483.03    5.662762  ( -0.979312  -1.859567  -1.116119)
  41:      1490.91   10.366450  (  0.748294  -2.696994   1.591455)
  42:      1628.78   41.593138  ( -5.150803  -2.998430   2.464099)
  43:      1667.71   42.023713  (  0.085476  -3.298523  -5.579978)
  44:      1723.81    1.498783  ( -0.224113   1.189659  -0.182394)
  45:      3044.52   12.211369  (  2.099182   2.788028   0.178050)
  46:      3058.82    3.967429  (  1.225360   1.422050   0.666105)
  47:      3104.69    2.024474  ( -0.185675  -1.372367   0.326509)
  48:      3136.12    6.003713  (  0.622322   2.330297  -0.431444)
  49:      3154.69    1.051310  (  0.631875  -0.515449  -0.621576)
  50:      3155.16    7.555609  ( -1.875426  -0.880617  -1.806350)
  51:      3193.90    0.664872  (  0.626071  -0.074296   0.517095)
  52:      3249.21    0.890272  ( -0.094699   0.915692  -0.206913)
  53:      3288.01  113.397743  (  3.085329   2.528976  -9.873336)
  54:      3470.27   92.879930  (  7.704735   0.975981  -5.706526)
  55:      3527.68   89.564640  (  2.847922   7.996909   4.183709)
  56:      3837.71   71.131417  ( -5.697542  -4.775062   3.983494)

--------------------------
THERMOCHEMISTRY AT 298.15K
--------------------------

Temperature         ... 298.15 K
Pressure            ... 1.00 atm
Total Mass          ... 102.16 AMU

Throughout the following assumptions are being made:
  (1) The electronic state is orbitally nondegenerate
  (2) There are no thermally accessible electronically excited states
  (3) Hindered rotations indicated by low frequency modes) are not
      treated as such but are treated as vibrations and this may
      case some error
  (4) All equations used are the standard statistical mechanics
      equations for an ideal gas
  (5) All vibrations are strinctly harmonic

------------
INNER ENERGY
------------

The inner energy is: U= E(el) + E(ZPE) + E(vib) + E(rot) + E(trans)
    E(el)   - is the total energy from the electronic structure calculation
              = E(kin-el) + E(nuc-el) + E(el-el) + E(nuc-nuc)
    E(ZPE)  - the the zero temperature vibrational energy from the frequency calculation
    E(vib)  - the the finite temperature correction to E(ZPE) due to population
              of excietd vibrational states
    E(rot)  - is the rotational thermal energy
    E(trans)- is the translational thermal energy

Summary of contributions to the inner energy U:
Electronic energy                ...   -327.21121564 Eh
Zero point energy                ...      0.17424827 Eh     109.34 kcal/mol
Thermal vibrational correction   ...      0.00575077 Eh       3.61 kcal/mol
Thermal rotational correction    ...      0.00141627 Eh       0.89 kcal/mol
Thermal translational correction ...      0.00141627 Eh       0.89 kcal/mol
-----------------------------------------------------------------------
Total thermal energy                   -327.02838406 Eh

Summary of corrections to the electronic energy:
(perhaps to be used in another calculation)
Total thermal correction                  0.00858332 Eh       5.39 kcal/mol
Non-thermal (ZPE) correction              0.17424827 Eh     109.34 kcal/mol
-----------------------------------------------------------------------
Total correction                          0.18283158 Eh     114.73 kcal/mol

--------
ENTHALPY
--------

The enthalpy is H = U + kB*T
                kB is Boltzmann's constant
Total free energy                 ...   -327.02838406 Eh
Thermal Enthalpy correction       ...      0.00094421 Eh       0.59 kcal/mol
-----------------------------------------------------------------------
Total Enthalpy                    ...   -327.02743985 Eh

-------
ENTROPY
-------

The entropy contributions are T*S = T*(S(el)+S(vib)+S(rot)+S(trans)
     S(el)   - electronic entropy
     S(vib)  - vibrational entropy
     S(rot)  - rotational entropy
     S(trans)- translational entropy
The entropies will be listed as mutliplied by the temperature to get
units of energy

Electronic entropy                ...      0.00000000 Eh      0.00 kcal/mol
Vibrational entropy               ...      0.00990451 Eh      6.22 kcal/mol
Rotational entropy                ...      0.01209829 Eh      7.59 kcal/mol
Translational entropy             ...      0.01890147 Eh     11.86 kcal/mol
-----------------------------------------------------------------------
Final entropy term                ...      0.04090427 Eh     25.67 kcal/mol

CAUTION: The rotational entropy is not quite correctly treated here
         because it includes a symmetry number that is not yet correctly
         implemented in ORCA!
For a nonlinear molecule the correct rotational entropy is:
    S(rot) = R*(ln(qrot/sn)+1.5)
    R    = 8.31441 J/mol/K = 1.987191683e-3 kcal/mol/K
    qrot = 245768.2965547
    sn is the rotational symmetry number. We have assumed 3 here
       if it is different for your molecule then you should correct
       the printed rotational entropy by manually evaluating the equation
       as given above

For convenience we print out the resulting values for sn=1 - 12:
 sn= 1  qrot/sn=  245768.2966 T*S(rot)=     8.24 kcal/mol T*S(tot)=    26.32 kcal/mol
 sn= 2  qrot/sn=  122884.1483 T*S(rot)=     7.83 kcal/mol T*S(tot)=    25.91 kcal/mol
 sn= 3  qrot/sn=   81922.7655 T*S(rot)=     7.59 kcal/mol T*S(tot)=    25.67 kcal/mol
 sn= 4  qrot/sn=   61442.0741 T*S(rot)=     7.42 kcal/mol T*S(tot)=    25.50 kcal/mol
 sn= 5  qrot/sn=   49153.6593 T*S(rot)=     7.29 kcal/mol T*S(tot)=    25.37 kcal/mol
 sn= 6  qrot/sn=   40961.3828 T*S(rot)=     7.18 kcal/mol T*S(tot)=    25.26 kcal/mol
 sn= 7  qrot/sn=   35109.7567 T*S(rot)=     7.09 kcal/mol T*S(tot)=    25.17 kcal/mol
 sn= 8  qrot/sn=   30721.0371 T*S(rot)=     7.01 kcal/mol T*S(tot)=    25.09 kcal/mol
 sn= 9  qrot/sn=   27307.5885 T*S(rot)=     6.94 kcal/mol T*S(tot)=    25.02 kcal/mol
 sn=10  qrot/sn=   24576.8297 T*S(rot)=     6.88 kcal/mol T*S(tot)=    24.95 kcal/mol
 sn=11  qrot/sn=   22342.5724 T*S(rot)=     6.82 kcal/mol T*S(tot)=    24.90 kcal/mol
 sn=12  qrot/sn=   20480.6914 T*S(rot)=     6.77 kcal/mol T*S(tot)=    24.85 kcal/mol

-------------------
GIBBS FREE ENTHALPY
-------------------

The Gibbs free enthalpy is G = H - T*S

Total enthalpy                    ...   -327.02743985 Eh
Total entropy correction          ...     -0.04090427 Eh    -25.67 kcal/mol
-----------------------------------------------------------------------
Final Gibbs free enthalpy         ...   -327.06834412 Eh

For completeness - the Gibbs free enthalpy minus the electronic energy
G-E(el)                           ...      0.14287152 Eh     89.65 kcal/mol

                             ****ORCA TERMINATED NORMALLY****
TOTAL RUN TIME: 0 days 0 hours 55 minutes 47 seconds 339 msec
