                         Program Version 3.0.3 - RELEASE   -
|  1> ! NORI PBE0 def2-TZVP UseSym TightOPT Freq TightSCF Grid3 FinalGrid5 XYZFile
|  2> % pal
|  3>     nprocs 8
|  4> end
|  5> %method
|  6>     SymThresh 5.0e-2
|  7> end
|  8> % geom
|  9>     MaxIter 10
| 10> end
| 11> % maxcore 2000
| 12> % output
| 13>     printlevel mini
| 14>     print[ P_Basis ] 0
| 15>     print[ P_SCFInfo ] 1
| 16>     print[ P_SCFIterInfo ] 1
| 17>     print[ P_OrbEn ] 0
| 18>     print[ P_Cartesian ] 0
| 19> end
| 20> % elprop
| 21>     Dipole false
| 22> end
| 23> *xyz 1 1
| 24>  C        0.9065436845    -0.0365861042     0.0989306583
| 25>  C        2.4041831071    -0.0583018166    -0.0578564589
| 26>  O        3.1022861609    -0.4043053985     1.1199320647
| 27>  C        2.8772931658    -1.0248988028    -1.1695987167
| 28>  N        4.3850731503    -1.0570423169    -1.0394154262
| 29>  C        2.3906363619    -2.3804935135    -1.0224056134
| 30>  C        1.9996772477    -3.5061123566    -0.8937533592
| 31>  H        0.4187260195     0.2457528947    -0.8364775343
| 32>  H        0.6297016124     0.6964551586     0.8572479733
| 33>  H        0.5279220911    -1.0185689604     0.3936917219
| 34>  H        2.7589032761     0.9423957961    -0.3333118546
| 35>  H        2.5458208713    -0.9498287103     1.6864146551
| 36>  H        2.6366667575    -0.6281247062    -2.1593072027
| 37>  H        4.5575145049    -1.1044772640    -0.0202144086
| 38>  H        4.8201186083    -0.2073194875    -1.4028456331
| 39>  H        4.7916473611    -1.8689267822    -1.5047981082
| 40>  H        1.6411260197    -4.5068776298    -0.7896527575
| 41> *
| 42>
| 43>                          ****END OF INPUT****
 Total Charge           Charge          ....    1
 Multiplicity           Mult            ....    1
 Number of Electrons    NEL             ....   54
FINAL SINGLE POINT ENERGY      -325.955166257154

CARTESIAN COORDINATES (ANGSTROEM)
---------------------------------
  C     -1.719335    1.136885    0.405400
  C     -0.255881    0.897173    0.668068
  O     -0.000017    0.000711    1.728792
  C      0.496360    0.362165   -0.574021
  N      1.875532   -0.000067   -0.065356
  C     -0.089319   -0.828134   -1.154233
  C     -0.565288   -1.821293   -1.626934
  H     -1.859266    1.843129   -0.415572
  H     -2.185504    1.559407    1.296008
  H     -2.228249    0.206535    0.140814
  H      0.226185    1.841083    0.950715
  H     -0.740943   -0.605777    1.835679
  H      0.613995    1.146814   -1.326107
  H      1.704461   -0.467432    0.841893
  H      2.453410    0.825940    0.099215
  H      2.363769   -0.631248   -0.701295
  H     -0.995376   -2.698329   -2.059166

FINAL SINGLE POINT ENERGY      -325.955166709933
                    ***********************HURRAY********************
 Multiplicity           Mult            ....    1
 Number of Electrons    NEL             ....   54
 Basis Dimension        Dim             ....  277
FINAL SINGLE POINT ENERGY      -325.955166867463

VIBRATIONAL FREQUENCIES
-----------------------

   0:         0.00 cm**-1
   1:         0.00 cm**-1
   2:         0.00 cm**-1
   3:         0.00 cm**-1
   4:         0.00 cm**-1
   5:         0.00 cm**-1
   6:        92.54 cm**-1
   7:       143.24 cm**-1
   8:       212.49 cm**-1
   9:       238.59 cm**-1
  10:       249.84 cm**-1
  11:       270.42 cm**-1
  12:       350.89 cm**-1
  13:       368.46 cm**-1
  14:       387.33 cm**-1
  15:       476.23 cm**-1
  16:       563.61 cm**-1
  17:       682.88 cm**-1
  18:       734.99 cm**-1
  19:       768.08 cm**-1
  20:       778.51 cm**-1
  21:       887.88 cm**-1
  22:       937.35 cm**-1
  23:       967.83 cm**-1
  24:      1051.72 cm**-1
  25:      1066.41 cm**-1
  26:      1086.48 cm**-1
  27:      1133.97 cm**-1
  28:      1194.34 cm**-1
  29:      1290.16 cm**-1
  30:      1319.21 cm**-1
  31:      1340.54 cm**-1
  32:      1402.44 cm**-1
  33:      1408.40 cm**-1
  34:      1423.58 cm**-1
  35:      1462.84 cm**-1
  36:      1481.68 cm**-1
  37:      1485.93 cm**-1
  38:      1629.84 cm**-1
  39:      1661.82 cm**-1
  40:      2251.10 cm**-1
  41:      3046.74 cm**-1
  42:      3061.60 cm**-1
  43:      3099.37 cm**-1
  44:      3140.42 cm**-1
  45:      3156.60 cm**-1
  46:      3281.13 cm**-1
  47:      3450.91 cm**-1
  48:      3468.47 cm**-1
  49:      3528.49 cm**-1
  50:      3834.56 cm**-1

IR SPECTRUM
-----------

 Mode    freq (cm**-1)   T**2         TX         TY         TZ
-------------------------------------------------------------------
   6:        92.54    6.167857  ( -1.355475  -1.163483   1.725356)
   7:       143.24    0.907003  ( -0.365296  -0.729484  -0.491340)
   8:       212.49   14.771905  (  1.431194   2.286695  -2.737630)
   9:       238.59    2.531951  ( -0.004299   1.286352   0.936606)
  10:       249.84    6.297365  (  1.006498  -1.326238  -1.877610)
  11:       270.42   41.613248  (  3.501238  -2.126466  -4.983244)
  12:       350.89   61.075636  (  4.423749  -4.423591  -4.683794)
  13:       368.46   13.965805  ( -0.511614   2.908275   2.290413)
  14:       387.33   36.250333  ( -2.749207   1.193881   5.221766)
  15:       476.23    4.235787  ( -1.661689  -0.946180   0.761130)
  16:       563.61   31.675154  (  5.456084  -1.109277   0.822075)
  17:       682.88    1.883190  (  0.543435  -0.916869  -0.864418)
  18:       734.99   36.844750  (  2.388025   1.558903  -5.358349)
  19:       768.08   26.403158  ( -4.136855   2.981049  -0.634773)
  20:       778.51    8.316231  (  2.022419  -1.878793   0.834380)
  21:       887.88    7.682992  (  1.667184   1.914573  -1.112609)
  22:       937.35   18.079819  (  2.114327  -0.345490   3.672884)
  23:       967.83   14.755470  (  3.388253   1.741908  -0.490883)
  24:      1051.72   48.539033  (  3.857026  -4.001061  -4.201653)
  25:      1066.41   91.515413  ( -0.552066   3.444854  -8.907503)
  26:      1086.48   33.670299  (  1.499277  -1.952406   5.254577)
  27:      1133.97    4.125402  (  1.314074   1.537126   0.189353)
  28:      1194.34   40.110739  (  1.088821  -4.844674   3.931201)
  29:      1290.16    9.472136  (  0.965976  -1.706453   2.372139)
  30:      1319.21    0.421418  (  0.106559   0.194638  -0.610065)
  31:      1340.54    8.369143  (  1.782348   1.504463  -1.711424)
  32:      1402.44   22.617130  ( -2.827909  -3.669968  -1.073029)
  33:      1408.40   27.746040  (  2.287457  -0.902121   4.658300)
  34:      1423.58   34.157507  (  3.847504  -4.075291   1.657175)
  35:      1462.84  191.755827  ( 13.176366  -3.446738   2.501838)
  36:      1481.68    7.628615  (  1.103740   2.011629   1.537440)
  37:      1485.93   12.308239  (  1.149060  -2.774721   1.813511)
  38:      1629.84   37.676916  ( -4.103019  -4.019156   2.165304)
  39:      1661.82   40.169736  ( -1.474211   3.788121   4.862775)
  40:      2251.10   27.034326  ( -2.712398  -3.869398  -2.169096)
  41:      3046.74   11.560960  (  2.083294   2.683388  -0.142382)
  42:      3061.60    2.109360  ( -0.910833  -1.076820  -0.346704)
  43:      3099.37    1.235003  (  0.349447   0.842310   0.635141)
  44:      3140.42    3.982117  ( -0.566302  -1.858627   0.454889)
  45:      3156.60    1.256889  ( -0.074376   0.653428   0.907959)
  46:      3281.13  125.948142  ( -3.008081  -2.608770  10.492565)
  47:      3450.91  100.197862  (  4.039835   8.177895   4.123061)
  48:      3468.47  107.082219  ( -8.886435  -1.952001   4.929825)
  49:      3528.49   89.580074  ( -0.810190   8.018322   4.962880)
  50:      3834.56   77.200124  ( -5.688964  -5.141498   4.289617)

--------------------------
THERMOCHEMISTRY AT 298.15K
--------------------------

Temperature         ... 298.15 K
Pressure            ... 1.00 atm
Total Mass          ... 100.14 AMU

Throughout the following assumptions are being made:
  (1) The electronic state is orbitally nondegenerate
  (2) There are no thermally accessible electronically excited states
  (3) Hindered rotations indicated by low frequency modes) are not
      treated as such but are treated as vibrations and this may
      case some error
  (4) All equations used are the standard statistical mechanics
      equations for an ideal gas
  (5) All vibrations are strinctly harmonic

------------
INNER ENERGY
------------

The inner energy is: U= E(el) + E(ZPE) + E(vib) + E(rot) + E(trans)
    E(el)   - is the total energy from the electronic structure calculation
              = E(kin-el) + E(nuc-el) + E(el-el) + E(nuc-nuc)
    E(ZPE)  - the the zero temperature vibrational energy from the frequency calculation
    E(vib)  - the the finite temperature correction to E(ZPE) due to population
              of excietd vibrational states
    E(rot)  - is the rotational thermal energy
    E(trans)- is the translational thermal energy

Summary of contributions to the inner energy U:
Electronic energy                ...   -325.95516687 Eh
Zero point energy                ...      0.15006271 Eh      94.17 kcal/mol
Thermal vibrational correction   ...      0.00557625 Eh       3.50 kcal/mol
Thermal rotational correction    ...      0.00141627 Eh       0.89 kcal/mol
Thermal translational correction ...      0.00141627 Eh       0.89 kcal/mol
-----------------------------------------------------------------------
Total thermal energy                   -325.79669537 Eh

Summary of corrections to the electronic energy:
(perhaps to be used in another calculation)
Total thermal correction                  0.00840879 Eh       5.28 kcal/mol
Non-thermal (ZPE) correction              0.15006271 Eh      94.17 kcal/mol
-----------------------------------------------------------------------
Total correction                          0.15847150 Eh      99.44 kcal/mol

--------
ENTHALPY
--------

The enthalpy is H = U + kB*T
                kB is Boltzmann's constant
Total free energy                 ...   -325.79669537 Eh
Thermal Enthalpy correction       ...      0.00094421 Eh       0.59 kcal/mol
-----------------------------------------------------------------------
Total Enthalpy                    ...   -325.79575116 Eh

-------
ENTROPY
-------

The entropy contributions are T*S = T*(S(el)+S(vib)+S(rot)+S(trans)
     S(el)   - electronic entropy
     S(vib)  - vibrational entropy
     S(rot)  - rotational entropy
     S(trans)- translational entropy
The entropies will be listed as mutliplied by the temperature to get
units of energy

Electronic entropy                ...      0.00000000 Eh      0.00 kcal/mol
Vibrational entropy               ...      0.00947461 Eh      5.95 kcal/mol
Rotational entropy                ...      0.01210031 Eh      7.59 kcal/mol
Translational entropy             ...      0.01887324 Eh     11.84 kcal/mol
-----------------------------------------------------------------------
Final entropy term                ...      0.04044816 Eh     25.38 kcal/mol

CAUTION: The rotational entropy is not quite correctly treated here
         because it includes a symmetry number that is not yet correctly
         implemented in ORCA!
For a nonlinear molecule the correct rotational entropy is:
    S(rot) = R*(ln(qrot/sn)+1.5)
    R    = 8.31441 J/mol/K = 1.987191683e-3 kcal/mol/K
    qrot = 246293.3171057
    sn is the rotational symmetry number. We have assumed 3 here
       if it is different for your molecule then you should correct
       the printed rotational entropy by manually evaluating the equation
       as given above

For convenience we print out the resulting values for sn=1 - 12:
 sn= 1  qrot/sn=  246293.3171 T*S(rot)=     8.24 kcal/mol T*S(tot)=    26.03 kcal/mol
 sn= 2  qrot/sn=  123146.6586 T*S(rot)=     7.83 kcal/mol T*S(tot)=    25.62 kcal/mol
 sn= 3  qrot/sn=   82097.7724 T*S(rot)=     7.59 kcal/mol T*S(tot)=    25.38 kcal/mol
 sn= 4  qrot/sn=   61573.3293 T*S(rot)=     7.42 kcal/mol T*S(tot)=    25.21 kcal/mol
 sn= 5  qrot/sn=   49258.6634 T*S(rot)=     7.29 kcal/mol T*S(tot)=    25.08 kcal/mol
 sn= 6  qrot/sn=   41048.8862 T*S(rot)=     7.18 kcal/mol T*S(tot)=    24.97 kcal/mol
 sn= 7  qrot/sn=   35184.7596 T*S(rot)=     7.09 kcal/mol T*S(tot)=    24.88 kcal/mol
 sn= 8  qrot/sn=   30786.6646 T*S(rot)=     7.01 kcal/mol T*S(tot)=    24.80 kcal/mol
 sn= 9  qrot/sn=   27365.9241 T*S(rot)=     6.94 kcal/mol T*S(tot)=    24.73 kcal/mol
 sn=10  qrot/sn=   24629.3317 T*S(rot)=     6.88 kcal/mol T*S(tot)=    24.67 kcal/mol
 sn=11  qrot/sn=   22390.3016 T*S(rot)=     6.82 kcal/mol T*S(tot)=    24.61 kcal/mol
 sn=12  qrot/sn=   20524.4431 T*S(rot)=     6.77 kcal/mol T*S(tot)=    24.56 kcal/mol

-------------------
GIBBS FREE ENTHALPY
-------------------

The Gibbs free enthalpy is G = H - T*S

Total enthalpy                    ...   -325.79575116 Eh
Total entropy correction          ...     -0.04044816 Eh    -25.38 kcal/mol
-----------------------------------------------------------------------
Final Gibbs free enthalpy         ...   -325.83619931 Eh

For completeness - the Gibbs free enthalpy minus the electronic energy
G-E(el)                           ...      0.11896755 Eh     74.65 kcal/mol

                             ****ORCA TERMINATED NORMALLY****
TOTAL RUN TIME: 0 days 0 hours 44 minutes 4 seconds 743 msec
