                         Program Version 3.0.3 - RELEASE   -
|  1> ! NORI PBE0 def2-TZVP UseSym TightOPT Freq TightSCF Grid3 FinalGrid5 XYZFile
|  2> % pal
|  3>     nprocs 8
|  4> end
|  5> %method
|  6>     SymThresh 5.0e-2
|  7> end
|  8> % geom
|  9>     MaxIter 10
| 10> end
| 11> % maxcore 2000
| 12> % output
| 13>     printlevel mini
| 14>     print[ P_Basis ] 0
| 15>     print[ P_SCFInfo ] 1
| 16>     print[ P_SCFIterInfo ] 1
| 17>     print[ P_OrbEn ] 0
| 18>     print[ P_Cartesian ] 0
| 19> end
| 20> % elprop
| 21>     Dipole false
| 22> end
| 23> *xyz 1 1
| 24>  C        1.2107635099     0.4272311564     0.1872390864
| 25>  C        2.6621592852     0.2742520041     0.5813984797
| 26>  O        2.9194104588    -0.9057492524     1.3258593979
| 27>  C        3.5468601825     0.1212347777    -0.6454439010
| 28>  N        4.9028664633    -0.3689227946    -0.2418370246
| 29>  C        5.6104620824    -1.0420507723    -1.3581632682
| 30>  C        5.7394566149     0.6930039881     0.3724083240
| 31>  H        1.0680904661     1.3099585356    -0.4405242437
| 32>  H        0.5884054876     0.5563312382     1.0746420883
| 33>  H        0.8615714641    -0.4529620551    -0.3565945186
| 34>  H        2.9739515085     1.1540302407     1.1612646771
| 35>  H        2.3379225545    -0.9615864294     2.0895917693
| 36>  H        3.1237176651    -0.6392302378    -1.3042758620
| 37>  H        3.6623813720     1.0535080691    -1.1986357763
| 38>  H        4.6924436300    -1.0603859498     0.4907145638
| 39>  H        5.7608545037    -0.3250508485    -2.1639417173
| 40>  H        5.0068542765    -1.8767505114    -1.7099738724
| 41>  H        6.5727223669    -1.4049313872    -1.0019102235
| 42>  H        5.9458402720     1.4539528061    -0.3789295359
| 43>  H        6.6720702796     0.2519168680     0.7190197672
| 44>  H        5.2077955564     1.1302305546     1.2141017898
| 45> *
| 46>
| 47>                          ****END OF INPUT****
 Total Charge           Charge          ....    1
 Multiplicity           Mult            ....    1
 Number of Electrons    NEL             ....   58
FINAL SINGLE POINT ENERGY      -328.439912545262
FINAL SINGLE POINT ENERGY      -328.439914060147

CARTESIAN COORDINATES (ANGSTROEM)
---------------------------------
  C     -2.355043   -0.358061    1.163112
  C     -1.026399    0.256361    0.784936
  O     -0.000856   -0.000314    1.730955
  C     -0.489744   -0.356429   -0.498614
  N      0.953799   -0.000124   -0.673202
  C      1.664776   -0.958861   -1.553572
  C      1.150335    1.400712   -1.122723
  H     -3.098972   -0.190959    0.380716
  H     -2.738108    0.099203    2.077537
  H     -2.251899   -1.432332    1.329013
  H     -1.152219    1.340187    0.658437
  H     -0.274580    0.269676    2.612396
  H     -0.536290   -1.444177   -0.427258
  H     -1.040056   -0.029329   -1.381034
  H      1.330527   -0.074563    0.281785
  H      1.210228   -0.932538   -2.543228
  H      1.581098   -1.958664   -1.132017
  H      2.712714   -0.670931   -1.620582
  H      0.730170    1.510347   -2.121541
  H      2.216723    1.618622   -1.143239
  H      0.653845    2.076035   -0.429798

FINAL SINGLE POINT ENERGY      -328.439914893508
                    ***********************HURRAY********************
 Multiplicity           Mult            ....    1
 Number of Electrons    NEL             ....   58
 Basis Dimension        Dim             ....  301
FINAL SINGLE POINT ENERGY      -328.439915239554

VIBRATIONAL FREQUENCIES
-----------------------

   0:         0.00 cm**-1
   1:         0.00 cm**-1
   2:         0.00 cm**-1
   3:         0.00 cm**-1
   4:         0.00 cm**-1
   5:         0.00 cm**-1
   6:        60.92 cm**-1
   7:       116.20 cm**-1
   8:       185.82 cm**-1
   9:       210.60 cm**-1
  10:       240.15 cm**-1
  11:       249.50 cm**-1
  12:       279.53 cm**-1
  13:       308.73 cm**-1
  14:       379.14 cm**-1
  15:       423.74 cm**-1
  16:       450.00 cm**-1
  17:       485.34 cm**-1
  18:       523.98 cm**-1
  19:       849.38 cm**-1
  20:       868.79 cm**-1
  21:       930.90 cm**-1
  22:       950.65 cm**-1
  23:       996.26 cm**-1
  24:      1026.43 cm**-1
  25:      1058.03 cm**-1
  26:      1082.82 cm**-1
  27:      1106.15 cm**-1
  28:      1133.33 cm**-1
  29:      1181.78 cm**-1
  30:      1217.79 cm**-1
  31:      1259.10 cm**-1
  32:      1264.25 cm**-1
  33:      1320.33 cm**-1
  34:      1351.05 cm**-1
  35:      1378.07 cm**-1
  36:      1414.06 cm**-1
  37:      1423.15 cm**-1
  38:      1429.08 cm**-1
  39:      1442.02 cm**-1
  40:      1458.90 cm**-1
  41:      1466.42 cm**-1
  42:      1476.31 cm**-1
  43:      1484.56 cm**-1
  44:      1488.70 cm**-1
  45:      1491.56 cm**-1
  46:      1500.77 cm**-1
  47:      1503.30 cm**-1
  48:      1508.54 cm**-1
  49:      3019.86 cm**-1
  50:      3058.71 cm**-1
  51:      3085.78 cm**-1
  52:      3090.63 cm**-1
  53:      3098.00 cm**-1
  54:      3139.04 cm**-1
  55:      3145.54 cm**-1
  56:      3162.67 cm**-1
  57:      3182.92 cm**-1
  58:      3185.58 cm**-1
  59:      3189.94 cm**-1
  60:      3196.58 cm**-1
  61:      3350.29 cm**-1
  62:      3861.47 cm**-1

IR SPECTRUM
-----------

 Mode    freq (cm**-1)   T**2         TX         TY         TZ
-------------------------------------------------------------------
   6:        60.92    3.464195  ( -0.127718  -1.846683  -0.194025)
   7:       116.20    3.648190  (  0.976157   0.730880  -1.470075)
   8:       185.82    5.038804  ( -1.043660  -0.028086   1.987156)
   9:       210.60    0.199482  ( -0.130024  -0.416398   0.095853)
  10:       240.15    0.719006  (  0.356555   0.720151  -0.270661)
  11:       249.50    3.274618  ( -0.829678  -0.698313   1.448659)
  12:       279.53  109.083619  (  3.890399   9.649132  -0.917963)
  13:       308.73   11.474663  (  1.978232   2.150276  -1.713934)
  14:       379.14    2.158036  ( -0.436001   0.447111   1.329673)
  15:       423.74    9.915425  ( -1.702505  -1.325968   2.293188)
  16:       450.00    3.504439  ( -0.317416  -0.626355  -1.735329)
  17:       485.34    0.863004  ( -0.477197  -0.796921  -0.014300)
  18:       523.98   10.672394  (  1.796807  -0.619897   2.656992)
  19:       849.38    0.794599  (  0.487169   0.736071   0.124359)
  20:       868.79   14.468446  (  3.216704   0.189262   2.021247)
  21:       930.90    3.279772  ( -1.771130  -0.361139  -0.111576)
  22:       950.65   11.384784  (  1.819829  -0.423167   2.809615)
  23:       996.26   36.828344  (  5.687211   0.751562  -1.979680)
  24:      1026.43   18.285947  ( -0.745557   4.146156   0.734494)
  25:      1058.03    3.257314  (  0.461176  -0.560838  -1.652299)
  26:      1082.82    8.526628  ( -1.540085  -0.112620  -2.478322)
  27:      1106.15   21.051070  (  1.553743  -2.042316   3.803406)
  28:      1133.33   55.855134  ( -4.030689   0.288569  -6.286924)
  29:      1181.78    1.013316  (  0.943256  -0.344508   0.069993)
  30:      1217.79   12.525800  ( -3.157816   1.333244  -0.881170)
  31:      1259.10    2.150997  (  0.165349  -0.144032   1.450142)
  32:      1264.25   27.889175  (  4.340701  -0.973474   2.846021)
  33:      1320.33   20.932493  (  4.338043  -1.295258   0.660441)
  34:      1351.05    3.660434  (  0.374791  -0.096718   1.873663)
  35:      1378.07   10.375294  (  3.208364   0.183414   0.219214)
  36:      1414.06    7.737285  (  1.516750   1.764320   1.524444)
  37:      1423.15   75.843258  (  7.125029  -1.055730  -4.895167)
  38:      1429.08    7.915336  (  1.672565   1.463093  -1.725463)
  39:      1442.02    2.014671  ( -0.121493  -1.414147   0.009993)
  40:      1458.90    2.248932  ( -0.680350  -0.986402   0.901703)
  41:      1466.42    3.441469  (  1.496840   0.752754  -0.796429)
  42:      1476.31    7.464528  (  0.220784  -2.118382   1.711210)
  43:      1484.56    1.741762  ( -0.380809   1.013723  -0.754396)
  44:      1488.70    7.188270  (  1.151081  -2.233620  -0.934998)
  45:      1491.56   12.560145  (  2.035690  -1.927926   2.167767)
  46:      1500.77   33.695958  ( -3.587021   1.321038   4.368535)
  47:      1503.30   16.074933  (  1.572926  -3.297311   1.651840)
  48:      1508.54   52.427350  (  5.561366   3.795661   2.662991)
  49:      3019.86   24.131472  (  0.415918  -4.433570   2.074111)
  50:      3058.71    1.731176  ( -1.009919  -0.733834   0.415604)
  51:      3085.78    0.576408  (  0.409491  -0.329644  -0.547777)
  52:      3090.63    1.077749  ( -0.166959  -0.807855   0.630273)
  53:      3098.00    1.641877  ( -0.223781  -1.058278  -0.686912)
  54:      3139.04    4.453619  ( -0.411106   0.044186  -2.069459)
  55:      3145.54    5.740564  ( -0.712138   2.267013   0.306721)
  56:      3162.67    1.878148  ( -0.164378   1.007947  -0.913876)
  57:      3182.92    0.143469  (  0.242694  -0.142825   0.253318)
  58:      3185.58    0.621730  (  0.331389   0.069185   0.712127)
  59:      3189.94    0.199425  (  0.266085   0.227749  -0.277046)
  60:      3196.58    0.412640  ( -0.190297   0.443040   0.424433)
  61:      3350.29  140.835520  ( -0.357689   0.602598 -11.846706)
  62:      3861.47  102.327003  (  0.426959  -1.987175  -9.909382)

--------------------------
THERMOCHEMISTRY AT 298.15K
--------------------------

Temperature         ... 298.15 K
Pressure            ... 1.00 atm
Total Mass          ... 104.17 AMU

Throughout the following assumptions are being made:
  (1) The electronic state is orbitally nondegenerate
  (2) There are no thermally accessible electronically excited states
  (3) Hindered rotations indicated by low frequency modes) are not
      treated as such but are treated as vibrations and this may
      case some error
  (4) All equations used are the standard statistical mechanics
      equations for an ideal gas
  (5) All vibrations are strinctly harmonic

------------
INNER ENERGY
------------

The inner energy is: U= E(el) + E(ZPE) + E(vib) + E(rot) + E(trans)
    E(el)   - is the total energy from the electronic structure calculation
              = E(kin-el) + E(nuc-el) + E(el-el) + E(nuc-nuc)
    E(ZPE)  - the the zero temperature vibrational energy from the frequency calculation
    E(vib)  - the the finite temperature correction to E(ZPE) due to population
              of excietd vibrational states
    E(rot)  - is the rotational thermal energy
    E(trans)- is the translational thermal energy

Summary of contributions to the inner energy U:
Electronic energy                ...   -328.43991524 Eh
Zero point energy                ...      0.19761536 Eh     124.01 kcal/mol
Thermal vibrational correction   ...      0.00636304 Eh       3.99 kcal/mol
Thermal rotational correction    ...      0.00141627 Eh       0.89 kcal/mol
Thermal translational correction ...      0.00141627 Eh       0.89 kcal/mol
-----------------------------------------------------------------------
Total thermal energy                   -328.23310430 Eh

Summary of corrections to the electronic energy:
(perhaps to be used in another calculation)
Total thermal correction                  0.00919558 Eh       5.77 kcal/mol
Non-thermal (ZPE) correction              0.19761536 Eh     124.01 kcal/mol
-----------------------------------------------------------------------
Total correction                          0.20681094 Eh     129.78 kcal/mol

--------
ENTHALPY
--------

The enthalpy is H = U + kB*T
                kB is Boltzmann's constant
Total free energy                 ...   -328.23310430 Eh
Thermal Enthalpy correction       ...      0.00094421 Eh       0.59 kcal/mol
-----------------------------------------------------------------------
Total Enthalpy                    ...   -328.23216009 Eh

-------
ENTROPY
-------

The entropy contributions are T*S = T*(S(el)+S(vib)+S(rot)+S(trans)
     S(el)   - electronic entropy
     S(vib)  - vibrational entropy
     S(rot)  - rotational entropy
     S(trans)- translational entropy
The entropies will be listed as mutliplied by the temperature to get
units of energy

Electronic entropy                ...      0.00000000 Eh      0.00 kcal/mol
Vibrational entropy               ...      0.01128245 Eh      7.08 kcal/mol
Rotational entropy                ...      0.01222811 Eh      7.67 kcal/mol
Translational entropy             ...      0.01892914 Eh     11.88 kcal/mol
-----------------------------------------------------------------------
Final entropy term                ...      0.04243970 Eh     26.63 kcal/mol

CAUTION: The rotational entropy is not quite correctly treated here
         because it includes a symmetry number that is not yet correctly
         implemented in ORCA!
For a nonlinear molecule the correct rotational entropy is:
    S(rot) = R*(ln(qrot/sn)+1.5)
    R    = 8.31441 J/mol/K = 1.987191683e-3 kcal/mol/K
    qrot = 281992.5640490
    sn is the rotational symmetry number. We have assumed 3 here
       if it is different for your molecule then you should correct
       the printed rotational entropy by manually evaluating the equation
       as given above

For convenience we print out the resulting values for sn=1 - 12:
 sn= 1  qrot/sn=  281992.5640 T*S(rot)=     8.32 kcal/mol T*S(tot)=    27.28 kcal/mol
 sn= 2  qrot/sn=  140996.2820 T*S(rot)=     7.91 kcal/mol T*S(tot)=    26.87 kcal/mol
 sn= 3  qrot/sn=   93997.5213 T*S(rot)=     7.67 kcal/mol T*S(tot)=    26.63 kcal/mol
 sn= 4  qrot/sn=   70498.1410 T*S(rot)=     7.50 kcal/mol T*S(tot)=    26.46 kcal/mol
 sn= 5  qrot/sn=   56398.5128 T*S(rot)=     7.37 kcal/mol T*S(tot)=    26.33 kcal/mol
 sn= 6  qrot/sn=   46998.7607 T*S(rot)=     7.26 kcal/mol T*S(tot)=    26.22 kcal/mol
 sn= 7  qrot/sn=   40284.6520 T*S(rot)=     7.17 kcal/mol T*S(tot)=    26.13 kcal/mol
 sn= 8  qrot/sn=   35249.0705 T*S(rot)=     7.09 kcal/mol T*S(tot)=    26.05 kcal/mol
 sn= 9  qrot/sn=   31332.5071 T*S(rot)=     7.02 kcal/mol T*S(tot)=    25.98 kcal/mol
 sn=10  qrot/sn=   28199.2564 T*S(rot)=     6.96 kcal/mol T*S(tot)=    25.92 kcal/mol
 sn=11  qrot/sn=   25635.6876 T*S(rot)=     6.90 kcal/mol T*S(tot)=    25.86 kcal/mol
 sn=12  qrot/sn=   23499.3803 T*S(rot)=     6.85 kcal/mol T*S(tot)=    25.81 kcal/mol

-------------------
GIBBS FREE ENTHALPY
-------------------

The Gibbs free enthalpy is G = H - T*S

Total enthalpy                    ...   -328.23216009 Eh
Total entropy correction          ...     -0.04243970 Eh    -26.63 kcal/mol
-----------------------------------------------------------------------
Final Gibbs free enthalpy         ...   -328.27459980 Eh

For completeness - the Gibbs free enthalpy minus the electronic energy
G-E(el)                           ...      0.16531544 Eh    103.74 kcal/mol

                             ****ORCA TERMINATED NORMALLY****
TOTAL RUN TIME: 0 days 0 hours 57 minutes 47 seconds 550 msec
