                         Program Version 3.0.3 - RELEASE   -
|  1> ! NORI PBE0 def2-TZVP UseSym TightOPT Freq TightSCF Grid3 FinalGrid5 XYZFile
|  2> % pal
|  3>     nprocs 8
|  4> end
|  5> %method
|  6>     SymThresh 5.0e-2
|  7> end
|  8> % geom
|  9>     MaxIter 10
| 10> end
| 11> % maxcore 2000
| 12> % output
| 13>     printlevel mini
| 14>     print[ P_Basis ] 0
| 15>     print[ P_SCFInfo ] 1
| 16>     print[ P_SCFIterInfo ] 1
| 17>     print[ P_OrbEn ] 0
| 18>     print[ P_Cartesian ] 0
| 19> end
| 20> % elprop
| 21>     Dipole false
| 22> end
| 23> *xyz 1 1
| 24>  C        0.9949384093    -0.1621670109     0.2128146179
| 25>  C        2.3799275193     0.4122305806    -0.0254634782
| 26>  O        3.1841207094    -0.4567784085    -0.8092363969
| 27>  C        2.2836072320     1.6629046103    -0.8999035207
| 28>  N        3.6481983644     1.9789335744    -1.4170766780
| 29>  C        3.0466115951     0.7239258866     1.3133464466
| 30>  O        4.2246093669     1.4857847924     1.0890897492
| 31>  H        0.5610688797    -0.4970323485    -0.7300247205
| 32>  H        0.3257319199     0.5729236367     0.6650616373
| 33>  H        1.0489888526    -1.0199296731     0.8880456304
| 34>  H        3.1940578047    -1.3417768318    -0.4325839735
| 35>  H        1.6350513713     1.4824497121    -1.7567786703
| 36>  H        1.9215591106     2.5248902297    -0.3406903763
| 37>  H        3.9999278316     1.1535159323    -1.9109417791
| 38>  H        4.2569047548     2.1130737610    -0.5896364017
| 39>  H        3.6639608198     2.7915770575    -2.0301743727
| 40>  H        3.2851218930    -0.2212279070     1.8134787182
| 41>  H        2.3462312245     1.2810579322     1.9456428847
| 42>  H        4.7013923410     1.6212144740     1.9121806835
| 43> *
| 44>
| 45>                          ****END OF INPUT****
 Total Charge           Charge          ....    1
 Multiplicity           Mult            ....    1
 Number of Electrons    NEL             ....   58
FINAL SINGLE POINT ENERGY      -364.352671333287

CARTESIAN COORDINATES (ANGSTROEM)
---------------------------------
  C     -1.521244    1.475560    0.299183
  C     -0.405903    0.449659    0.211808
  O     -0.000091    0.000614    1.496357
  C     -0.924462   -0.830195   -0.445169
  N      0.059335   -1.922696   -0.183526
  C      0.772129    1.032836   -0.567103
  O      1.701707   -0.000190   -0.861667
  H     -2.315255    1.110819    0.952110
  H     -1.947002    1.693063   -0.682605
  H     -1.143794    2.414722    0.711359
  H      0.207777    0.746744    2.066841
  H     -1.877388   -1.126242   -0.007186
  H     -1.034436   -0.719842   -1.523371
  H      0.188218   -1.998348    0.829646
  H      0.965044   -1.608687   -0.576610
  H     -0.227526   -2.819151   -0.571537
  H      1.240457    1.814466    0.041041
  H      0.403656    1.490653   -1.491992
  H      2.488488    0.361737   -1.277849

FINAL SINGLE POINT ENERGY      -364.352672308346
                    ***********************HURRAY********************
 Multiplicity           Mult            ....    1
 Number of Electrons    NEL             ....   58
 Basis Dimension        Dim             ....  289
FINAL SINGLE POINT ENERGY      -364.352672710365

VIBRATIONAL FREQUENCIES
-----------------------

   0:         0.00 cm**-1
   1:         0.00 cm**-1
   2:         0.00 cm**-1
   3:         0.00 cm**-1
   4:         0.00 cm**-1
   5:         0.00 cm**-1
   6:       123.14 cm**-1
   7:       187.21 cm**-1
   8:       220.79 cm**-1
   9:       230.04 cm**-1
  10:       265.37 cm**-1
  11:       269.68 cm**-1
  12:       281.77 cm**-1
  13:       307.70 cm**-1
  14:       371.82 cm**-1
  15:       381.22 cm**-1
  16:       408.72 cm**-1
  17:       497.54 cm**-1
  18:       588.32 cm**-1
  19:       763.92 cm**-1
  20:       862.61 cm**-1
  21:       910.40 cm**-1
  22:       947.11 cm**-1
  23:       985.70 cm**-1
  24:      1004.47 cm**-1
  25:      1067.14 cm**-1
  26:      1087.68 cm**-1
  27:      1102.77 cm**-1
  28:      1122.34 cm**-1
  29:      1210.51 cm**-1
  30:      1235.69 cm**-1
  31:      1255.29 cm**-1
  32:      1294.78 cm**-1
  33:      1352.23 cm**-1
  34:      1359.87 cm**-1
  35:      1412.42 cm**-1
  36:      1419.38 cm**-1
  37:      1449.68 cm**-1
  38:      1480.42 cm**-1
  39:      1488.16 cm**-1
  40:      1493.33 cm**-1
  41:      1499.06 cm**-1
  42:      1506.47 cm**-1
  43:      1604.62 cm**-1
  44:      1674.66 cm**-1
  45:      3038.02 cm**-1
  46:      3059.92 cm**-1
  47:      3087.97 cm**-1
  48:      3110.18 cm**-1
  49:      3136.70 cm**-1
  50:      3151.61 cm**-1
  51:      3174.44 cm**-1
  52:      3232.36 cm**-1
  53:      3440.10 cm**-1
  54:      3539.99 cm**-1
  55:      3854.57 cm**-1
  56:      3870.58 cm**-1

IR SPECTRUM
-----------

 Mode    freq (cm**-1)   T**2         TX         TY         TZ
-------------------------------------------------------------------
   6:       123.14   16.164754  ( -0.010366  -0.506326  -3.988519)
   7:       187.21   24.816557  (  3.460980   0.743066  -3.505143)
   8:       220.79   35.428333  ( -3.379553   1.536285   4.652611)
   9:       230.04   12.177966  ( -1.641068  -0.268543   3.068020)
  10:       265.37   89.550989  (  6.492746  -0.622975   6.856175)
  11:       269.68   44.955824  (  5.015269  -1.515772  -4.183938)
  12:       281.77   56.122886  ( -6.303138  -1.505002  -3.758763)
  13:       307.70   44.094603  ( -5.479356  -3.631997   0.938007)
  14:       371.82   17.599416  ( -0.021822  -3.991495  -1.291089)
  15:       381.22    4.080904  ( -0.514286   1.667837   1.017218)
  16:       408.72   15.704001  ( -0.256397  -3.598574  -1.639674)
  17:       497.54   11.141239  (  2.607951  -1.364088   1.574513)
  18:       588.32   18.992284  ( -3.621183  -0.318806   2.403681)
  19:       763.92   13.836044  (  2.799236   1.319935  -2.063515)
  20:       862.61   11.896243  (  3.071583  -0.220824  -1.553337)
  21:       910.40   16.663430  (  1.811191   0.638956   3.602048)
  22:       947.11   20.868844  (  0.791588   0.735614  -4.438593)
  23:       985.70    4.750259  (  1.756725  -0.770491   1.034660)
  24:      1004.47   12.577642  (  0.563593   3.343425   1.039959)
  25:      1067.14   72.933942  ( -1.717389   1.099071  -8.293163)
  26:      1087.68   72.650541  ( -4.925383   6.409316   2.704038)
  27:      1102.77   41.121925  ( -5.334039  -3.402307  -1.046069)
  28:      1122.34    8.133395  (  1.353155  -0.027925   2.510296)
  29:      1210.51   48.524430  ( -1.541458   5.615177  -3.823366)
  30:      1235.69   61.226048  (  4.492233  -6.329413   0.992177)
  31:      1255.29    1.682263  (  0.937675  -0.591208  -0.673426)
  32:      1294.78   15.250600  (  0.465613  -0.354807   3.861077)
  33:      1352.23    1.129921  (  0.626324  -0.701244  -0.495879)
  34:      1359.87   29.442011  (  2.166841   1.566493  -4.721537)
  35:      1412.42   11.672157  (  2.525443  -2.246977   0.495367)
  36:      1419.38    5.096741  ( -0.270250  -1.692873   1.468975)
  37:      1449.68   17.044226  (  1.603485  -3.691216   0.920860)
  38:      1480.42   15.874365  (  2.635890  -2.958772   0.414869)
  39:      1488.16   32.827962  (  3.458315  -4.564162   0.190904)
  40:      1493.33   19.794317  (  3.003657   0.474075   3.247709)
  41:      1499.06  136.651108  ( -2.959868  11.246715  -1.183929)
  42:      1506.47   35.557666  ( -0.077851   5.539819  -2.204998)
  43:      1604.62   20.426231  ( -0.734600  -0.228141   4.453599)
  44:      1674.66   46.630759  ( -3.467517  -5.194604  -2.761009)
  45:      3038.02   20.412233  ( -1.305580   4.312277  -0.334603)
  46:      3059.92    2.431958  ( -0.598073   1.439898   0.030975)
  47:      3087.97   11.209252  (  1.396952   0.778202   2.941459)
  48:      3110.18    3.445266  (  1.812893   0.388877   0.086375)
  49:      3136.70    5.825012  (  1.303382   1.105823   1.703925)
  50:      3151.61    2.502994  (  0.639711   0.780397  -1.218500)
  51:      3174.44    4.012830  ( -1.400149  -1.074553   0.947497)
  52:      3232.36  278.602637  (-13.349010  -8.590666   5.158200)
  53:      3440.10   90.475390  ( -1.123426  -3.876141   8.613294)
  54:      3539.99  118.647143  (  3.476952   8.650105   5.633261)
  55:      3854.57   81.366837  ( -1.768867  -4.517087  -7.604858)
  56:      3870.58  121.645575  (  9.883428   2.115362  -4.414597)

--------------------------
THERMOCHEMISTRY AT 298.15K
--------------------------

Temperature         ... 298.15 K
Pressure            ... 1.00 atm
Total Mass          ... 106.14 AMU

Throughout the following assumptions are being made:
  (1) The electronic state is orbitally nondegenerate
  (2) There are no thermally accessible electronically excited states
  (3) Hindered rotations indicated by low frequency modes) are not
      treated as such but are treated as vibrations and this may
      case some error
  (4) All equations used are the standard statistical mechanics
      equations for an ideal gas
  (5) All vibrations are strinctly harmonic

------------
INNER ENERGY
------------

The inner energy is: U= E(el) + E(ZPE) + E(vib) + E(rot) + E(trans)
    E(el)   - is the total energy from the electronic structure calculation
              = E(kin-el) + E(nuc-el) + E(el-el) + E(nuc-nuc)
    E(ZPE)  - the the zero temperature vibrational energy from the frequency calculation
    E(vib)  - the the finite temperature correction to E(ZPE) due to population
              of excietd vibrational states
    E(rot)  - is the rotational thermal energy
    E(trans)- is the translational thermal energy

Summary of contributions to the inner energy U:
Electronic energy                ...   -364.35267271 Eh
Zero point energy                ...      0.17409858 Eh     109.25 kcal/mol
Thermal vibrational correction   ...      0.00600463 Eh       3.77 kcal/mol
Thermal rotational correction    ...      0.00141627 Eh       0.89 kcal/mol
Thermal translational correction ...      0.00141627 Eh       0.89 kcal/mol
-----------------------------------------------------------------------
Total thermal energy                   -364.16973696 Eh

Summary of corrections to the electronic energy:
(perhaps to be used in another calculation)
Total thermal correction                  0.00883718 Eh       5.55 kcal/mol
Non-thermal (ZPE) correction              0.17409858 Eh     109.25 kcal/mol
-----------------------------------------------------------------------
Total correction                          0.18293575 Eh     114.79 kcal/mol

--------
ENTHALPY
--------

The enthalpy is H = U + kB*T
                kB is Boltzmann's constant
Total free energy                 ...   -364.16973696 Eh
Thermal Enthalpy correction       ...      0.00094421 Eh       0.59 kcal/mol
-----------------------------------------------------------------------
Total Enthalpy                    ...   -364.16879275 Eh

-------
ENTROPY
-------

The entropy contributions are T*S = T*(S(el)+S(vib)+S(rot)+S(trans)
     S(el)   - electronic entropy
     S(vib)  - vibrational entropy
     S(rot)  - rotational entropy
     S(trans)- translational entropy
The entropies will be listed as mutliplied by the temperature to get
units of energy

Electronic entropy                ...      0.00000000 Eh      0.00 kcal/mol
Vibrational entropy               ...      0.00989692 Eh      6.21 kcal/mol
Rotational entropy                ...      0.01204934 Eh      7.56 kcal/mol
Translational entropy             ...      0.01895570 Eh     11.89 kcal/mol
-----------------------------------------------------------------------
Final entropy term                ...      0.04090197 Eh     25.67 kcal/mol

CAUTION: The rotational entropy is not quite correctly treated here
         because it includes a symmetry number that is not yet correctly
         implemented in ORCA!
For a nonlinear molecule the correct rotational entropy is:
    S(rot) = R*(ln(qrot/sn)+1.5)
    R    = 8.31441 J/mol/K = 1.987191683e-3 kcal/mol/K
    qrot = 233351.3092050
    sn is the rotational symmetry number. We have assumed 3 here
       if it is different for your molecule then you should correct
       the printed rotational entropy by manually evaluating the equation
       as given above

For convenience we print out the resulting values for sn=1 - 12:
 sn= 1  qrot/sn=  233351.3092 T*S(rot)=     8.21 kcal/mol T*S(tot)=    26.32 kcal/mol
 sn= 2  qrot/sn=  116675.6546 T*S(rot)=     7.80 kcal/mol T*S(tot)=    25.91 kcal/mol
 sn= 3  qrot/sn=   77783.7697 T*S(rot)=     7.56 kcal/mol T*S(tot)=    25.67 kcal/mol
 sn= 4  qrot/sn=   58337.8273 T*S(rot)=     7.39 kcal/mol T*S(tot)=    25.50 kcal/mol
 sn= 5  qrot/sn=   46670.2618 T*S(rot)=     7.26 kcal/mol T*S(tot)=    25.36 kcal/mol
 sn= 6  qrot/sn=   38891.8849 T*S(rot)=     7.15 kcal/mol T*S(tot)=    25.26 kcal/mol
 sn= 7  qrot/sn=   33335.9013 T*S(rot)=     7.06 kcal/mol T*S(tot)=    25.16 kcal/mol
 sn= 8  qrot/sn=   29168.9137 T*S(rot)=     6.98 kcal/mol T*S(tot)=    25.09 kcal/mol
 sn= 9  qrot/sn=   25927.9232 T*S(rot)=     6.91 kcal/mol T*S(tot)=    25.02 kcal/mol
 sn=10  qrot/sn=   23335.1309 T*S(rot)=     6.85 kcal/mol T*S(tot)=    24.95 kcal/mol
 sn=11  qrot/sn=   21213.7554 T*S(rot)=     6.79 kcal/mol T*S(tot)=    24.90 kcal/mol
 sn=12  qrot/sn=   19445.9424 T*S(rot)=     6.74 kcal/mol T*S(tot)=    24.84 kcal/mol

-------------------
GIBBS FREE ENTHALPY
-------------------

The Gibbs free enthalpy is G = H - T*S

Total enthalpy                    ...   -364.16879275 Eh
Total entropy correction          ...     -0.04090197 Eh    -25.67 kcal/mol
-----------------------------------------------------------------------
Final Gibbs free enthalpy         ...   -364.20969472 Eh

For completeness - the Gibbs free enthalpy minus the electronic energy
G-E(el)                           ...      0.14297799 Eh     89.72 kcal/mol

                             ****ORCA TERMINATED NORMALLY****
TOTAL RUN TIME: 0 days 0 hours 53 minutes 2 seconds 347 msec
