                         Program Version 3.0.3 - RELEASE   -
|  1> ! NORI PBE0 def2-TZVP UseSym TightOPT Freq TightSCF Grid3 FinalGrid5 XYZFile
|  2> % pal
|  3>     nprocs 8
|  4> end
|  5> %method
|  6>     SymThresh 5.0e-2
|  7> end
|  8> % geom
|  9>     MaxIter 10
| 10> end
| 11> % maxcore 2000
| 12> % output
| 13>     printlevel mini
| 14>     print[ P_Basis ] 0
| 15>     print[ P_SCFInfo ] 1
| 16>     print[ P_SCFIterInfo ] 1
| 17>     print[ P_OrbEn ] 0
| 18>     print[ P_Cartesian ] 0
| 19> end
| 20> % elprop
| 21>     Dipole false
| 22> end
| 23> *xyz 1 1
| 24>  C        3.3971691433    -0.4463865671    -1.2327758931
| 25>  C        2.8534166181    -0.4236883997     0.1782184220
| 26>  O        3.4649021883    -1.3786277266     1.0311093271
| 27>  C        3.0836707443     0.9075295694     0.8871270312
| 28>  N        2.6976559078     0.7254893337     2.3280745803
| 29>  C        4.5236280245     1.4002169590     0.8973816430
| 30>  O        4.5626259220     2.4090205893     1.8846409587
| 31>  H        3.1398584186    -1.3920598865    -1.7142018177
| 32>  H        4.4834951454    -0.3457195031    -1.2449626879
| 33>  H        2.9578097693     0.3527415434    -1.8343618025
| 34>  H        1.7683593232    -0.6012159188     0.1450658591
| 35>  H        3.3599084557    -2.2661141699     0.6755586488
| 36>  H        2.4344544953     1.6839589948     0.4794229270
| 37>  H        3.0143651547    -0.2120535261     2.6081710234
| 38>  H        1.6933432700     0.7946062395     2.4826875573
| 39>  H        3.1899840930     1.4510725673     2.8680734296
| 40>  H        4.7681996802     1.7920141633    -0.0937367131
| 41>  H        5.2073932205     0.5767089390     1.1322330782
| 42>  H        5.4492804258     2.7703667990     1.9701444285
| 43> *
| 44>
| 45>                          ****END OF INPUT****
 Total Charge           Charge          ....    1
 Multiplicity           Mult            ....    1
 Number of Electrons    NEL             ....   58
FINAL SINGLE POINT ENERGY      -364.347646051323
FINAL SINGLE POINT ENERGY      -364.347647441600

CARTESIAN COORDINATES (ANGSTROEM)
---------------------------------
  C     -1.724064   -1.355710    0.752978
  C     -1.015391   -0.022851    0.850456
  O     -0.001374    0.001870    1.842246
  C     -0.286866    0.360944   -0.433897
  N      0.545517    1.576720   -0.137199
  C      0.676841   -0.686221   -0.972983
  O      1.480171   -0.001278   -1.911225
  H     -2.284750   -1.545751    1.669930
  H     -1.016956   -2.174736    0.613356
  H     -2.440814   -1.358928   -0.071577
  H     -1.757028    0.761615    1.061729
  H     -0.366369   -0.217706    2.704459
  H     -0.994698    0.642582   -1.214933
  H      0.933717    1.452434    0.807261
  H      0.009398    2.442398   -0.162889
  H      1.299360    1.606261   -0.838484
  H      0.098786   -1.487352   -1.440843
  H      1.275799   -1.109272   -0.158715
  H      2.135790   -0.590317   -2.295051

FINAL SINGLE POINT ENERGY      -364.347647727319
                    ***********************HURRAY********************
 Multiplicity           Mult            ....    1
 Number of Electrons    NEL             ....   58
 Basis Dimension        Dim             ....  289
FINAL SINGLE POINT ENERGY      -364.347647809446

VIBRATIONAL FREQUENCIES
-----------------------

   0:         0.00 cm**-1
   1:         0.00 cm**-1
   2:         0.00 cm**-1
   3:         0.00 cm**-1
   4:         0.00 cm**-1
   5:         0.00 cm**-1
   6:       107.25 cm**-1
   7:       132.50 cm**-1
   8:       210.33 cm**-1
   9:       255.93 cm**-1
  10:       280.90 cm**-1
  11:       289.16 cm**-1
  12:       305.77 cm**-1
  13:       320.59 cm**-1
  14:       350.17 cm**-1
  15:       371.66 cm**-1
  16:       483.61 cm**-1
  17:       520.66 cm**-1
  18:       637.75 cm**-1
  19:       810.28 cm**-1
  20:       892.47 cm**-1
  21:       954.61 cm**-1
  22:       956.27 cm**-1
  23:      1010.30 cm**-1
  24:      1038.53 cm**-1
  25:      1077.67 cm**-1
  26:      1103.70 cm**-1
  27:      1137.64 cm**-1
  28:      1170.95 cm**-1
  29:      1199.24 cm**-1
  30:      1212.63 cm**-1
  31:      1246.17 cm**-1
  32:      1300.71 cm**-1
  33:      1366.50 cm**-1
  34:      1372.44 cm**-1
  35:      1388.32 cm**-1
  36:      1414.86 cm**-1
  37:      1423.83 cm**-1
  38:      1442.45 cm**-1
  39:      1465.63 cm**-1
  40:      1488.22 cm**-1
  41:      1496.24 cm**-1
  42:      1521.17 cm**-1
  43:      1635.54 cm**-1
  44:      1663.32 cm**-1
  45:      3004.90 cm**-1
  46:      3049.38 cm**-1
  47:      3062.77 cm**-1
  48:      3105.05 cm**-1
  49:      3127.41 cm**-1
  50:      3140.43 cm**-1
  51:      3151.42 cm**-1
  52:      3325.68 cm**-1
  53:      3389.74 cm**-1
  54:      3530.22 cm**-1
  55:      3861.71 cm**-1
  56:      3868.43 cm**-1

IR SPECTRUM
-----------

 Mode    freq (cm**-1)   T**2         TX         TY         TZ
-------------------------------------------------------------------
   6:       107.25    4.263742  (  1.214979  -1.628940   0.366224)
   7:       132.50    5.062256  ( -1.199616  -1.759530  -0.726107)
   8:       210.33    6.270991  ( -0.017785  -2.122743  -1.328396)
   9:       255.93    2.503536  (  0.422734  -0.493220   1.442763)
  10:       280.90   47.189206  ( -0.191840  -6.701133  -1.499075)
  11:       289.16   86.994849  ( -2.930107   0.294163  -8.850016)
  12:       305.77   64.605318  (  6.510834  -4.680134  -0.557417)
  13:       320.59   79.362080  ( -2.996199  -5.837855  -6.025307)
  14:       350.17   17.841023  (  2.886760  -2.884335  -1.090068)
  15:       371.66   18.980731  ( -0.334610  -3.512488   2.555620)
  16:       483.61    4.812146  ( -0.722997  -1.771408   1.073095)
  17:       520.66   17.423335  (  2.600845   3.012873  -1.257591)
  18:       637.75   10.293192  (  1.648586   0.832137   2.623529)
  19:       810.28    1.554367  (  0.363889   0.327709  -1.146542)
  20:       892.47    6.407943  ( -2.377744  -0.217150  -0.840904)
  21:       954.61   25.123792  (  0.590763  -1.679919  -4.685367)
  22:       956.27    7.087075  ( -2.193984   0.231290  -1.489971)
  23:      1010.30   27.296760  ( -0.811189  -4.062521   3.183497)
  24:      1038.53   89.807590  ( -2.449644  -0.563266   9.137262)
  25:      1077.67   55.127624  (  6.463766   2.841852   2.295916)
  26:      1103.70   62.618605  ( -4.962238  -2.021516   5.823081)
  27:      1137.64   20.137514  ( -1.846524   1.545708  -3.786641)
  28:      1170.95    4.153000  ( -1.104590  -1.711543  -0.059169)
  29:      1199.24   62.969408  (  7.562785   0.648876   2.313579)
  30:      1212.63   17.955902  ( -1.087762  -3.567372   2.011600)
  31:      1246.17   29.833733  ( -1.124538   2.384474  -4.783663)
  32:      1300.71    3.199682  (  0.586574  -0.210587   1.676683)
  33:      1366.50    0.689778  ( -0.689212   0.460833  -0.048958)
  34:      1372.44    4.530005  (  1.453059   0.839983  -1.308837)
  35:      1388.32   15.714666  ( -1.678373  -1.741735  -3.140714)
  36:      1414.86   15.311604  (  0.924689   3.757716   0.579763)
  37:      1423.83   27.411063  ( -4.666463  -2.345015  -0.368910)
  38:      1442.45  107.825556  (  4.689137   9.122030   1.620527)
  39:      1465.63  109.346530  (  5.829769   8.676310  -0.286292)
  40:      1488.22   10.774748  (  0.975807  -2.871587  -1.255601)
  41:      1496.24   17.293872  ( -3.152566  -1.483899  -2.270076)
  42:      1521.17    5.342618  ( -0.755118   1.856975   1.150678)
  43:      1635.54   27.324957  (  2.359190  -2.994063   3.576977)
  44:      1663.32   27.957893  ( -3.702340   2.855383   2.469283)
  45:      3004.90   25.525367  ( -3.296950   3.819345  -0.260948)
  46:      3049.38   12.887947  (  0.951791   2.304332  -2.583040)
  47:      3062.77    1.325966  (  0.201369   1.130233   0.089394)
  48:      3105.05    4.120711  ( -1.713736  -0.983320  -0.465727)
  49:      3127.41    2.239018  (  1.321401  -0.129508   0.690032)
  50:      3140.43    4.455711  ( -0.259783   0.454431  -2.044925)
  51:      3151.42    6.364376  ( -2.016893   1.367988   0.652017)
  52:      3325.68   63.837549  (  7.558413  -1.245483  -2.270841)
  53:      3389.74  212.653475  (  3.684535   0.317350 -14.105920)
  54:      3530.22  104.117223  ( -5.051606   8.813177  -0.962507)
  55:      3861.71  111.835965  (  1.626552   1.379696 -10.357931)
  56:      3868.43  127.214581  ( -8.419659   4.699163   5.851649)

--------------------------
THERMOCHEMISTRY AT 298.15K
--------------------------

Temperature         ... 298.15 K
Pressure            ... 1.00 atm
Total Mass          ... 106.14 AMU

Throughout the following assumptions are being made:
  (1) The electronic state is orbitally nondegenerate
  (2) There are no thermally accessible electronically excited states
  (3) Hindered rotations indicated by low frequency modes) are not
      treated as such but are treated as vibrations and this may
      case some error
  (4) All equations used are the standard statistical mechanics
      equations for an ideal gas
  (5) All vibrations are strinctly harmonic

------------
INNER ENERGY
------------

The inner energy is: U= E(el) + E(ZPE) + E(vib) + E(rot) + E(trans)
    E(el)   - is the total energy from the electronic structure calculation
              = E(kin-el) + E(nuc-el) + E(el-el) + E(nuc-nuc)
    E(ZPE)  - the the zero temperature vibrational energy from the frequency calculation
    E(vib)  - the the finite temperature correction to E(ZPE) due to population
              of excietd vibrational states
    E(rot)  - is the rotational thermal energy
    E(trans)- is the translational thermal energy

Summary of contributions to the inner energy U:
Electronic energy                ...   -364.34764781 Eh
Zero point energy                ...      0.17467422 Eh     109.61 kcal/mol
Thermal vibrational correction   ...      0.00589580 Eh       3.70 kcal/mol
Thermal rotational correction    ...      0.00141627 Eh       0.89 kcal/mol
Thermal translational correction ...      0.00141627 Eh       0.89 kcal/mol
-----------------------------------------------------------------------
Total thermal energy                   -364.16424524 Eh

Summary of corrections to the electronic energy:
(perhaps to be used in another calculation)
Total thermal correction                  0.00872835 Eh       5.48 kcal/mol
Non-thermal (ZPE) correction              0.17467422 Eh     109.61 kcal/mol
-----------------------------------------------------------------------
Total correction                          0.18340257 Eh     115.09 kcal/mol

--------
ENTHALPY
--------

The enthalpy is H = U + kB*T
                kB is Boltzmann's constant
Total free energy                 ...   -364.16424524 Eh
Thermal Enthalpy correction       ...      0.00094421 Eh       0.59 kcal/mol
-----------------------------------------------------------------------
Total Enthalpy                    ...   -364.16330103 Eh

-------
ENTROPY
-------

The entropy contributions are T*S = T*(S(el)+S(vib)+S(rot)+S(trans)
     S(el)   - electronic entropy
     S(vib)  - vibrational entropy
     S(rot)  - rotational entropy
     S(trans)- translational entropy
The entropies will be listed as mutliplied by the temperature to get
units of energy

Electronic entropy                ...      0.00000000 Eh      0.00 kcal/mol
Vibrational entropy               ...      0.00991662 Eh      6.22 kcal/mol
Rotational entropy                ...      0.01217309 Eh      7.64 kcal/mol
Translational entropy             ...      0.01895570 Eh     11.89 kcal/mol
-----------------------------------------------------------------------
Final entropy term                ...      0.04104541 Eh     25.76 kcal/mol

CAUTION: The rotational entropy is not quite correctly treated here
         because it includes a symmetry number that is not yet correctly
         implemented in ORCA!
For a nonlinear molecule the correct rotational entropy is:
    S(rot) = R*(ln(qrot/sn)+1.5)
    R    = 8.31441 J/mol/K = 1.987191683e-3 kcal/mol/K
    qrot = 266029.6868879
    sn is the rotational symmetry number. We have assumed 3 here
       if it is different for your molecule then you should correct
       the printed rotational entropy by manually evaluating the equation
       as given above

For convenience we print out the resulting values for sn=1 - 12:
 sn= 1  qrot/sn=  266029.6869 T*S(rot)=     8.29 kcal/mol T*S(tot)=    26.41 kcal/mol
 sn= 2  qrot/sn=  133014.8434 T*S(rot)=     7.88 kcal/mol T*S(tot)=    26.00 kcal/mol
 sn= 3  qrot/sn=   88676.5623 T*S(rot)=     7.64 kcal/mol T*S(tot)=    25.76 kcal/mol
 sn= 4  qrot/sn=   66507.4217 T*S(rot)=     7.47 kcal/mol T*S(tot)=    25.59 kcal/mol
 sn= 5  qrot/sn=   53205.9374 T*S(rot)=     7.34 kcal/mol T*S(tot)=    25.45 kcal/mol
 sn= 6  qrot/sn=   44338.2811 T*S(rot)=     7.23 kcal/mol T*S(tot)=    25.35 kcal/mol
 sn= 7  qrot/sn=   38004.2410 T*S(rot)=     7.14 kcal/mol T*S(tot)=    25.25 kcal/mol
 sn= 8  qrot/sn=   33253.7109 T*S(rot)=     7.06 kcal/mol T*S(tot)=    25.18 kcal/mol
 sn= 9  qrot/sn=   29558.8541 T*S(rot)=     6.99 kcal/mol T*S(tot)=    25.11 kcal/mol
 sn=10  qrot/sn=   26602.9687 T*S(rot)=     6.93 kcal/mol T*S(tot)=    25.04 kcal/mol
 sn=11  qrot/sn=   24184.5170 T*S(rot)=     6.87 kcal/mol T*S(tot)=    24.99 kcal/mol
 sn=12  qrot/sn=   22169.1406 T*S(rot)=     6.82 kcal/mol T*S(tot)=    24.93 kcal/mol

-------------------
GIBBS FREE ENTHALPY
-------------------

The Gibbs free enthalpy is G = H - T*S

Total enthalpy                    ...   -364.16330103 Eh
Total entropy correction          ...     -0.04104541 Eh    -25.76 kcal/mol
-----------------------------------------------------------------------
Final Gibbs free enthalpy         ...   -364.20434644 Eh

For completeness - the Gibbs free enthalpy minus the electronic energy
G-E(el)                           ...      0.14330137 Eh     89.92 kcal/mol

                             ****ORCA TERMINATED NORMALLY****
TOTAL RUN TIME: 0 days 0 hours 51 minutes 40 seconds 916 msec
