                         Program Version 3.0.3 - RELEASE   -
|  1> ! NORI PBE0 def2-TZVP UseSym TightOPT Freq TightSCF Grid3 FinalGrid5 XYZFile
|  2> % pal
|  3>     nprocs 8
|  4> end
|  5> %method
|  6>     SymThresh 5.0e-2
|  7> end
|  8> % geom
|  9>     MaxIter 10
| 10> end
| 11> % maxcore 2000
| 12> % output
| 13>     printlevel mini
| 14>     print[ P_Basis ] 0
| 15>     print[ P_SCFInfo ] 1
| 16>     print[ P_SCFIterInfo ] 1
| 17>     print[ P_OrbEn ] 0
| 18>     print[ P_Cartesian ] 0
| 19> end
| 20> % elprop
| 21>     Dipole false
| 22> end
| 23> *xyz 1 1
| 24>  C        3.9120874243    -1.1001213570     1.3343232517
| 25>  C        3.2110213308    -0.7076761425     0.0453533243
| 26>  O        1.8239244009    -0.8842949543     0.1212449912
| 27>  C        3.5279858661     0.7161922690    -0.4272622160
| 28>  O        3.4006723493     1.7133407392     0.5715990724
| 29>  C        4.9183732827     0.8524745869    -1.0393693995
| 30>  N        5.1278737208     2.3162865425    -1.2822882533
| 31>  H        4.9995675952    -1.0001489686     1.2772600290
| 32>  H        3.6885988327    -2.1437148666     1.5557948511
| 33>  H        3.5546200930    -0.5188017047     2.1931425012
| 34>  H        3.5392968111    -1.3817488776    -0.7546903097
| 35>  H        1.4823284226    -0.4810822833     0.9255667537
| 36>  H        2.7783252160     0.9588780790    -1.1885275527
| 37>  H        3.6338660525     1.3464748876     1.4322974485
| 38>  H        5.7000131878     0.5354378660    -0.3478376963
| 39>  H        5.0259981835     0.3165172921    -1.9815647926
| 40>  H        4.7216419926     2.7878311149    -0.4560392680
| 41>  H        4.6216436348     2.6409672121    -2.1079914998
| 42>  H        6.1089416031     2.5736585651    -1.3872612353
| 43> *
| 44>
| 45>                          ****END OF INPUT****
 Total Charge           Charge          ....    1
 Multiplicity           Mult            ....    1
 Number of Electrons    NEL             ....   58
FINAL SINGLE POINT ENERGY      -364.331990875527
FINAL SINGLE POINT ENERGY      -364.331993889140
FINAL SINGLE POINT ENERGY      -364.331996026428

CARTESIAN COORDINATES (ANGSTROEM)
---------------------------------
  C     -0.518560   -1.864186    0.857183
  C     -0.556861   -0.362608    1.080099
  O     -0.010325    0.005409    2.315709
  C      0.098977    0.449546   -0.043797
  O      1.380669   -0.009859   -0.436844
  C     -0.761268    0.540593   -1.300122
  N      0.086924    1.206565   -2.340951
  H     -0.975265   -2.166759   -0.088711
  H     -1.067332   -2.356174    1.660072
  H      0.503469   -2.260485    0.891645
  H     -1.603336   -0.039157    1.126407
  H      0.843850   -0.419655    2.442003
  H      0.251919    1.457701    0.357264
  H      1.429490   -0.967375   -0.333770
  H     -1.017686   -0.445689   -1.689709
  H     -1.670653    1.123174   -1.156691
  H      1.031843    0.804355   -2.216625
  H      0.153275    2.214358   -2.188086
  H     -0.240502    1.048432   -3.293675

FINAL SINGLE POINT ENERGY      -364.331996697312
                    ***********************HURRAY********************
 Multiplicity           Mult            ....    1
 Number of Electrons    NEL             ....   58
 Basis Dimension        Dim             ....  289
FINAL SINGLE POINT ENERGY      -364.331997310110

VIBRATIONAL FREQUENCIES
-----------------------

   0:         0.00 cm**-1
   1:         0.00 cm**-1
   2:         0.00 cm**-1
   3:         0.00 cm**-1
   4:         0.00 cm**-1
   5:         0.00 cm**-1
   6:        75.29 cm**-1
   7:       113.80 cm**-1
   8:       191.39 cm**-1
   9:       233.59 cm**-1
  10:       250.60 cm**-1
  11:       266.75 cm**-1
  12:       300.37 cm**-1
  13:       330.89 cm**-1
  14:       362.81 cm**-1
  15:       414.49 cm**-1
  16:       466.18 cm**-1
  17:       535.22 cm**-1
  18:       623.14 cm**-1
  19:       813.30 cm**-1
  20:       867.57 cm**-1
  21:       938.39 cm**-1
  22:       949.23 cm**-1
  23:       987.90 cm**-1
  24:      1010.17 cm**-1
  25:      1064.53 cm**-1
  26:      1091.20 cm**-1
  27:      1127.44 cm**-1
  28:      1146.81 cm**-1
  29:      1182.02 cm**-1
  30:      1241.01 cm**-1
  31:      1292.20 cm**-1
  32:      1334.58 cm**-1
  33:      1344.67 cm**-1
  34:      1369.55 cm**-1
  35:      1398.95 cm**-1
  36:      1409.24 cm**-1
  37:      1420.66 cm**-1
  38:      1425.14 cm**-1
  39:      1473.76 cm**-1
  40:      1476.15 cm**-1
  41:      1492.07 cm**-1
  42:      1501.75 cm**-1
  43:      1643.92 cm**-1
  44:      1673.95 cm**-1
  45:      3032.01 cm**-1
  46:      3054.09 cm**-1
  47:      3064.50 cm**-1
  48:      3102.71 cm**-1
  49:      3110.17 cm**-1
  50:      3153.09 cm**-1
  51:      3170.76 cm**-1
  52:      3285.72 cm**-1
  53:      3472.50 cm**-1
  54:      3529.68 cm**-1
  55:      3811.43 cm**-1
  56:      3842.61 cm**-1

IR SPECTRUM
-----------

 Mode    freq (cm**-1)   T**2         TX         TY         TZ
-------------------------------------------------------------------
   6:        75.29    4.317152  (  0.464558   0.251865   2.009453)
   7:       113.80    8.253958  (  0.579662  -2.755102   0.572157)
   8:       191.39    7.047422  ( -2.228762  -1.341391   0.529823)
   9:       233.59  110.627566  (  1.071625   7.766593  -7.011363)
  10:       250.60    8.868250  (  1.115058   2.335482  -1.473235)
  11:       266.75    2.445728  (  0.396481   1.443275   0.453307)
  12:       300.37   24.908240  (  2.309369   3.171203  -3.085211)
  13:       330.89   49.737684  (  4.510439   0.322548   5.411985)
  14:       362.81   16.160099  (  0.716869   3.016930  -2.558189)
  15:       414.49   56.096737  ( -2.267870  -1.435867  -6.992267)
  16:       466.18    4.328158  (  0.364401  -1.196151  -1.662707)
  17:       535.22    3.371891  ( -0.850920  -1.503430   0.622516)
  18:       623.14    2.540676  (  0.386301  -0.927197  -1.237640)
  19:       813.30   13.673166  ( -2.345769  -1.701629   2.296735)
  20:       867.57   10.301814  ( -2.141358   2.065494  -1.204217)
  21:       938.39   27.046056  ( -1.836310   1.579151   4.602206)
  22:       949.23   20.396953  (  3.096425  -1.505459   2.922789)
  23:       987.90    8.041183  ( -1.259444  -1.824195   1.768416)
  24:      1010.17   31.695700  (  5.451672   0.788000   1.163626)
  25:      1064.53   53.530832  ( -6.368976   3.599725   0.094630)
  26:      1091.20   70.725669  (  1.929552   0.144717  -8.184226)
  27:      1127.44   27.907190  (  1.092163  -0.488004   5.145505)
  28:      1146.81  101.793286  ( -7.401591  -1.507505  -6.688585)
  29:      1182.02   26.253112  ( -2.635704   2.822931   3.367082)
  30:      1241.01   45.890520  ( -3.798380  -0.304598   5.600897)
  31:      1292.20    5.691752  ( -1.789791  -1.096581  -1.133980)
  32:      1334.58   13.749962  (  1.523346  -3.297493   0.745601)
  33:      1344.67    1.659469  ( -0.234501   0.696907   1.057733)
  34:      1369.55    3.679724  ( -0.414050   0.866377   1.660626)
  35:      1398.95    8.477233  (  0.461304   0.540792  -2.823469)
  36:      1409.24   28.323883  (  4.303333  -1.877487  -2.506042)
  37:      1420.66   23.629246  ( -3.296035  -3.503414   0.701067)
  38:      1425.14   33.664142  ( -2.042729  -2.057235  -5.025852)
  39:      1473.76   36.025018  ( -1.243396  -2.327329   5.390967)
  40:      1476.15  144.806292  (  6.630822   5.256584  -8.556098)
  41:      1492.07   13.946748  ( -1.439687  -0.226884  -3.438397)
  42:      1501.75   13.571877  (  3.603731  -0.108430   0.757128)
  43:      1643.92   35.414323  (  2.415548  -5.436113   0.167723)
  44:      1673.95   37.164136  ( -3.190887  -1.676796  -4.916374)
  45:      3032.01    9.091884  ( -1.958843   0.895087   2.110365)
  46:      3054.09    9.463583  ( -2.830960   0.992022  -0.682013)
  47:      3064.50    8.694201  (  1.208135  -2.679814   0.230672)
  48:      3102.71    1.292654  (  0.506800  -0.930080   0.413230)
  49:      3110.17   19.655430  (  3.459902   0.498633   2.726880)
  50:      3153.09    1.636309  ( -0.041995  -0.139944  -1.270811)
  51:      3170.76    0.623892  ( -0.288917   0.711570   0.184627)
  52:      3285.72  124.688575  ( -9.241256   4.897347  -3.912002)
  53:      3472.50  111.588017  ( -2.855592   8.119382  -6.124479)
  54:      3529.68  102.851867  ( -3.012653  -5.429008  -8.018832)
  55:      3811.43   74.631716  ( -1.245937   8.237949  -2.283760)
  56:      3842.61   51.363649  ( -5.604972   1.806475  -4.084677)

--------------------------
THERMOCHEMISTRY AT 298.15K
--------------------------

Temperature         ... 298.15 K
Pressure            ... 1.00 atm
Total Mass          ... 106.14 AMU

Throughout the following assumptions are being made:
  (1) The electronic state is orbitally nondegenerate
  (2) There are no thermally accessible electronically excited states
  (3) Hindered rotations indicated by low frequency modes) are not
      treated as such but are treated as vibrations and this may
      case some error
  (4) All equations used are the standard statistical mechanics
      equations for an ideal gas
  (5) All vibrations are strinctly harmonic

------------
INNER ENERGY
------------

The inner energy is: U= E(el) + E(ZPE) + E(vib) + E(rot) + E(trans)
    E(el)   - is the total energy from the electronic structure calculation
              = E(kin-el) + E(nuc-el) + E(el-el) + E(nuc-nuc)
    E(ZPE)  - the the zero temperature vibrational energy from the frequency calculation
    E(vib)  - the the finite temperature correction to E(ZPE) due to population
              of excietd vibrational states
    E(rot)  - is the rotational thermal energy
    E(trans)- is the translational thermal energy

Summary of contributions to the inner energy U:
Electronic energy                ...   -364.33199731 Eh
Zero point energy                ...      0.17421137 Eh     109.32 kcal/mol
Thermal vibrational correction   ...      0.00609211 Eh       3.82 kcal/mol
Thermal rotational correction    ...      0.00141627 Eh       0.89 kcal/mol
Thermal translational correction ...      0.00141627 Eh       0.89 kcal/mol
-----------------------------------------------------------------------
Total thermal energy                   -364.14886129 Eh

Summary of corrections to the electronic energy:
(perhaps to be used in another calculation)
Total thermal correction                  0.00892466 Eh       5.60 kcal/mol
Non-thermal (ZPE) correction              0.17421137 Eh     109.32 kcal/mol
-----------------------------------------------------------------------
Total correction                          0.18313602 Eh     114.92 kcal/mol

--------
ENTHALPY
--------

The enthalpy is H = U + kB*T
                kB is Boltzmann's constant
Total free energy                 ...   -364.14886129 Eh
Thermal Enthalpy correction       ...      0.00094421 Eh       0.59 kcal/mol
-----------------------------------------------------------------------
Total Enthalpy                    ...   -364.14791708 Eh

-------
ENTROPY
-------

The entropy contributions are T*S = T*(S(el)+S(vib)+S(rot)+S(trans)
     S(el)   - electronic entropy
     S(vib)  - vibrational entropy
     S(rot)  - rotational entropy
     S(trans)- translational entropy
The entropies will be listed as mutliplied by the temperature to get
units of energy

Electronic entropy                ...      0.00000000 Eh      0.00 kcal/mol
Vibrational entropy               ...      0.01063165 Eh      6.67 kcal/mol
Rotational entropy                ...      0.01220994 Eh      7.66 kcal/mol
Translational entropy             ...      0.01895570 Eh     11.89 kcal/mol
-----------------------------------------------------------------------
Final entropy term                ...      0.04179729 Eh     26.23 kcal/mol

CAUTION: The rotational entropy is not quite correctly treated here
         because it includes a symmetry number that is not yet correctly
         implemented in ORCA!
For a nonlinear molecule the correct rotational entropy is:
    S(rot) = R*(ln(qrot/sn)+1.5)
    R    = 8.31441 J/mol/K = 1.987191683e-3 kcal/mol/K
    qrot = 276617.4458702
    sn is the rotational symmetry number. We have assumed 3 here
       if it is different for your molecule then you should correct
       the printed rotational entropy by manually evaluating the equation
       as given above

For convenience we print out the resulting values for sn=1 - 12:
 sn= 1  qrot/sn=  276617.4459 T*S(rot)=     8.31 kcal/mol T*S(tot)=    26.88 kcal/mol
 sn= 2  qrot/sn=  138308.7229 T*S(rot)=     7.90 kcal/mol T*S(tot)=    26.47 kcal/mol
 sn= 3  qrot/sn=   92205.8153 T*S(rot)=     7.66 kcal/mol T*S(tot)=    26.23 kcal/mol
 sn= 4  qrot/sn=   69154.3615 T*S(rot)=     7.49 kcal/mol T*S(tot)=    26.06 kcal/mol
 sn= 5  qrot/sn=   55323.4892 T*S(rot)=     7.36 kcal/mol T*S(tot)=    25.93 kcal/mol
 sn= 6  qrot/sn=   46102.9076 T*S(rot)=     7.25 kcal/mol T*S(tot)=    25.82 kcal/mol
 sn= 7  qrot/sn=   39516.7780 T*S(rot)=     7.16 kcal/mol T*S(tot)=    25.73 kcal/mol
 sn= 8  qrot/sn=   34577.1807 T*S(rot)=     7.08 kcal/mol T*S(tot)=    25.65 kcal/mol
 sn= 9  qrot/sn=   30735.2718 T*S(rot)=     7.01 kcal/mol T*S(tot)=    25.58 kcal/mol
 sn=10  qrot/sn=   27661.7446 T*S(rot)=     6.95 kcal/mol T*S(tot)=    25.51 kcal/mol
 sn=11  qrot/sn=   25147.0405 T*S(rot)=     6.89 kcal/mol T*S(tot)=    25.46 kcal/mol
 sn=12  qrot/sn=   23051.4538 T*S(rot)=     6.84 kcal/mol T*S(tot)=    25.41 kcal/mol

-------------------
GIBBS FREE ENTHALPY
-------------------

The Gibbs free enthalpy is G = H - T*S

Total enthalpy                    ...   -364.14791708 Eh
Total entropy correction          ...     -0.04179729 Eh    -26.23 kcal/mol
-----------------------------------------------------------------------
Final Gibbs free enthalpy         ...   -364.18971436 Eh

For completeness - the Gibbs free enthalpy minus the electronic energy
G-E(el)                           ...      0.14228295 Eh     89.28 kcal/mol

                             ****ORCA TERMINATED NORMALLY****
TOTAL RUN TIME: 0 days 0 hours 52 minutes 48 seconds 842 msec
