                         Program Version 3.0.3 - RELEASE   -
|  1> ! NORI PBE0 def2-TZVP UseSym TightOPT Freq TightSCF Grid3 FinalGrid5 XYZFile
|  2> % pal
|  3>     nprocs 8
|  4> end
|  5> %method
|  6>     SymThresh 5.0e-2
|  7> end
|  8> % geom
|  9>     MaxIter 10
| 10> end
| 11> % maxcore 2000
| 12> % output
| 13>     printlevel mini
| 14>     print[ P_Basis ] 0
| 15>     print[ P_SCFInfo ] 1
| 16>     print[ P_SCFIterInfo ] 1
| 17>     print[ P_OrbEn ] 0
| 18>     print[ P_Cartesian ] 0
| 19> end
| 20> % elprop
| 21>     Dipole false
| 22> end
| 23> *xyz 1 1
| 24>  C        2.5699347980    -0.4231187380     1.7978296607
| 25>  C        2.3716670573    -1.5027408906     0.7712714444
| 26>  O        3.0429306936    -2.7410859159     1.1858447867
| 27>  C        4.2864661073    -2.8929635436     0.8731355252
| 28>  O        5.0094716438    -2.1456764905     0.2524714831
| 29>  C        4.8533727717    -4.2173471590     1.3779062729
| 30>  N        6.2674870328    -4.2259939289     0.9088905723
| 31>  H        1.9963620904     0.4555381423     1.4959581965
| 32>  H        3.6171976392    -0.1273566000     1.8723854172
| 33>  H        2.2097124499    -0.7384751918     2.7781252187
| 34>  H        1.3300343819    -1.8042472677     0.6811522378
| 35>  H        2.7621281281    -1.2264887058    -0.2077178922
| 36>  H        4.3066126659    -5.0623597962     0.9623245431
| 37>  H        4.8108163698    -4.2719555886     2.4650591470
| 38>  H        6.3478814239    -3.3011275186     0.4106568214
| 39>  H        6.4704880964    -4.9835146198     0.2577875324
| 40>  H        6.9445966498    -4.2669661871     1.6695290329
| 41> *
| 42>
| 43>                          ****END OF INPUT****
 Total Charge           Charge          ....    1
 Multiplicity           Mult            ....    1
 Number of Electrons    NEL             ....   56
FINAL SINGLE POINT ENERGY      -363.147414435979

CARTESIAN COORDINATES (ANGSTROEM)
---------------------------------
  C      0.654362   -2.340415    1.349796
  C      1.069298   -0.905558    1.516488
  O     -0.001002   -0.001575    1.076594
  C     -0.045390    0.327234   -0.171345
  O      0.699175    0.000874   -1.068956
  C     -1.213010    1.259900   -0.483577
  N     -1.089297    1.546030   -1.940448
  H      1.440319   -2.980637    1.755689
  H      0.522713   -2.601214    0.298663
  H     -0.266135   -2.551807    1.895760
  H      1.209960   -0.632683    2.560344
  H      1.965051   -0.659889    0.946662
  H     -1.145968    2.180188    0.094680
  H     -2.166002    0.778777   -0.268347
  H     -0.241225    0.983055   -2.211916
  H     -0.924756    2.531014   -2.144078
  H     -1.895239    1.236905   -2.482168

FINAL SINGLE POINT ENERGY      -363.147415433077
                    ***********************HURRAY********************
 Multiplicity           Mult            ....    1
 Number of Electrons    NEL             ....   56
 Basis Dimension        Dim             ....  277
FINAL SINGLE POINT ENERGY      -363.147416029987

VIBRATIONAL FREQUENCIES
-----------------------

   0:         0.00 cm**-1
   1:         0.00 cm**-1
   2:         0.00 cm**-1
   3:         0.00 cm**-1
   4:         0.00 cm**-1
   5:         0.00 cm**-1
   6:        57.48 cm**-1
   7:        79.62 cm**-1
   8:       116.88 cm**-1
   9:       195.36 cm**-1
  10:       259.54 cm**-1
  11:       267.70 cm**-1
  12:       355.03 cm**-1
  13:       398.83 cm**-1
  14:       488.54 cm**-1
  15:       591.28 cm**-1
  16:       700.64 cm**-1
  17:       805.62 cm**-1
  18:       858.23 cm**-1
  19:       926.74 cm**-1
  20:       928.27 cm**-1
  21:      1008.81 cm**-1
  22:      1037.99 cm**-1
  23:      1105.86 cm**-1
  24:      1107.81 cm**-1
  25:      1122.17 cm**-1
  26:      1193.67 cm**-1
  27:      1299.63 cm**-1
  28:      1303.18 cm**-1
  29:      1334.10 cm**-1
  30:      1377.72 cm**-1
  31:      1411.33 cm**-1
  32:      1440.54 cm**-1
  33:      1449.43 cm**-1
  34:      1479.08 cm**-1
  35:      1486.17 cm**-1
  36:      1488.85 cm**-1
  37:      1501.53 cm**-1
  38:      1643.93 cm**-1
  39:      1661.51 cm**-1
  40:      1815.75 cm**-1
  41:      3010.34 cm**-1
  42:      3066.61 cm**-1
  43:      3111.73 cm**-1
  44:      3124.76 cm**-1
  45:      3145.89 cm**-1
  46:      3149.04 cm**-1
  47:      3181.28 cm**-1
  48:      3183.55 cm**-1
  49:      3488.43 cm**-1
  50:      3546.52 cm**-1

IR SPECTRUM
-----------

 Mode    freq (cm**-1)   T**2         TX         TY         TZ
-------------------------------------------------------------------
   6:        57.48    0.810681  (  0.392932  -0.523869  -0.617937)
   7:        79.62   14.982318  (  2.315427   3.074670   0.409288)
   8:       116.88    3.088564  (  0.808095   1.556252   0.116737)
   9:       195.36    8.227301  ( -2.181554   1.119758   1.488041)
  10:       259.54    0.433206  ( -0.346584  -0.493539  -0.263638)
  11:       267.70   10.441996  ( -2.380320   2.147164  -0.407135)
  12:       355.03   35.272182  (  2.570652  -4.520461   2.868686)
  13:       398.83   95.508256  ( -4.842245   4.357082  -7.285380)
  14:       488.54   10.333522  ( -0.640367   2.011607  -2.424230)
  15:       591.28    3.043914  ( -0.782508  -1.551426  -0.157073)
  16:       700.64    4.042615  (  1.299932  -0.648456  -1.390070)
  17:       805.62    6.116382  (  1.931887  -1.534738   0.169624)
  18:       858.23   48.331797  (  3.872172  -4.791274   3.222077)
  19:       926.74   26.270779  ( -2.757364   3.827737  -2.004033)
  20:       928.27   16.143689  (  2.951861   2.427903   1.239150)
  21:      1008.81   22.405684  ( -2.821760   3.326118  -1.838557)
  22:      1037.99   57.408279  (  3.660336  -4.861970   4.513476)
  23:      1105.86    2.314836  ( -1.361115   0.108495  -0.671140)
  24:      1107.81   89.608645  (  6.691008  -5.762173   3.411220)
  25:      1122.17    7.770459  (  1.719070   0.858848   2.019316)
  26:      1193.67    3.142626  ( -1.248339   0.817102   0.957403)
  27:      1299.63  101.704552  ( -4.276274   6.651154  -6.259408)
  28:      1303.18    6.919375  ( -2.007746  -0.511997  -1.620552)
  29:      1334.10   22.047965  ( -0.976438   2.764646  -3.667597)
  30:      1377.72  155.443381  (  3.119698  -6.373559  10.251273)
  31:      1411.33   72.941877  ( -1.624187   6.925928  -4.726036)
  32:      1440.54  300.057383  (  3.680441  -6.663436  15.559896)
  33:      1449.43   90.451601  (  5.989343  -2.516742  -6.945889)
  34:      1479.08   13.849614  (  1.508638  -0.248047  -3.392948)
  35:      1486.17   15.854829  (  1.430921  -0.580423   3.670205)
  36:      1488.85    8.585137  ( -0.080197   0.818879  -2.812142)
  37:      1501.53   26.990786  ( -4.937115   0.983586  -1.283838)
  38:      1643.93   31.573447  (  4.057025  -3.627414   1.398523)
  39:      1661.51   33.220910  (  3.605961   4.330635   1.209774)
  40:      1815.75  232.863952  ( -4.036454  -1.588458  14.630372)
  41:      3010.34  324.734064  (-13.563302  11.319102  -3.556520)
  42:      3066.61    2.383221  (  0.921147   1.163492   0.425435)
  43:      3111.73    6.804974  (  2.079315   0.786685   1.364752)
  44:      3124.76   11.763022  (  2.652722  -2.173480   0.045548)
  45:      3145.89    4.924472  ( -1.104847  -0.349253  -1.892566)
  46:      3149.04    3.698916  ( -1.731983  -0.344981   0.761668)
  47:      3181.28    3.493147  ( -0.507502  -0.019906   1.798664)
  48:      3183.55    4.595483  (  1.268623   1.669203   0.447034)
  49:      3488.43  121.803962  ( -5.657362   6.394657  -6.993324)
  50:      3546.52  116.079654  (  6.355583   8.399755   2.265024)

--------------------------
THERMOCHEMISTRY AT 298.15K
--------------------------

Temperature         ... 298.15 K
Pressure            ... 1.00 atm
Total Mass          ... 104.13 AMU

Throughout the following assumptions are being made:
  (1) The electronic state is orbitally nondegenerate
  (2) There are no thermally accessible electronically excited states
  (3) Hindered rotations indicated by low frequency modes) are not
      treated as such but are treated as vibrations and this may
      case some error
  (4) All equations used are the standard statistical mechanics
      equations for an ideal gas
  (5) All vibrations are strinctly harmonic

------------
INNER ENERGY
------------

The inner energy is: U= E(el) + E(ZPE) + E(vib) + E(rot) + E(trans)
    E(el)   - is the total energy from the electronic structure calculation
              = E(kin-el) + E(nuc-el) + E(el-el) + E(nuc-nuc)
    E(ZPE)  - the the zero temperature vibrational energy from the frequency calculation
    E(vib)  - the the finite temperature correction to E(ZPE) due to population
              of excietd vibrational states
    E(rot)  - is the rotational thermal energy
    E(trans)- is the translational thermal energy

Summary of contributions to the inner energy U:
Electronic energy                ...   -363.14741603 Eh
Zero point energy                ...      0.15105844 Eh      94.79 kcal/mol
Thermal vibrational correction   ...      0.00545625 Eh       3.42 kcal/mol
Thermal rotational correction    ...      0.00141627 Eh       0.89 kcal/mol
Thermal translational correction ...      0.00141627 Eh       0.89 kcal/mol
-----------------------------------------------------------------------
Total thermal energy                   -362.98806879 Eh

Summary of corrections to the electronic energy:
(perhaps to be used in another calculation)
Total thermal correction                  0.00828879 Eh       5.20 kcal/mol
Non-thermal (ZPE) correction              0.15105844 Eh      94.79 kcal/mol
-----------------------------------------------------------------------
Total correction                          0.15934724 Eh      99.99 kcal/mol

--------
ENTHALPY
--------

The enthalpy is H = U + kB*T
                kB is Boltzmann's constant
Total free energy                 ...   -362.98806879 Eh
Thermal Enthalpy correction       ...      0.00094421 Eh       0.59 kcal/mol
-----------------------------------------------------------------------
Total Enthalpy                    ...   -362.98712458 Eh

-------
ENTROPY
-------

The entropy contributions are T*S = T*(S(el)+S(vib)+S(rot)+S(trans)
     S(el)   - electronic entropy
     S(vib)  - vibrational entropy
     S(rot)  - rotational entropy
     S(trans)- translational entropy
The entropies will be listed as mutliplied by the temperature to get
units of energy

Electronic entropy                ...      0.00000000 Eh      0.00 kcal/mol
Vibrational entropy               ...      0.01037345 Eh      6.51 kcal/mol
Rotational entropy                ...      0.01211556 Eh      7.60 kcal/mol
Translational entropy             ...      0.01892854 Eh     11.88 kcal/mol
-----------------------------------------------------------------------
Final entropy term                ...      0.04141756 Eh     25.99 kcal/mol

CAUTION: The rotational entropy is not quite correctly treated here
         because it includes a symmetry number that is not yet correctly
         implemented in ORCA!
For a nonlinear molecule the correct rotational entropy is:
    S(rot) = R*(ln(qrot/sn)+1.5)
    R    = 8.31441 J/mol/K = 1.987191683e-3 kcal/mol/K
    qrot = 250305.3113342
    sn is the rotational symmetry number. We have assumed 3 here
       if it is different for your molecule then you should correct
       the printed rotational entropy by manually evaluating the equation
       as given above

For convenience we print out the resulting values for sn=1 - 12:
 sn= 1  qrot/sn=  250305.3113 T*S(rot)=     8.25 kcal/mol T*S(tot)=    26.64 kcal/mol
 sn= 2  qrot/sn=  125152.6557 T*S(rot)=     7.84 kcal/mol T*S(tot)=    26.23 kcal/mol
 sn= 3  qrot/sn=   83435.1038 T*S(rot)=     7.60 kcal/mol T*S(tot)=    25.99 kcal/mol
 sn= 4  qrot/sn=   62576.3278 T*S(rot)=     7.43 kcal/mol T*S(tot)=    25.82 kcal/mol
 sn= 5  qrot/sn=   50061.0623 T*S(rot)=     7.30 kcal/mol T*S(tot)=    25.69 kcal/mol
 sn= 6  qrot/sn=   41717.5519 T*S(rot)=     7.19 kcal/mol T*S(tot)=    25.58 kcal/mol
 sn= 7  qrot/sn=   35757.9016 T*S(rot)=     7.10 kcal/mol T*S(tot)=    25.49 kcal/mol
 sn= 8  qrot/sn=   31288.1639 T*S(rot)=     7.02 kcal/mol T*S(tot)=    25.41 kcal/mol
 sn= 9  qrot/sn=   27811.7013 T*S(rot)=     6.95 kcal/mol T*S(tot)=    25.34 kcal/mol
 sn=10  qrot/sn=   25030.5311 T*S(rot)=     6.89 kcal/mol T*S(tot)=    25.28 kcal/mol
 sn=11  qrot/sn=   22755.0283 T*S(rot)=     6.83 kcal/mol T*S(tot)=    25.22 kcal/mol
 sn=12  qrot/sn=   20858.7759 T*S(rot)=     6.78 kcal/mol T*S(tot)=    25.17 kcal/mol

-------------------
GIBBS FREE ENTHALPY
-------------------

The Gibbs free enthalpy is G = H - T*S

Total enthalpy                    ...   -362.98712458 Eh
Total entropy correction          ...     -0.04141756 Eh    -25.99 kcal/mol
-----------------------------------------------------------------------
Final Gibbs free enthalpy         ...   -363.02854214 Eh

For completeness - the Gibbs free enthalpy minus the electronic energy
G-E(el)                           ...      0.11887389 Eh     74.59 kcal/mol

                             ****ORCA TERMINATED NORMALLY****
TOTAL RUN TIME: 0 days 0 hours 38 minutes 30 seconds 494 msec
