                         Program Version 3.0.3 - RELEASE   -
|  1> ! NORI PBE0 def2-TZVP UseSym TightOPT Freq TightSCF Grid3 FinalGrid5 XYZFile
|  2> % pal
|  3>     nprocs 8
|  4> end
|  5> %method
|  6>     SymThresh 5.0e-2
|  7> end
|  8> % geom
|  9>     MaxIter 10
| 10> end
| 11> % maxcore 2000
| 12> % output
| 13>     printlevel mini
| 14>     print[ P_Basis ] 0
| 15>     print[ P_SCFInfo ] 1
| 16>     print[ P_SCFIterInfo ] 1
| 17>     print[ P_OrbEn ] 0
| 18>     print[ P_Cartesian ] 0
| 19> end
| 20> % elprop
| 21>     Dipole false
| 22> end
| 23> *xyz 1 1
| 24>  C        1.3582908967    -0.1518385312    -0.3381522336
| 25>  C        2.5021827256    -0.9125415909     0.2694528535
| 26>  O        3.2429276676    -1.5026130641    -0.8196594490
| 27>  N        4.3003364447    -2.1918905562    -0.3830636566
| 28>  C        5.0080836835    -2.7456449974    -1.2750853322
| 29>  C        6.2010132370    -3.5131265390    -0.7923719081
| 30>  N        6.1999130950    -3.4419436513     0.7043014131
| 31>  H        0.7730927462     0.3115151354     0.4578483975
| 32>  H        0.7011336418    -0.8140509963    -0.9036328842
| 33>  H        1.7180799112     0.6369771571    -1.0003369842
| 34>  H        3.1757297420    -0.2566148281     0.8279168156
| 35>  H        2.1555357535    -1.7163891668     0.9249408963
| 36>  H        4.7977162529    -2.6845600780    -2.3399141448
| 37>  H        7.1328911836    -3.0867655513    -1.1682409132
| 38>  H        6.1647169811    -4.5585937932    -1.1025295588
| 39>  H        5.3759686332    -2.8217361050     0.9202072617
| 40>  H        7.0526786957    -3.0329672117     1.0821715601
| 41>  H        6.0596587085    -4.3516156321     1.1403778670
| 42> *
| 43>
| 44>                          ****END OF INPUT****
 Total Charge           Charge          ....    1
 Multiplicity           Mult            ....    1
 Number of Electrons    NEL             ....   56
FINAL SINGLE POINT ENERGY      -343.203250881493
FINAL SINGLE POINT ENERGY      -343.203252265083

CARTESIAN COORDINATES (ANGSTROEM)
---------------------------------
  C     -1.401952   -0.026729    3.060122
  C     -1.382649   -0.011590    1.558140
  O      0.002393   -0.008224    1.152274
  N      0.126716   -0.003781   -0.177394
  C      1.311381    0.005964   -0.624541
  C      1.456235    0.002643   -2.115810
  N      0.075205    0.026952   -2.696932
  H     -2.437164   -0.029709    3.405204
  H     -0.908761    0.856018    3.468937
  H     -0.909575   -0.918180    3.450636
  H     -1.862580   -0.898759    1.135762
  H     -1.861558    0.884598    1.153978
  H      2.196946    0.011387    0.005726
  H      1.974433   -0.891286   -2.467825
  H      2.011832    0.871442   -2.472667
  H     -0.549035   -0.011383   -1.848916
  H     -0.112839   -0.768175   -3.304793
  H     -0.116461    0.881466   -3.217211

FINAL SINGLE POINT ENERGY      -343.203252983891
                    ***********************HURRAY********************
 Multiplicity           Mult            ....    1
 Number of Electrons    NEL             ....   56
 Basis Dimension        Dim             ....  283
FINAL SINGLE POINT ENERGY      -343.203253455259

VIBRATIONAL FREQUENCIES
-----------------------

   0:         0.00 cm**-1
   1:         0.00 cm**-1
   2:         0.00 cm**-1
   3:         0.00 cm**-1
   4:         0.00 cm**-1
   5:         0.00 cm**-1
   6:        52.82 cm**-1
   7:        78.22 cm**-1
   8:       115.01 cm**-1
   9:       128.52 cm**-1
  10:       244.88 cm**-1
  11:       274.05 cm**-1
  12:       278.39 cm**-1
  13:       312.45 cm**-1
  14:       448.21 cm**-1
  15:       492.64 cm**-1
  16:       696.37 cm**-1
  17:       820.64 cm**-1
  18:       857.46 cm**-1
  19:       900.88 cm**-1
  20:       927.01 cm**-1
  21:       963.32 cm**-1
  22:      1055.38 cm**-1
  23:      1073.46 cm**-1
  24:      1113.11 cm**-1
  25:      1115.08 cm**-1
  26:      1151.53 cm**-1
  27:      1175.82 cm**-1
  28:      1177.02 cm**-1
  29:      1293.13 cm**-1
  30:      1305.27 cm**-1
  31:      1327.17 cm**-1
  32:      1387.93 cm**-1
  33:      1394.21 cm**-1
  34:      1423.36 cm**-1
  35:      1470.46 cm**-1
  36:      1476.02 cm**-1
  37:      1491.61 cm**-1
  38:      1499.62 cm**-1
  39:      1513.15 cm**-1
  40:      1640.35 cm**-1
  41:      1650.63 cm**-1
  42:      1729.27 cm**-1
  43:      2970.97 cm**-1
  44:      3054.75 cm**-1
  45:      3070.79 cm**-1
  46:      3094.01 cm**-1
  47:      3105.31 cm**-1
  48:      3139.62 cm**-1
  49:      3152.51 cm**-1
  50:      3157.04 cm**-1
  51:      3182.34 cm**-1
  52:      3493.55 cm**-1
  53:      3553.80 cm**-1

IR SPECTRUM
-----------

 Mode    freq (cm**-1)   T**2         TX         TY         TZ
-------------------------------------------------------------------
   6:        52.82    1.978967  (  0.021855   1.405007  -0.066659)
   7:        78.22    0.144243  ( -0.095524  -0.064813   0.361825)
   8:       115.01    7.085247  ( -0.220460  -2.615134   0.444659)
   9:       128.52   11.350499  ( -2.366744   0.303069   2.378481)
  10:       244.88    0.520472  (  0.001995  -0.710457   0.125375)
  11:       274.05   45.878655  ( -0.145190   0.151389   6.770130)
  12:       278.39    0.805551  (  0.027523   0.672014  -0.594299)
  13:       312.45    8.412471  ( -0.014752   2.900246  -0.028796)
  14:       448.21   56.423928  ( -1.208259  -0.045439   7.413634)
  15:       492.64   12.137480  (  2.235566  -0.011365   2.672003)
  16:       696.37    0.714465  ( -0.782137  -0.078562   0.310734)
  17:       820.64    3.456468  ( -0.008940   1.859103   0.011107)
  18:       857.46   22.492366  (  0.001770   4.742552  -0.023818)
  19:       900.88    4.273109  (  2.058529  -0.069164   0.175458)
  20:       927.01    2.762530  ( -0.573362   0.030468  -1.559762)
  21:       963.32    2.765542  ( -0.071979   1.655660   0.138387)
  22:      1055.38   13.877048  ( -3.204788  -0.066638   1.897878)
  23:      1073.46   11.143950  (  2.637817  -0.121488   2.042330)
  24:      1113.11   17.063562  (  1.021209  -2.828655  -2.831856)
  25:      1115.08  159.875899  (  5.153359   0.883373 -11.512534)
  26:      1151.53   85.975521  ( -8.201699  -0.017670   4.325199)
  27:      1175.82  151.155533  ( -9.281960  -0.668669   8.034527)
  28:      1177.02   17.353564  ( -2.675886   2.161852   2.349382)
  29:      1293.13    1.562055  (  0.002708  -1.249573  -0.024797)
  30:      1305.27    2.937374  ( -0.229021  -1.692595   0.141579)
  31:      1327.17    3.595923  (  1.406935  -0.002134  -1.271398)
  32:      1387.93   21.767231  ( -3.466990  -0.065245  -3.121370)
  33:      1394.21    9.272993  ( -2.725276  -0.052088   1.357627)
  34:      1423.36   40.462966  ( -1.119905  -0.043899   6.261537)
  35:      1470.46  149.534759  (  9.264553  -0.043002   7.981289)
  36:      1476.02   10.750091  ( -0.011638  -3.278561  -0.031502)
  37:      1491.61    4.821309  (  2.182857  -0.002053  -0.237576)
  38:      1499.62   81.551303  (  2.530165   0.085897   8.668460)
  39:      1513.15    5.137924  (  0.862147   0.023278  -2.096207)
  40:      1640.35   19.691485  ( -0.475099   2.346043  -3.736556)
  41:      1650.63   25.103156  (  0.158195  -4.568106  -2.051959)
  42:      1729.27   12.979249  ( -1.994575   0.001795   3.000153)
  43:      2970.97  427.783139  ( -3.771471  -0.446927  20.331242)
  44:      3054.75   25.250190  (  4.932954  -0.035696   0.956494)
  45:      3070.79    3.700805  ( -0.461070   0.016443  -1.867605)
  46:      3094.01    0.277316  ( -0.438224  -0.004619  -0.291983)
  47:      3105.31   13.835251  ( -0.013201  -3.719483  -0.022928)
  48:      3139.62    0.487098  (  0.006754   0.694718  -0.066476)
  49:      3152.51    5.809104  ( -2.321243   0.004142  -0.648783)
  50:      3157.04   12.630942  ( -0.000569  -3.553903  -0.026754)
  51:      3182.34    2.712724  ( -1.630470  -0.006555  -0.232917)
  52:      3493.55  117.631020  ( -2.646570   0.646384 -10.498042)
  53:      3553.80  109.301733  ( -0.059651 -10.426516  -0.765473)

--------------------------
THERMOCHEMISTRY AT 298.15K
--------------------------

Temperature         ... 298.15 K
Pressure            ... 1.00 atm
Total Mass          ... 103.14 AMU

Throughout the following assumptions are being made:
  (1) The electronic state is orbitally nondegenerate
  (2) There are no thermally accessible electronically excited states
  (3) Hindered rotations indicated by low frequency modes) are not
      treated as such but are treated as vibrations and this may
      case some error
  (4) All equations used are the standard statistical mechanics
      equations for an ideal gas
  (5) All vibrations are strinctly harmonic

------------
INNER ENERGY
------------

The inner energy is: U= E(el) + E(ZPE) + E(vib) + E(rot) + E(trans)
    E(el)   - is the total energy from the electronic structure calculation
              = E(kin-el) + E(nuc-el) + E(el-el) + E(nuc-nuc)
    E(ZPE)  - the the zero temperature vibrational energy from the frequency calculation
    E(vib)  - the the finite temperature correction to E(ZPE) due to population
              of excietd vibrational states
    E(rot)  - is the rotational thermal energy
    E(trans)- is the translational thermal energy

Summary of contributions to the inner energy U:
Electronic energy                ...   -343.20325346 Eh
Zero point energy                ...      0.16181628 Eh     101.54 kcal/mol
Thermal vibrational correction   ...      0.00593352 Eh       3.72 kcal/mol
Thermal rotational correction    ...      0.00141627 Eh       0.89 kcal/mol
Thermal translational correction ...      0.00141627 Eh       0.89 kcal/mol
-----------------------------------------------------------------------
Total thermal energy                   -343.03267111 Eh

Summary of corrections to the electronic energy:
(perhaps to be used in another calculation)
Total thermal correction                  0.00876607 Eh       5.50 kcal/mol
Non-thermal (ZPE) correction              0.16181628 Eh     101.54 kcal/mol
-----------------------------------------------------------------------
Total correction                          0.17058235 Eh     107.04 kcal/mol

--------
ENTHALPY
--------

The enthalpy is H = U + kB*T
                kB is Boltzmann's constant
Total free energy                 ...   -343.03267111 Eh
Thermal Enthalpy correction       ...      0.00094421 Eh       0.59 kcal/mol
-----------------------------------------------------------------------
Total Enthalpy                    ...   -343.03172690 Eh

-------
ENTROPY
-------

The entropy contributions are T*S = T*(S(el)+S(vib)+S(rot)+S(trans)
     S(el)   - electronic entropy
     S(vib)  - vibrational entropy
     S(rot)  - rotational entropy
     S(trans)- translational entropy
The entropies will be listed as mutliplied by the temperature to get
units of energy

Electronic entropy                ...      0.00000000 Eh      0.00 kcal/mol
Vibrational entropy               ...      0.01147839 Eh      7.20 kcal/mol
Rotational entropy                ...      0.01225299 Eh      7.69 kcal/mol
Translational entropy             ...      0.01891510 Eh     11.87 kcal/mol
-----------------------------------------------------------------------
Final entropy term                ...      0.04264648 Eh     26.76 kcal/mol

CAUTION: The rotational entropy is not quite correctly treated here
         because it includes a symmetry number that is not yet correctly
         implemented in ORCA!
For a nonlinear molecule the correct rotational entropy is:
    S(rot) = R*(ln(qrot/sn)+1.5)
    R    = 8.31441 J/mol/K = 1.987191683e-3 kcal/mol/K
    qrot = 289523.1345869
    sn is the rotational symmetry number. We have assumed 3 here
       if it is different for your molecule then you should correct
       the printed rotational entropy by manually evaluating the equation
       as given above

For convenience we print out the resulting values for sn=1 - 12:
 sn= 1  qrot/sn=  289523.1346 T*S(rot)=     8.34 kcal/mol T*S(tot)=    27.41 kcal/mol
 sn= 2  qrot/sn=  144761.5673 T*S(rot)=     7.93 kcal/mol T*S(tot)=    27.00 kcal/mol
 sn= 3  qrot/sn=   96507.7115 T*S(rot)=     7.69 kcal/mol T*S(tot)=    26.76 kcal/mol
 sn= 4  qrot/sn=   72380.7836 T*S(rot)=     7.52 kcal/mol T*S(tot)=    26.59 kcal/mol
 sn= 5  qrot/sn=   57904.6269 T*S(rot)=     7.39 kcal/mol T*S(tot)=    26.46 kcal/mol
 sn= 6  qrot/sn=   48253.8558 T*S(rot)=     7.28 kcal/mol T*S(tot)=    26.35 kcal/mol
 sn= 7  qrot/sn=   41360.4478 T*S(rot)=     7.19 kcal/mol T*S(tot)=    26.26 kcal/mol
 sn= 8  qrot/sn=   36190.3918 T*S(rot)=     7.11 kcal/mol T*S(tot)=    26.18 kcal/mol
 sn= 9  qrot/sn=   32169.2372 T*S(rot)=     7.04 kcal/mol T*S(tot)=    26.11 kcal/mol
 sn=10  qrot/sn=   28952.3135 T*S(rot)=     6.98 kcal/mol T*S(tot)=    26.05 kcal/mol
 sn=11  qrot/sn=   26320.2850 T*S(rot)=     6.92 kcal/mol T*S(tot)=    25.99 kcal/mol
 sn=12  qrot/sn=   24126.9279 T*S(rot)=     6.87 kcal/mol T*S(tot)=    25.94 kcal/mol

-------------------
GIBBS FREE ENTHALPY
-------------------

The Gibbs free enthalpy is G = H - T*S

Total enthalpy                    ...   -343.03172690 Eh
Total entropy correction          ...     -0.04264648 Eh    -26.76 kcal/mol
-----------------------------------------------------------------------
Final Gibbs free enthalpy         ...   -343.07437338 Eh

For completeness - the Gibbs free enthalpy minus the electronic energy
G-E(el)                           ...      0.12888008 Eh     80.87 kcal/mol

                             ****ORCA TERMINATED NORMALLY****
TOTAL RUN TIME: 0 days 0 hours 39 minutes 15 seconds 375 msec
