                         Program Version 3.0.3 - RELEASE   -
|  1> ! NORI PBE0 def2-TZVP UseSym TightOPT Freq TightSCF Grid3 FinalGrid5 XYZFile
|  2> % pal
|  3>     nprocs 8
|  4> end
|  5> %method
|  6>     SymThresh 5.0e-2
|  7> end
|  8> % geom
|  9>     MaxIter 10
| 10> end
| 11> % maxcore 2000
| 12> % output
| 13>     printlevel mini
| 14>     print[ P_Basis ] 0
| 15>     print[ P_SCFInfo ] 1
| 16>     print[ P_SCFIterInfo ] 1
| 17>     print[ P_OrbEn ] 0
| 18>     print[ P_Cartesian ] 0
| 19> end
| 20> % elprop
| 21>     Dipole false
| 22> end
| 23> *xyz 1 1
| 24>  C        1.0451928715     1.5573119663    -0.8424517975
| 25>  C        2.2567188053     2.0885614779    -0.1332559782
| 26>  O        3.3022118614     2.2299832949    -1.1312694994
| 27>  N        4.4229398006     2.6944107808    -0.5982826479
| 28>  C        5.3651226834     2.8393660354    -1.4203271905
| 29>  N        6.6295235735     3.3515346359    -0.8746744555
| 30>  C        6.6484135629     3.6344769921     0.5935445072
| 31>  H        0.2356624593     1.4377019816    -0.1203874932
| 32>  H        1.2449190738     0.5838888908    -1.2923700850
| 33>  H        0.7090343675     2.2445874997    -1.6201528271
| 34>  H        2.0799603590     3.0716115367     0.3084658237
| 35>  H        2.6192882738     1.4047775596     0.6374440998
| 36>  H        5.3598792695     2.6320052896    -2.4863324102
| 37>  H        6.8798350584     4.2078700329    -1.3786105482
| 38>  H        7.3730056404     2.6803390815    -1.0901604401
| 39>  H        5.8898338124     4.3801953421     0.8127157411
| 40>  H        7.6425225272     4.0001500349     0.8438745731
| 41>  H        6.4244760000     2.7151175674     1.1266206278
| 42> *
| 43>
| 44>                          ****END OF INPUT****
 Total Charge           Charge          ....    1
 Multiplicity           Mult            ....    1
 Number of Electrons    NEL             ....   56
FINAL SINGLE POINT ENERGY      -343.184572982264

CARTESIAN COORDINATES (ANGSTROEM)
---------------------------------
  C      3.121873    1.315197   -0.000000
  C      1.621979    1.371745    0.000000
  O      1.147163   -0.000789    0.000000
  N     -0.176681   -0.056238    0.000000
  C     -0.645578   -1.224433   -0.000000
  N     -2.110560   -1.335735    0.000000
  C     -2.870115   -0.047674   -0.000000
  H      3.515018    2.333201    0.000000
  H      3.498680    0.805478   -0.887743
  H      3.498680    0.805478    0.887743
  H      1.225971    1.863318    0.891171
  H      1.225971    1.863318   -0.891171
  H     -0.100221   -2.163555    0.000000
  H     -2.395967   -1.886467    0.815441
  H     -2.395967   -1.886467   -0.815441
  H     -2.598358    0.514916    0.888332
  H     -3.930567   -0.292574    0.000000
  H     -2.598358    0.514916   -0.888332

FINAL SINGLE POINT ENERGY      -343.184573166124
                    ***********************HURRAY********************
 Multiplicity           Mult            ....    1
 Number of Electrons    NEL             ....   56
 Basis Dimension        Dim             ....  283
FINAL SINGLE POINT ENERGY      -343.184573208817

VIBRATIONAL FREQUENCIES
-----------------------

   0:         0.00 cm**-1
   1:         0.00 cm**-1
   2:         0.00 cm**-1
   3:         0.00 cm**-1
   4:         0.00 cm**-1
   5:         0.00 cm**-1
   6:        45.87 cm**-1
   7:        89.25 cm**-1
   8:       124.68 cm**-1
   9:       164.87 cm**-1
  10:       235.75 cm**-1
  11:       250.96 cm**-1
  12:       253.36 cm**-1
  13:       325.57 cm**-1
  14:       423.36 cm**-1
  15:       463.67 cm**-1
  16:       648.88 cm**-1
  17:       815.70 cm**-1
  18:       829.02 cm**-1
  19:       877.91 cm**-1
  20:       888.40 cm**-1
  21:       914.92 cm**-1
  22:      1049.70 cm**-1
  23:      1091.34 cm**-1
  24:      1130.54 cm**-1
  25:      1152.00 cm**-1
  26:      1167.04 cm**-1
  27:      1175.05 cm**-1
  28:      1199.43 cm**-1
  29:      1292.85 cm**-1
  30:      1328.67 cm**-1
  31:      1359.12 cm**-1
  32:      1391.06 cm**-1
  33:      1407.76 cm**-1
  34:      1426.14 cm**-1
  35:      1456.38 cm**-1
  36:      1475.77 cm**-1
  37:      1479.56 cm**-1
  38:      1491.17 cm**-1
  39:      1494.81 cm**-1
  40:      1511.02 cm**-1
  41:      1644.12 cm**-1
  42:      1723.54 cm**-1
  43:      3069.79 cm**-1
  44:      3072.96 cm**-1
  45:      3105.30 cm**-1
  46:      3124.61 cm**-1
  47:      3152.12 cm**-1
  48:      3158.34 cm**-1
  49:      3192.13 cm**-1
  50:      3207.45 cm**-1
  51:      3220.74 cm**-1
  52:      3412.28 cm**-1
  53:      3449.15 cm**-1

IR SPECTRUM
-----------

 Mode    freq (cm**-1)   T**2         TX         TY         TZ
-------------------------------------------------------------------
   6:        45.87    0.072316  (  0.000071  -0.000077  -0.268917)
   7:        89.25    9.541060  ( -0.000292  -0.000603  -3.088861)
   8:       124.68    3.370280  ( -0.352593   1.801654  -0.000452)
   9:       164.87    7.111714  (  0.000074   0.000265  -2.666780)
  10:       235.75    0.660781  ( -0.000500   0.000055   0.812884)
  11:       250.96    2.149752  ( -0.006589   0.000534  -1.466188)
  12:       253.36    6.765197  ( -2.585854   0.280259   0.003503)
  13:       325.57   10.344049  (  0.000075   0.000276   3.216216)
  14:       423.36    3.912317  (  1.809148  -0.799563   0.000010)
  15:       463.67   11.284353  (  2.121117   2.604845  -0.000062)
  16:       648.88    7.987573  ( -2.596438  -1.116282   0.000059)
  17:       815.70    8.823050  ( -0.000134  -0.000028   2.970362)
  18:       829.02   31.533410  (  0.000113   0.000438  -5.615462)
  19:       877.91    6.964648  (  1.685083   2.031045   0.000115)
  20:       888.40    5.963116  (  0.000100   0.000398  -2.441949)
  21:       914.92    3.430081  ( -1.529435   1.044466   0.000050)
  22:      1049.70   35.773574  (  1.240797   5.850983  -0.000049)
  23:      1091.34    4.137581  (  0.145164  -2.028918   0.000029)
  24:      1130.54  138.420259  ( 10.981079   4.223288   0.000006)
  25:      1152.00   48.322335  (  3.897058   5.756325  -0.000060)
  26:      1167.04    0.064216  (  0.000333   0.000203  -0.253408)
  27:      1175.05    4.948365  ( -0.000251  -0.000220  -2.224492)
  28:      1199.43  157.970179  ( -8.512850  -9.246706  -0.000016)
  29:      1292.85    1.502164  (  0.000058  -0.000021   1.225628)
  30:      1328.67   22.322306  ( -4.712121  -0.343840  -0.000004)
  31:      1359.12    0.004181  (  0.000021   0.000080  -0.064661)
  32:      1391.06    8.381644  (  0.069333  -2.894277   0.000015)
  33:      1407.76   19.353250  ( -1.245272   4.219307   0.000055)
  34:      1426.14   30.521384  ( -5.524013   0.081646   0.000077)
  35:      1456.38    7.630249  (  1.443344  -2.355209  -0.000313)
  36:      1475.77   10.710803  (  0.000054   0.000097  -3.272736)
  37:      1479.56   22.409485  ( -0.000072   0.000169  -4.733866)
  38:      1491.17    7.588070  (  1.745214   2.131267   0.000302)
  39:      1494.81   32.229386  ( -5.676637  -0.071925  -0.000006)
  40:      1511.02   10.222522  ( -3.115700   0.717592  -0.000216)
  41:      1644.12   47.612738  ( -2.638784  -6.375701  -0.000010)
  42:      1723.54   17.355219  (  3.533628   2.206511   0.000018)
  43:      3069.79    2.572984  ( -1.198030  -1.066633   0.000026)
  44:      3072.96   17.981283  (  1.552534  -3.946001  -0.000035)
  45:      3105.30    0.394389  ( -0.513508  -0.361523  -0.000008)
  46:      3124.61    5.241837  ( -0.000100   0.000060  -2.289506)
  47:      3152.12    4.974330  ( -0.727536   2.108322   0.000876)
  48:      3158.34   13.851025  ( -0.000243   0.000505  -3.721697)
  49:      3192.13    5.051812  ( -0.597062  -2.166871  -0.000004)
  50:      3207.45    0.252040  (  0.166860   0.473496  -0.000055)
  51:      3220.74    0.802897  (  0.000004  -0.000002  -0.896045)
  52:      3412.28   79.772645  (  4.430528   7.755196  -0.000159)
  53:      3449.15   94.027146  ( -0.000018  -0.000012  -9.696760)

--------------------------
THERMOCHEMISTRY AT 298.15K
--------------------------

Temperature         ... 298.15 K
Pressure            ... 1.00 atm
Total Mass          ... 103.14 AMU

Throughout the following assumptions are being made:
  (1) The electronic state is orbitally nondegenerate
  (2) There are no thermally accessible electronically excited states
  (3) Hindered rotations indicated by low frequency modes) are not
      treated as such but are treated as vibrations and this may
      case some error
  (4) All equations used are the standard statistical mechanics
      equations for an ideal gas
  (5) All vibrations are strinctly harmonic

------------
INNER ENERGY
------------

The inner energy is: U= E(el) + E(ZPE) + E(vib) + E(rot) + E(trans)
    E(el)   - is the total energy from the electronic structure calculation
              = E(kin-el) + E(nuc-el) + E(el-el) + E(nuc-nuc)
    E(ZPE)  - the the zero temperature vibrational energy from the frequency calculation
    E(vib)  - the the finite temperature correction to E(ZPE) due to population
              of excietd vibrational states
    E(rot)  - is the rotational thermal energy
    E(trans)- is the translational thermal energy

Summary of contributions to the inner energy U:
Electronic energy                ...   -343.18457321 Eh
Zero point energy                ...      0.16166812 Eh     101.45 kcal/mol
Thermal vibrational correction   ...      0.00599465 Eh       3.76 kcal/mol
Thermal rotational correction    ...      0.00141627 Eh       0.89 kcal/mol
Thermal translational correction ...      0.00141627 Eh       0.89 kcal/mol
-----------------------------------------------------------------------
Total thermal energy                   -343.01407790 Eh

Summary of corrections to the electronic energy:
(perhaps to be used in another calculation)
Total thermal correction                  0.00882719 Eh       5.54 kcal/mol
Non-thermal (ZPE) correction              0.16166812 Eh     101.45 kcal/mol
-----------------------------------------------------------------------
Total correction                          0.17049531 Eh     106.99 kcal/mol

--------
ENTHALPY
--------

The enthalpy is H = U + kB*T
                kB is Boltzmann's constant
Total free energy                 ...   -343.01407790 Eh
Thermal Enthalpy correction       ...      0.00094421 Eh       0.59 kcal/mol
-----------------------------------------------------------------------
Total Enthalpy                    ...   -343.01313369 Eh

-------
ENTROPY
-------

The entropy contributions are T*S = T*(S(el)+S(vib)+S(rot)+S(trans)
     S(el)   - electronic entropy
     S(vib)  - vibrational entropy
     S(rot)  - rotational entropy
     S(trans)- translational entropy
The entropies will be listed as mutliplied by the temperature to get
units of energy

Electronic entropy                ...      0.00000000 Eh      0.00 kcal/mol
Vibrational entropy               ...      0.01147186 Eh      7.20 kcal/mol
Rotational entropy                ...      0.01224965 Eh      7.69 kcal/mol
Translational entropy             ...      0.01891510 Eh     11.87 kcal/mol
-----------------------------------------------------------------------
Final entropy term                ...      0.04263661 Eh     26.75 kcal/mol

CAUTION: The rotational entropy is not quite correctly treated here
         because it includes a symmetry number that is not yet correctly
         implemented in ORCA!
For a nonlinear molecule the correct rotational entropy is:
    S(rot) = R*(ln(qrot/sn)+1.5)
    R    = 8.31441 J/mol/K = 1.987191683e-3 kcal/mol/K
    qrot = 288500.3210016
    sn is the rotational symmetry number. We have assumed 3 here
       if it is different for your molecule then you should correct
       the printed rotational entropy by manually evaluating the equation
       as given above

For convenience we print out the resulting values for sn=1 - 12:
 sn= 1  qrot/sn=  288500.3210 T*S(rot)=     8.34 kcal/mol T*S(tot)=    27.41 kcal/mol
 sn= 2  qrot/sn=  144250.1605 T*S(rot)=     7.93 kcal/mol T*S(tot)=    27.00 kcal/mol
 sn= 3  qrot/sn=   96166.7737 T*S(rot)=     7.69 kcal/mol T*S(tot)=    26.75 kcal/mol
 sn= 4  qrot/sn=   72125.0803 T*S(rot)=     7.52 kcal/mol T*S(tot)=    26.58 kcal/mol
 sn= 5  qrot/sn=   57700.0642 T*S(rot)=     7.38 kcal/mol T*S(tot)=    26.45 kcal/mol
 sn= 6  qrot/sn=   48083.3868 T*S(rot)=     7.28 kcal/mol T*S(tot)=    26.34 kcal/mol
 sn= 7  qrot/sn=   41214.3316 T*S(rot)=     7.18 kcal/mol T*S(tot)=    26.25 kcal/mol
 sn= 8  qrot/sn=   36062.5401 T*S(rot)=     7.11 kcal/mol T*S(tot)=    26.17 kcal/mol
 sn= 9  qrot/sn=   32055.5912 T*S(rot)=     7.04 kcal/mol T*S(tot)=    26.10 kcal/mol
 sn=10  qrot/sn=   28850.0321 T*S(rot)=     6.97 kcal/mol T*S(tot)=    26.04 kcal/mol
 sn=11  qrot/sn=   26227.3019 T*S(rot)=     6.92 kcal/mol T*S(tot)=    25.99 kcal/mol
 sn=12  qrot/sn=   24041.6934 T*S(rot)=     6.87 kcal/mol T*S(tot)=    25.93 kcal/mol

-------------------
GIBBS FREE ENTHALPY
-------------------

The Gibbs free enthalpy is G = H - T*S

Total enthalpy                    ...   -343.01313369 Eh
Total entropy correction          ...     -0.04263661 Eh    -26.75 kcal/mol
-----------------------------------------------------------------------
Final Gibbs free enthalpy         ...   -343.05577030 Eh

For completeness - the Gibbs free enthalpy minus the electronic energy
G-E(el)                           ...      0.12880291 Eh     80.82 kcal/mol

                             ****ORCA TERMINATED NORMALLY****
TOTAL RUN TIME: 0 days 0 hours 38 minutes 34 seconds 984 msec
