                         Program Version 3.0.3 - RELEASE   -
|  1> ! NORI PBE0 def2-TZVP UseSym TightOPT Freq TightSCF Grid3 FinalGrid5 XYZFile
|  2> % pal
|  3>     nprocs 8
|  4> end
|  5> %method
|  6>     SymThresh 5.0e-2
|  7> end
|  8> % geom
|  9>     MaxIter 10
| 10> end
| 11> % maxcore 2000
| 12> % output
| 13>     printlevel mini
| 14>     print[ P_Basis ] 0
| 15>     print[ P_SCFInfo ] 1
| 16>     print[ P_SCFIterInfo ] 1
| 17>     print[ P_OrbEn ] 0
| 18>     print[ P_Cartesian ] 0
| 19> end
| 20> % elprop
| 21>     Dipole false
| 22> end
| 23> *xyz 1 1
| 24>  C        1.8601154641    -0.1414182387     3.4074114653
| 25>  C        3.2309516532    -0.0741041531     2.8464058747
| 26>  O        3.9469442193    -1.0430181885     2.6583365183
| 27>  O        3.6109003460     1.1675265676     2.5534099872
| 28>  C        4.7836693007     1.3793123891     1.7644617293
| 29>  C        6.0938104175     1.0673634915     2.4616397242
| 30>  N        6.4224996149    -0.3879567690     2.3737221332
| 31>  H        1.1457769142    -0.0223226397     2.5874014620
| 32>  H        1.6898304481     0.6779100686     4.1059763896
| 33>  H        1.7004628290    -1.1054316652     3.8831728265
| 34>  H        4.7598582736     2.4434500544     1.5354988663
| 35>  H        4.6925357706     0.8274456225     0.8235307258
| 36>  H        6.0402062213     1.3367604129     3.5167551630
| 37>  H        6.9030042078     1.6355365806     2.0028224039
| 38>  H        5.4822411818    -0.8893785854     2.4958938981
| 39>  H        7.0918658526    -0.6807965807     3.0839559276
| 40>  H        6.8064872853    -0.6343683670     1.4621749051
| 41> *
| 42>
| 43>                          ****END OF INPUT****
 Total Charge           Charge          ....    1
 Multiplicity           Mult            ....    1
 Number of Electrons    NEL             ....   56
FINAL SINGLE POINT ENERGY      -363.159735360249
FINAL SINGLE POINT ENERGY      -363.159721090348
FINAL SINGLE POINT ENERGY      -363.159736061774
FINAL SINGLE POINT ENERGY      -363.159735904994

CARTESIAN COORDINATES (ANGSTROEM)
---------------------------------
  C      2.269451   -0.718932    1.102185
  C      0.957768   -0.212554    0.631434
  O      0.000453    0.000278    1.356105
  O      0.925521    0.000015   -0.682232
  C     -0.160678    0.732729   -1.251971
  C     -1.491380    0.005481   -1.266107
  N     -2.208611    0.159444    0.036103
  H      2.971343    0.119752    1.134542
  H      2.672645   -1.450862    0.402246
  H      2.169249   -1.139696    2.099117
  H      0.148028    0.905538   -2.281845
  H     -0.243021    1.705056   -0.754802
  H     -1.343740   -1.060110   -1.444297
  H     -2.123261    0.402261   -2.060853
  H     -1.439573    0.099095    0.780979
  H     -2.917228   -0.558646    0.179195
  H     -2.664505    1.067962    0.111364

FINAL SINGLE POINT ENERGY      -363.159736386601
                    ***********************HURRAY********************
 Multiplicity           Mult            ....    1
 Number of Electrons    NEL             ....   56
 Basis Dimension        Dim             ....  277
FINAL SINGLE POINT ENERGY      -363.159736382974

VIBRATIONAL FREQUENCIES
-----------------------

   0:         0.00 cm**-1
   1:         0.00 cm**-1
   2:         0.00 cm**-1
   3:         0.00 cm**-1
   4:         0.00 cm**-1
   5:         0.00 cm**-1
   6:        64.87 cm**-1
   7:       102.04 cm**-1
   8:       129.48 cm**-1
   9:       245.43 cm**-1
  10:       259.41 cm**-1
  11:       353.12 cm**-1
  12:       376.69 cm**-1
  13:       416.84 cm**-1
  14:       507.55 cm**-1
  15:       624.63 cm**-1
  16:       669.15 cm**-1
  17:       806.75 cm**-1
  18:       880.38 cm**-1
  19:       919.88 cm**-1
  20:       964.18 cm**-1
  21:      1024.70 cm**-1
  22:      1051.48 cm**-1
  23:      1066.64 cm**-1
  24:      1105.69 cm**-1
  25:      1153.90 cm**-1
  26:      1189.68 cm**-1
  27:      1298.00 cm**-1
  28:      1323.83 cm**-1
  29:      1353.81 cm**-1
  30:      1392.23 cm**-1
  31:      1411.90 cm**-1
  32:      1438.09 cm**-1
  33:      1450.77 cm**-1
  34:      1463.74 cm**-1
  35:      1476.16 cm**-1
  36:      1483.51 cm**-1
  37:      1507.39 cm**-1
  38:      1637.73 cm**-1
  39:      1680.68 cm**-1
  40:      1760.26 cm**-1
  41:      2656.83 cm**-1
  42:      3067.32 cm**-1
  43:      3071.88 cm**-1
  44:      3106.96 cm**-1
  45:      3146.77 cm**-1
  46:      3158.57 cm**-1
  47:      3164.78 cm**-1
  48:      3200.81 cm**-1
  49:      3481.55 cm**-1
  50:      3544.15 cm**-1

IR SPECTRUM
-----------

 Mode    freq (cm**-1)   T**2         TX         TY         TZ
-------------------------------------------------------------------
   6:        64.87    1.916485  (  0.132569   1.206938   0.664990)
   7:       102.04   11.438553  ( -0.158117  -3.378368   0.013549)
   8:       129.48    4.350654  (  1.378427   1.556035   0.171311)
   9:       245.43   23.278170  ( -4.668513   0.407256   1.147736)
  10:       259.41   22.434613  ( -2.697027   0.989253  -3.765904)
  11:       353.12   52.409429  (  6.931447   0.899393   1.885622)
  12:       376.69    4.375431  (  1.767880   0.790452   0.790707)
  13:       416.84    1.495601  (  1.153468  -0.405445   0.026972)
  14:       507.55   39.097332  (  5.777163  -1.114360   2.116582)
  15:       624.63    9.989015  (  2.396218   1.580181   1.322945)
  16:       669.15   38.711290  ( -5.764289   1.325400  -1.930692)
  17:       806.75    2.799845  ( -0.422960   0.308503   1.589269)
  18:       880.38   12.019383  ( -3.069963   1.591618  -0.247912)
  19:       919.88   13.603167  (  3.120647   0.456617  -1.912127)
  20:       964.18   10.882168  (  0.460878   3.258313  -0.230552)
  21:      1024.70    2.195179  (  1.245923   0.211563  -0.773367)
  22:      1051.48   32.323512  ( -4.584271   1.916338  -2.763263)
  23:      1066.64   24.791354  (  3.967558   2.050334   2.201357)
  24:      1105.69   83.269938  (  5.982446  -2.189994   6.533315)
  25:      1153.90    8.230735  (  2.223424   1.781815   0.335044)
  26:      1189.68   14.597269  (  3.354757   1.472480   1.083823)
  27:      1298.00  243.273080  ( -2.486601   3.778659 -14.926876)
  28:      1323.83   11.441129  ( -1.430221  -1.279584  -2.785365)
  29:      1353.81   17.094705  (  0.928135   1.175808  -3.853666)
  30:      1392.23    0.189842  ( -0.377538  -0.043796  -0.213047)
  31:      1411.90   94.134229  ( -6.970833   1.625882  -6.549674)
  32:      1438.09   21.869157  ( -0.333575  -0.185891  -4.660829)
  33:      1450.77   40.912757  (  6.225689  -0.744157  -1.264827)
  34:      1463.74   11.705580  ( -1.465013  -2.448847   1.887450)
  35:      1476.16   31.076665  ( -3.997357  -0.481636   3.855623)
  36:      1483.51   50.778040  (  3.447459  -6.106962   1.264150)
  37:      1507.39  345.390388  (-18.271022   1.992445   2.755048)
  38:      1637.73    6.762637  (  0.183667   2.225565   1.332577)
  39:      1680.68   24.396266  ( -1.190173  -4.655659  -1.142188)
  40:      1760.26  256.860345  (-14.139669   2.139014   7.235656)
  41:      2656.83  1179.030390  ( 29.581005  -3.335783  17.113360)
  42:      3067.32    8.714885  (  1.750543  -2.339590   0.420481)
  43:      3071.88    5.692250  (  2.246552  -0.143931   0.790278)
  44:      3106.96    0.855230  (  0.902559  -0.180595  -0.089458)
  45:      3146.77    1.044561  (  0.646407   0.744261   0.269806)
  46:      3158.57    0.780166  ( -0.874135  -0.122553  -0.032159)
  47:      3164.78    0.033907  (  0.067729  -0.169719   0.022687)
  48:      3200.81    0.775437  (  0.831541  -0.123673  -0.262071)
  49:      3481.55   86.634376  (  9.134561  -1.311299  -1.214357)
  50:      3544.15   86.466099  (  1.766189   9.119867  -0.417973)

--------------------------
THERMOCHEMISTRY AT 298.15K
--------------------------

Temperature         ... 298.15 K
Pressure            ... 1.00 atm
Total Mass          ... 104.13 AMU

Throughout the following assumptions are being made:
  (1) The electronic state is orbitally nondegenerate
  (2) There are no thermally accessible electronically excited states
  (3) Hindered rotations indicated by low frequency modes) are not
      treated as such but are treated as vibrations and this may
      case some error
  (4) All equations used are the standard statistical mechanics
      equations for an ideal gas
  (5) All vibrations are strinctly harmonic

------------
INNER ENERGY
------------

The inner energy is: U= E(el) + E(ZPE) + E(vib) + E(rot) + E(trans)
    E(el)   - is the total energy from the electronic structure calculation
              = E(kin-el) + E(nuc-el) + E(el-el) + E(nuc-nuc)
    E(ZPE)  - the the zero temperature vibrational energy from the frequency calculation
    E(vib)  - the the finite temperature correction to E(ZPE) due to population
              of excietd vibrational states
    E(rot)  - is the rotational thermal energy
    E(trans)- is the translational thermal energy

Summary of contributions to the inner energy U:
Electronic energy                ...   -363.15973638 Eh
Zero point energy                ...      0.15079244 Eh      94.62 kcal/mol
Thermal vibrational correction   ...      0.00512275 Eh       3.21 kcal/mol
Thermal rotational correction    ...      0.00141627 Eh       0.89 kcal/mol
Thermal translational correction ...      0.00141627 Eh       0.89 kcal/mol
-----------------------------------------------------------------------
Total thermal energy                   -363.00098865 Eh

Summary of corrections to the electronic energy:
(perhaps to be used in another calculation)
Total thermal correction                  0.00795529 Eh       4.99 kcal/mol
Non-thermal (ZPE) correction              0.15079244 Eh      94.62 kcal/mol
-----------------------------------------------------------------------
Total correction                          0.15874773 Eh      99.62 kcal/mol

--------
ENTHALPY
--------

The enthalpy is H = U + kB*T
                kB is Boltzmann's constant
Total free energy                 ...   -363.00098865 Eh
Thermal Enthalpy correction       ...      0.00094421 Eh       0.59 kcal/mol
-----------------------------------------------------------------------
Total Enthalpy                    ...   -363.00004444 Eh

-------
ENTROPY
-------

The entropy contributions are T*S = T*(S(el)+S(vib)+S(rot)+S(trans)
     S(el)   - electronic entropy
     S(vib)  - vibrational entropy
     S(rot)  - rotational entropy
     S(trans)- translational entropy
The entropies will be listed as mutliplied by the temperature to get
units of energy

Electronic entropy                ...      0.00000000 Eh      0.00 kcal/mol
Vibrational entropy               ...      0.00940023 Eh      5.90 kcal/mol
Rotational entropy                ...      0.01206680 Eh      7.57 kcal/mol
Translational entropy             ...      0.01892854 Eh     11.88 kcal/mol
-----------------------------------------------------------------------
Final entropy term                ...      0.04039557 Eh     25.35 kcal/mol

CAUTION: The rotational entropy is not quite correctly treated here
         because it includes a symmetry number that is not yet correctly
         implemented in ORCA!
For a nonlinear molecule the correct rotational entropy is:
    S(rot) = R*(ln(qrot/sn)+1.5)
    R    = 8.31441 J/mol/K = 1.987191683e-3 kcal/mol/K
    qrot = 237704.9501638
    sn is the rotational symmetry number. We have assumed 3 here
       if it is different for your molecule then you should correct
       the printed rotational entropy by manually evaluating the equation
       as given above

For convenience we print out the resulting values for sn=1 - 12:
 sn= 1  qrot/sn=  237704.9502 T*S(rot)=     8.22 kcal/mol T*S(tot)=    26.00 kcal/mol
 sn= 2  qrot/sn=  118852.4751 T*S(rot)=     7.81 kcal/mol T*S(tot)=    25.59 kcal/mol
 sn= 3  qrot/sn=   79234.9834 T*S(rot)=     7.57 kcal/mol T*S(tot)=    25.35 kcal/mol
 sn= 4  qrot/sn=   59426.2375 T*S(rot)=     7.40 kcal/mol T*S(tot)=    25.18 kcal/mol
 sn= 5  qrot/sn=   47540.9900 T*S(rot)=     7.27 kcal/mol T*S(tot)=    25.05 kcal/mol
 sn= 6  qrot/sn=   39617.4917 T*S(rot)=     7.16 kcal/mol T*S(tot)=    24.94 kcal/mol
 sn= 7  qrot/sn=   33957.8500 T*S(rot)=     7.07 kcal/mol T*S(tot)=    24.85 kcal/mol
 sn= 8  qrot/sn=   29713.1188 T*S(rot)=     6.99 kcal/mol T*S(tot)=    24.77 kcal/mol
 sn= 9  qrot/sn=   26411.6611 T*S(rot)=     6.92 kcal/mol T*S(tot)=    24.70 kcal/mol
 sn=10  qrot/sn=   23770.4950 T*S(rot)=     6.86 kcal/mol T*S(tot)=    24.64 kcal/mol
 sn=11  qrot/sn=   21609.5409 T*S(rot)=     6.80 kcal/mol T*S(tot)=    24.58 kcal/mol
 sn=12  qrot/sn=   19808.7458 T*S(rot)=     6.75 kcal/mol T*S(tot)=    24.53 kcal/mol

-------------------
GIBBS FREE ENTHALPY
-------------------

The Gibbs free enthalpy is G = H - T*S

Total enthalpy                    ...   -363.00004444 Eh
Total entropy correction          ...     -0.04039557 Eh    -25.35 kcal/mol
-----------------------------------------------------------------------
Final Gibbs free enthalpy         ...   -363.04044001 Eh

For completeness - the Gibbs free enthalpy minus the electronic energy
G-E(el)                           ...      0.11929637 Eh     74.86 kcal/mol

                             ****ORCA TERMINATED NORMALLY****
TOTAL RUN TIME: 0 days 0 hours 46 minutes 21 seconds 118 msec
