                         Program Version 3.0.3 - RELEASE   -
|  1> ! NORI PBE0 def2-TZVP UseSym TightOPT Freq TightSCF Grid3 FinalGrid5 XYZFile
|  2> % pal
|  3>     nprocs 8
|  4> end
|  5> %method
|  6>     SymThresh 5.0e-2
|  7> end
|  8> % geom
|  9>     MaxIter 10
| 10> end
| 11> % maxcore 2000
| 12> % output
| 13>     printlevel mini
| 14>     print[ P_Basis ] 0
| 15>     print[ P_SCFInfo ] 1
| 16>     print[ P_SCFIterInfo ] 1
| 17>     print[ P_OrbEn ] 0
| 18>     print[ P_Cartesian ] 0
| 19> end
| 20> % elprop
| 21>     Dipole false
| 22> end
| 23> *xyz 1 1
| 24>  C        0.5741210972     0.0057243734    -0.0685934214
| 25>  N        2.0480486300     0.0250727973     0.0010477144
| 26>  C        2.9836322653    -0.8962546127    -0.7107656127
| 27>  C        2.3936517359    -1.6038070744    -1.9003435692
| 28>  O        1.7633302642    -0.5965160577    -2.6628919196
| 29>  C        2.3912588096     0.6458299002    -2.4256267711
| 30>  C        2.9807847672     0.5396775568    -1.0451239529
| 31>  H        0.2084809302     0.9871409015     0.2308618694
| 32>  H        0.2121721717    -0.7525119793     0.6245083286
| 33>  H        0.2563724022    -0.2241598637    -1.0807187441
| 34>  H        2.3797887188     0.2438240245     0.9352158709
| 35>  H        3.7228847450    -1.3731377616    -0.0799331100
| 36>  H        3.2200116562    -2.0812662782    -2.4423585787
| 37>  H        1.6535713763    -2.3678036260    -1.6542575861
| 38>  H        1.6498872909     1.4383615638    -2.5450018921
| 39>  H        3.2177755715     0.8348967713    -3.1224572915
| 40>  H        3.7179875677     1.2488993647    -0.6905713339
| 41> *
| 42>
| 43>                          ****END OF INPUT****
 Total Charge           Charge          ....    1
 Multiplicity           Mult            ....    1
 Number of Electrons    NEL             ....   54
FINAL SINGLE POINT ENERGY      -325.978096611872

CARTESIAN COORDINATES (ANGSTROEM)
---------------------------------
  C     -0.803192   -1.811039    0.000000
  N     -1.236209   -0.400106   -0.000000
  C     -0.592626    0.728110    0.737111
  C      0.832099    0.483404    1.155011
  O      1.485475    0.001049   -0.000000
  C      0.832099    0.483404   -1.155011
  C     -0.592626    0.728110   -0.737111
  H     -1.206611   -2.288878   -0.891841
  H     -1.206610   -2.288878    0.891841
  H      0.281100   -1.863693   -0.000000
  H     -2.247896   -0.315297   -0.000000
  H     -1.265602    1.318224    1.345994
  H      1.243801    1.441518    1.497376
  H      0.952618   -0.250283    1.954459
  H      0.952618   -0.250283   -1.954459
  H      1.243801    1.441518   -1.497376
  H     -1.265602    1.318224   -1.345994

FINAL SINGLE POINT ENERGY      -325.978097194755
                    ***********************HURRAY********************
 Multiplicity           Mult            ....    1
 Number of Electrons    NEL             ....   54
 Basis Dimension        Dim             ....  277
FINAL SINGLE POINT ENERGY      -325.978097349708

VIBRATIONAL FREQUENCIES
-----------------------

   0:         0.00 cm**-1
   1:         0.00 cm**-1
   2:         0.00 cm**-1
   3:         0.00 cm**-1
   4:         0.00 cm**-1
   5:         0.00 cm**-1
   6:       171.83 cm**-1
   7:       207.83 cm**-1
   8:       245.39 cm**-1
   9:       262.65 cm**-1
  10:       423.09 cm**-1
  11:       487.59 cm**-1
  12:       682.98 cm**-1
  13:       726.81 cm**-1
  14:       787.27 cm**-1
  15:       791.66 cm**-1
  16:       909.84 cm**-1
  17:       951.96 cm**-1
  18:       964.67 cm**-1
  19:      1004.71 cm**-1
  20:      1009.53 cm**-1
  21:      1011.13 cm**-1
  22:      1077.53 cm**-1
  23:      1115.04 cm**-1
  24:      1155.43 cm**-1
  25:      1165.63 cm**-1
  26:      1166.14 cm**-1
  27:      1187.79 cm**-1
  28:      1234.24 cm**-1
  29:      1260.12 cm**-1
  30:      1271.07 cm**-1
  31:      1330.25 cm**-1
  32:      1375.21 cm**-1
  33:      1380.21 cm**-1
  34:      1407.62 cm**-1
  35:      1456.84 cm**-1
  36:      1469.13 cm**-1
  37:      1490.48 cm**-1
  38:      1499.73 cm**-1
  39:      1506.95 cm**-1
  40:      1514.54 cm**-1
  41:      3041.91 cm**-1
  42:      3043.64 cm**-1
  43:      3090.49 cm**-1
  44:      3123.04 cm**-1
  45:      3125.45 cm**-1
  46:      3179.98 cm**-1
  47:      3210.95 cm**-1
  48:      3222.94 cm**-1
  49:      3230.91 cm**-1
  50:      3541.15 cm**-1

IR SPECTRUM
-----------

 Mode    freq (cm**-1)   T**2         TX         TY         TZ
-------------------------------------------------------------------
   6:       171.83    0.000848  (  0.000000   0.000001   0.029117)
   7:       207.83    0.094918  (  0.000000   0.000003  -0.308087)
   8:       245.39   11.618876  (  2.678850   2.107757   0.000002)
   9:       262.65    5.126759  (  1.529796   1.669277  -0.000000)
  10:       423.09    0.020300  ( -0.000000   0.000001  -0.142479)
  11:       487.59    4.140714  ( -0.045125   2.034374   0.000000)
  12:       682.98    3.437262  ( -0.000000   0.000000   1.853985)
  13:       726.81    3.004347  ( -0.025697   1.733115  -0.000005)
  14:       787.27   26.330596  ( -4.659126  -2.150150   0.000003)
  15:       791.66    1.856075  (  0.000000  -0.000000   1.362378)
  16:       909.84   14.893220  ( -3.514123   1.595042   0.000001)
  17:       951.96   17.239345  ( -3.033919   2.834551   0.000002)
  18:       964.67    8.583307  ( -0.000000  -0.000001  -2.929728)
  19:      1004.71   22.952953  (  0.662592   4.744884   0.000000)
  20:      1009.53   10.781115  (  0.000000  -0.000003  -3.283461)
  21:      1011.13    2.731837  ( -0.811930  -1.439655  -0.000004)
  22:      1077.53   42.360854  ( -0.000000  -0.000001   6.508522)
  23:      1115.04   12.975926  (  2.872720   2.173340   0.000000)
  24:      1155.43    8.317781  ( -0.000000   0.000001  -2.884056)
  25:      1165.63    3.035849  ( -1.212931  -1.250858   0.000006)
  26:      1166.14   54.078166  (  0.000000   0.000002   7.353786)
  27:      1187.79    0.217895  ( -0.000000  -0.000000  -0.466793)
  28:      1234.24    5.826690  ( -0.000000   0.000000  -2.413854)
  29:      1260.12   10.902537  ( -0.628879  -3.241458   0.000000)
  30:      1271.07    4.659398  ( -0.392001   2.122671  -0.000001)
  31:      1330.25    1.961832  (  0.000000  -0.000001  -1.400654)
  32:      1375.21    1.795719  ( -0.701673   1.141654  -0.000001)
  33:      1380.21   11.893319  ( -0.000000  -0.000000   3.448669)
  34:      1407.62    0.420113  ( -0.599874   0.245487   0.000007)
  35:      1456.84    3.694959  ( -0.915324   1.690308   0.000011)
  36:      1469.13   15.073595  ( -2.019851   3.315690  -0.000006)
  37:      1490.48   18.143049  ( -0.000000   0.000000  -4.259466)
  38:      1499.73   25.863540  ( -3.962718  -3.187540  -0.000007)
  39:      1506.95    0.666421  ( -0.000000  -0.000000  -0.816346)
  40:      1514.54    7.372139  (  0.024321  -2.715059  -0.000007)
  41:      3041.91   15.581921  ( -0.000000  -0.000001  -3.947394)
  42:      3043.64    7.185482  (  0.364271  -2.655709  -0.000001)
  43:      3090.49    2.290708  (  1.047689   1.092271  -0.000008)
  44:      3123.04    1.728579  ( -0.000000   0.000002  -1.314755)
  45:      3125.45    1.533839  ( -0.446083  -1.155357  -0.000001)
  46:      3179.98    0.185165  ( -0.000000  -0.000000  -0.430308)
  47:      3210.95    6.259433  ( -2.149582  -1.280128  -0.000004)
  48:      3222.94    1.949752  (  0.000000   0.000000  -1.396335)
  49:      3230.91    4.870813  ( -1.285236   1.794152   0.000000)
  50:      3541.15   97.636892  ( -9.846091  -0.831490  -0.000000)

--------------------------
THERMOCHEMISTRY AT 298.15K
--------------------------

Temperature         ... 298.15 K
Pressure            ... 1.00 atm
Total Mass          ... 100.14 AMU

Throughout the following assumptions are being made:
  (1) The electronic state is orbitally nondegenerate
  (2) There are no thermally accessible electronically excited states
  (3) Hindered rotations indicated by low frequency modes) are not
      treated as such but are treated as vibrations and this may
      case some error
  (4) All equations used are the standard statistical mechanics
      equations for an ideal gas
  (5) All vibrations are strinctly harmonic

------------
INNER ENERGY
------------

The inner energy is: U= E(el) + E(ZPE) + E(vib) + E(rot) + E(trans)
    E(el)   - is the total energy from the electronic structure calculation
              = E(kin-el) + E(nuc-el) + E(el-el) + E(nuc-nuc)
    E(ZPE)  - the the zero temperature vibrational energy from the frequency calculation
    E(vib)  - the the finite temperature correction to E(ZPE) due to population
              of excietd vibrational states
    E(rot)  - is the rotational thermal energy
    E(trans)- is the translational thermal energy

Summary of contributions to the inner energy U:
Electronic energy                ...   -325.97809735 Eh
Zero point energy                ...      0.15380669 Eh      96.51 kcal/mol
Thermal vibrational correction   ...      0.00349994 Eh       2.20 kcal/mol
Thermal rotational correction    ...      0.00141627 Eh       0.89 kcal/mol
Thermal translational correction ...      0.00141627 Eh       0.89 kcal/mol
-----------------------------------------------------------------------
Total thermal energy                   -325.81795818 Eh

Summary of corrections to the electronic energy:
(perhaps to be used in another calculation)
Total thermal correction                  0.00633249 Eh       3.97 kcal/mol
Non-thermal (ZPE) correction              0.15380669 Eh      96.51 kcal/mol
-----------------------------------------------------------------------
Total correction                          0.16013917 Eh     100.49 kcal/mol

--------
ENTHALPY
--------

The enthalpy is H = U + kB*T
                kB is Boltzmann's constant
Total free energy                 ...   -325.81795818 Eh
Thermal Enthalpy correction       ...      0.00094421 Eh       0.59 kcal/mol
-----------------------------------------------------------------------
Total Enthalpy                    ...   -325.81701397 Eh

-------
ENTROPY
-------

The entropy contributions are T*S = T*(S(el)+S(vib)+S(rot)+S(trans)
     S(el)   - electronic entropy
     S(vib)  - vibrational entropy
     S(rot)  - rotational entropy
     S(trans)- translational entropy
The entropies will be listed as mutliplied by the temperature to get
units of energy

Electronic entropy                ...      0.00000000 Eh      0.00 kcal/mol
Vibrational entropy               ...      0.00555355 Eh      3.48 kcal/mol
Rotational entropy                ...      0.01169558 Eh      7.34 kcal/mol
Translational entropy             ...      0.01887324 Eh     11.84 kcal/mol
-----------------------------------------------------------------------
Final entropy term                ...      0.03612237 Eh     22.67 kcal/mol

CAUTION: The rotational entropy is not quite correctly treated here
         because it includes a symmetry number that is not yet correctly
         implemented in ORCA!
For a nonlinear molecule the correct rotational entropy is:
    S(rot) = R*(ln(qrot/sn)+1.5)
    R    = 8.31441 J/mol/K = 1.987191683e-3 kcal/mol/K
    qrot = 160431.1701221
    sn is the rotational symmetry number. We have assumed 3 here
       if it is different for your molecule then you should correct
       the printed rotational entropy by manually evaluating the equation
       as given above

For convenience we print out the resulting values for sn=1 - 12:
 sn= 1  qrot/sn=  160431.1701 T*S(rot)=     7.99 kcal/mol T*S(tot)=    23.32 kcal/mol
 sn= 2  qrot/sn=   80215.5851 T*S(rot)=     7.58 kcal/mol T*S(tot)=    22.91 kcal/mol
 sn= 3  qrot/sn=   53477.0567 T*S(rot)=     7.34 kcal/mol T*S(tot)=    22.67 kcal/mol
 sn= 4  qrot/sn=   40107.7925 T*S(rot)=     7.17 kcal/mol T*S(tot)=    22.50 kcal/mol
 sn= 5  qrot/sn=   32086.2340 T*S(rot)=     7.04 kcal/mol T*S(tot)=    22.36 kcal/mol
 sn= 6  qrot/sn=   26738.5284 T*S(rot)=     6.93 kcal/mol T*S(tot)=    22.26 kcal/mol
 sn= 7  qrot/sn=   22918.7386 T*S(rot)=     6.84 kcal/mol T*S(tot)=    22.17 kcal/mol
 sn= 8  qrot/sn=   20053.8963 T*S(rot)=     6.76 kcal/mol T*S(tot)=    22.09 kcal/mol
 sn= 9  qrot/sn=   17825.6856 T*S(rot)=     6.69 kcal/mol T*S(tot)=    22.02 kcal/mol
 sn=10  qrot/sn=   16043.1170 T*S(rot)=     6.63 kcal/mol T*S(tot)=    21.95 kcal/mol
 sn=11  qrot/sn=   14584.6518 T*S(rot)=     6.57 kcal/mol T*S(tot)=    21.90 kcal/mol
 sn=12  qrot/sn=   13369.2642 T*S(rot)=     6.52 kcal/mol T*S(tot)=    21.85 kcal/mol

-------------------
GIBBS FREE ENTHALPY
-------------------

The Gibbs free enthalpy is G = H - T*S

Total enthalpy                    ...   -325.81701397 Eh
Total entropy correction          ...     -0.03612237 Eh    -22.67 kcal/mol
-----------------------------------------------------------------------
Final Gibbs free enthalpy         ...   -325.85313634 Eh

For completeness - the Gibbs free enthalpy minus the electronic energy
G-E(el)                           ...      0.12496101 Eh     78.41 kcal/mol

                             ****ORCA TERMINATED NORMALLY****
TOTAL RUN TIME: 0 days 0 hours 48 minutes 12 seconds 191 msec
