                         Program Version 3.0.3 - RELEASE   -
|  1> ! NORI PBE0 def2-TZVP UseSym TightOPT Freq TightSCF Grid3 FinalGrid5 XYZFile
|  2> % pal
|  3>     nprocs 8
|  4> end
|  5> %method
|  6>     SymThresh 5.0e-2
|  7> end
|  8> % geom
|  9>     MaxIter 10
| 10> end
| 11> % maxcore 2000
| 12> % output
| 13>     printlevel mini
| 14>     print[ P_Basis ] 0
| 15>     print[ P_SCFInfo ] 1
| 16>     print[ P_SCFIterInfo ] 1
| 17>     print[ P_OrbEn ] 0
| 18>     print[ P_Cartesian ] 0
| 19> end
| 20> % elprop
| 21>     Dipole false
| 22> end
| 23> *xyz 1 1
| 24>  C        1.0333919462    -0.0626477011    -0.0015843403
| 25>  N        2.4923854966    -0.0866152054    -0.1717441296
| 26>  C        3.1278307273    -0.6406097122    -1.3840271955
| 27>  C        3.1879638085     0.8121036311    -1.1427767465
| 28>  C        4.4172011299     1.4787430212    -0.6506005438
| 29>  C        4.8270954172     2.7668638853    -1.2103679936
| 30>  O        4.1844070931     2.6796875233     0.0487530653
| 31>  H        0.7059478896    -1.0248613428     0.3905328346
| 32>  H        0.5686546671     0.1166383114    -0.9696463118
| 33>  H        0.7739212772     0.7392008690     0.6884333735
| 34>  H        3.0074093956    -0.2417966468     0.6903619530
| 35>  H        4.0065448488    -1.2457714534    -1.1965310912
| 36>  H        2.4259062027    -1.0344557226    -2.1080343742
| 37>  H        2.4820599991     1.4430521449    -1.6719661552
| 38>  H        5.1787608862     0.8246176276    -0.2245589350
| 39>  H        4.2408042382     3.2213502633    -2.0042281517
| 40>  H        5.8798649768     3.0288805073    -1.1814852581
| 41> *
| 42>
| 43>                          ****END OF INPUT****
 Total Charge           Charge          ....    1
 Multiplicity           Mult            ....    1
 Number of Electrons    NEL             ....   54
FINAL SINGLE POINT ENERGY      -325.946682186132

CARTESIAN COORDINATES (ANGSTROEM)
---------------------------------
  C      1.570640   -1.174320   -1.674186
  N      0.891082    0.000340   -1.111884
  C     -0.353311    0.537271   -1.698221
  C     -0.406022   -0.115949   -0.378203
  C     -0.515943    0.659111    0.880718
  C     -1.400875    0.198094    1.950648
  O     -0.000113   -0.000665    2.013925
  H      2.214773   -0.853996   -2.492236
  H      0.820618   -1.869572   -2.047360
  H      2.157693   -1.648948   -0.889236
  H      1.521150    0.700165   -0.730057
  H     -0.395106    1.618260   -1.756608
  H     -0.693771    0.001180   -2.574762
  H     -0.744187   -1.145643   -0.335837
  H     -0.287586    1.723248    0.809196
  H     -1.995053   -0.700694    1.809458
  H     -1.801066    0.934159    2.640686

FINAL SINGLE POINT ENERGY      -325.946682877446
                    ***********************HURRAY********************
 Multiplicity           Mult            ....    1
 Number of Electrons    NEL             ....   54
 Basis Dimension        Dim             ....  277
FINAL SINGLE POINT ENERGY      -325.946683267662

VIBRATIONAL FREQUENCIES
-----------------------

   0:         0.00 cm**-1
   1:         0.00 cm**-1
   2:         0.00 cm**-1
   3:         0.00 cm**-1
   4:         0.00 cm**-1
   5:         0.00 cm**-1
   6:        67.92 cm**-1
   7:       153.43 cm**-1
   8:       187.95 cm**-1
   9:       211.41 cm**-1
  10:       362.49 cm**-1
  11:       380.51 cm**-1
  12:       395.35 cm**-1
  13:       512.89 cm**-1
  14:       799.76 cm**-1
  15:       820.91 cm**-1
  16:       862.24 cm**-1
  17:       913.03 cm**-1
  18:       923.34 cm**-1
  19:       964.85 cm**-1
  20:       990.31 cm**-1
  21:      1068.20 cm**-1
  22:      1092.38 cm**-1
  23:      1111.04 cm**-1
  24:      1143.21 cm**-1
  25:      1162.00 cm**-1
  26:      1163.24 cm**-1
  27:      1180.19 cm**-1
  28:      1191.50 cm**-1
  29:      1229.46 cm**-1
  30:      1238.83 cm**-1
  31:      1285.40 cm**-1
  32:      1303.13 cm**-1
  33:      1345.89 cm**-1
  34:      1450.50 cm**-1
  35:      1455.61 cm**-1
  36:      1472.35 cm**-1
  37:      1482.59 cm**-1
  38:      1496.09 cm**-1
  39:      1518.16 cm**-1
  40:      1533.50 cm**-1
  41:      3084.90 cm**-1
  42:      3117.64 cm**-1
  43:      3124.44 cm**-1
  44:      3167.96 cm**-1
  45:      3183.76 cm**-1
  46:      3187.42 cm**-1
  47:      3199.76 cm**-1
  48:      3224.19 cm**-1
  49:      3269.39 cm**-1
  50:      3531.08 cm**-1

IR SPECTRUM
-----------

 Mode    freq (cm**-1)   T**2         TX         TY         TZ
-------------------------------------------------------------------
   6:        67.92    4.789878  (  0.866984   1.057550  -1.708743)
   7:       153.43    5.856154  (  0.353359  -2.081110  -1.183331)
   8:       187.95    0.307059  ( -0.183569  -0.458249   0.251732)
   9:       211.41    1.960535  (  0.050558   0.130099  -1.393217)
  10:       362.49    0.938713  ( -0.221624  -0.615332  -0.714817)
  11:       380.51    4.663036  ( -0.360662   0.945777   1.907476)
  12:       395.35    1.508134  ( -1.119426  -0.504971   0.004845)
  13:       512.89    7.356481  ( -0.047701   0.186302   2.705457)
  14:       799.76    8.127551  ( -1.609057   0.126522  -2.349996)
  15:       820.91   21.472300  (  4.430092   0.498640  -1.264096)
  16:       862.24    8.389344  (  2.161842  -1.195337  -1.512267)
  17:       913.03   13.665169  (  0.317669   2.252802  -2.913612)
  18:       923.34   19.504587  ( -2.577168   2.056668  -2.938181)
  19:       964.85    6.320475  (  0.530137  -1.339155   2.060605)
  20:       990.31   32.311737  ( -2.356098   1.583500  -4.924740)
  21:      1068.20   44.747784  (  5.578168  -1.379251  -3.424835)
  22:      1092.38   14.486220  ( -3.415697   1.528896   0.694051)
  23:      1111.04    1.604852  (  0.852958  -0.207208  -0.913444)
  24:      1143.21   11.214717  (  0.920972   0.006353  -3.219703)
  25:      1162.00    0.445863  ( -0.097810  -0.593487  -0.289946)
  26:      1163.24    9.174181  (  0.355698   2.964499  -0.509320)
  27:      1180.19    1.012186  ( -0.810150   0.443892   0.398501)
  28:      1191.50    0.455275  ( -0.252646  -0.532412   0.328607)
  29:      1229.46   13.330383  (  1.974089  -2.989589   0.704071)
  30:      1238.83    1.373523  (  0.884501  -0.743696  -0.195188)
  31:      1285.40    8.500002  ( -2.912291   0.136035  -0.007660)
  32:      1303.13    8.234756  (  2.691717   0.125216  -0.986781)
  33:      1345.89    7.597477  (  1.103280  -0.814149   2.391111)
  34:      1450.50   10.148352  ( -0.694244   2.732587   1.483019)
  35:      1455.61    6.386030  (  1.742151   0.448545  -1.774752)
  36:      1472.35   14.440214  (  2.355864  -2.197375   2.015356)
  37:      1482.59   10.041326  (  0.409863   0.963450  -2.990837)
  38:      1496.09   21.494496  ( -4.083196  -1.130487  -1.882553)
  39:      1518.16   30.450955  (  4.515270  -0.065275  -3.171597)
  40:      1533.50    5.662195  (  1.820688  -1.486188  -0.372207)
  41:      3084.90    0.316657  (  0.059520  -0.325689  -0.455017)
  42:      3117.64    6.811680  ( -0.636131  -2.167785   1.306800)
  43:      3124.44    4.971151  ( -2.175873  -0.065142  -0.482165)
  44:      3167.96    2.479608  (  0.696380  -0.695935   1.228957)
  45:      3183.76    0.307535  (  0.199993  -0.370295   0.361137)
  46:      3187.42    0.429693  ( -0.078299  -0.113675   0.640812)
  47:      3199.76    1.900022  ( -0.653560  -1.154312   0.374758)
  48:      3224.19    1.391832  ( -0.114580  -1.083061  -0.453522)
  49:      3269.39    5.386140  (  0.477988   1.951427   1.161724)
  50:      3531.08   81.831790  ( -6.916796  -5.233574  -2.568934)

--------------------------
THERMOCHEMISTRY AT 298.15K
--------------------------

Temperature         ... 298.15 K
Pressure            ... 1.00 atm
Total Mass          ... 100.14 AMU

Throughout the following assumptions are being made:
  (1) The electronic state is orbitally nondegenerate
  (2) There are no thermally accessible electronically excited states
  (3) Hindered rotations indicated by low frequency modes) are not
      treated as such but are treated as vibrations and this may
      case some error
  (4) All equations used are the standard statistical mechanics
      equations for an ideal gas
  (5) All vibrations are strinctly harmonic

------------
INNER ENERGY
------------

The inner energy is: U= E(el) + E(ZPE) + E(vib) + E(rot) + E(trans)
    E(el)   - is the total energy from the electronic structure calculation
              = E(kin-el) + E(nuc-el) + E(el-el) + E(nuc-nuc)
    E(ZPE)  - the the zero temperature vibrational energy from the frequency calculation
    E(vib)  - the the finite temperature correction to E(ZPE) due to population
              of excietd vibrational states
    E(rot)  - is the rotational thermal energy
    E(trans)- is the translational thermal energy

Summary of contributions to the inner energy U:
Electronic energy                ...   -325.94668327 Eh
Zero point energy                ...      0.15163529 Eh      95.15 kcal/mol
Thermal vibrational correction   ...      0.00442936 Eh       2.78 kcal/mol
Thermal rotational correction    ...      0.00141627 Eh       0.89 kcal/mol
Thermal translational correction ...      0.00141627 Eh       0.89 kcal/mol
-----------------------------------------------------------------------
Total thermal energy                   -325.78778606 Eh

Summary of corrections to the electronic energy:
(perhaps to be used in another calculation)
Total thermal correction                  0.00726191 Eh       4.56 kcal/mol
Non-thermal (ZPE) correction              0.15163529 Eh      95.15 kcal/mol
-----------------------------------------------------------------------
Total correction                          0.15889720 Eh      99.71 kcal/mol

--------
ENTHALPY
--------

The enthalpy is H = U + kB*T
                kB is Boltzmann's constant
Total free energy                 ...   -325.78778606 Eh
Thermal Enthalpy correction       ...      0.00094421 Eh       0.59 kcal/mol
-----------------------------------------------------------------------
Total Enthalpy                    ...   -325.78684186 Eh

-------
ENTROPY
-------

The entropy contributions are T*S = T*(S(el)+S(vib)+S(rot)+S(trans)
     S(el)   - electronic entropy
     S(vib)  - vibrational entropy
     S(rot)  - rotational entropy
     S(trans)- translational entropy
The entropies will be listed as mutliplied by the temperature to get
units of energy

Electronic entropy                ...      0.00000000 Eh      0.00 kcal/mol
Vibrational entropy               ...      0.00787376 Eh      4.94 kcal/mol
Rotational entropy                ...      0.01203677 Eh      7.55 kcal/mol
Translational entropy             ...      0.01887324 Eh     11.84 kcal/mol
-----------------------------------------------------------------------
Final entropy term                ...      0.03878377 Eh     24.34 kcal/mol

CAUTION: The rotational entropy is not quite correctly treated here
         because it includes a symmetry number that is not yet correctly
         implemented in ORCA!
For a nonlinear molecule the correct rotational entropy is:
    S(rot) = R*(ln(qrot/sn)+1.5)
    R    = 8.31441 J/mol/K = 1.987191683e-3 kcal/mol/K
    qrot = 230264.8710800
    sn is the rotational symmetry number. We have assumed 3 here
       if it is different for your molecule then you should correct
       the printed rotational entropy by manually evaluating the equation
       as given above

For convenience we print out the resulting values for sn=1 - 12:
 sn= 1  qrot/sn=  230264.8711 T*S(rot)=     8.20 kcal/mol T*S(tot)=    24.99 kcal/mol
 sn= 2  qrot/sn=  115132.4355 T*S(rot)=     7.79 kcal/mol T*S(tot)=    24.58 kcal/mol
 sn= 3  qrot/sn=   76754.9570 T*S(rot)=     7.55 kcal/mol T*S(tot)=    24.34 kcal/mol
 sn= 4  qrot/sn=   57566.2178 T*S(rot)=     7.38 kcal/mol T*S(tot)=    24.17 kcal/mol
 sn= 5  qrot/sn=   46052.9742 T*S(rot)=     7.25 kcal/mol T*S(tot)=    24.03 kcal/mol
 sn= 6  qrot/sn=   38377.4785 T*S(rot)=     7.14 kcal/mol T*S(tot)=    23.93 kcal/mol
 sn= 7  qrot/sn=   32894.9816 T*S(rot)=     7.05 kcal/mol T*S(tot)=    23.84 kcal/mol
 sn= 8  qrot/sn=   28783.1089 T*S(rot)=     6.97 kcal/mol T*S(tot)=    23.76 kcal/mol
 sn= 9  qrot/sn=   25584.9857 T*S(rot)=     6.90 kcal/mol T*S(tot)=    23.69 kcal/mol
 sn=10  qrot/sn=   23026.4871 T*S(rot)=     6.84 kcal/mol T*S(tot)=    23.62 kcal/mol
 sn=11  qrot/sn=   20933.1701 T*S(rot)=     6.78 kcal/mol T*S(tot)=    23.57 kcal/mol
 sn=12  qrot/sn=   19188.7393 T*S(rot)=     6.73 kcal/mol T*S(tot)=    23.52 kcal/mol

-------------------
GIBBS FREE ENTHALPY
-------------------

The Gibbs free enthalpy is G = H - T*S

Total enthalpy                    ...   -325.78684186 Eh
Total entropy correction          ...     -0.03878377 Eh    -24.34 kcal/mol
-----------------------------------------------------------------------
Final Gibbs free enthalpy         ...   -325.82562562 Eh

For completeness - the Gibbs free enthalpy minus the electronic energy
G-E(el)                           ...      0.12105764 Eh     75.96 kcal/mol

                             ****ORCA TERMINATED NORMALLY****
TOTAL RUN TIME: 0 days 0 hours 41 minutes 33 seconds 635 msec
