                         Program Version 3.0.3 - RELEASE   -
|  1> ! NORI PBE0 def2-TZVP UseSym TightOPT Freq TightSCF Grid3 FinalGrid5 XYZFile
|  2> % pal
|  3>     nprocs 8
|  4> end
|  5> %method
|  6>     SymThresh 5.0e-2
|  7> end
|  8> % geom
|  9>     MaxIter 10
| 10> end
| 11> % maxcore 2000
| 12> % output
| 13>     printlevel mini
| 14>     print[ P_Basis ] 0
| 15>     print[ P_SCFInfo ] 1
| 16>     print[ P_SCFIterInfo ] 1
| 17>     print[ P_OrbEn ] 0
| 18>     print[ P_Cartesian ] 0
| 19> end
| 20> % elprop
| 21>     Dipole false
| 22> end
| 23> *xyz 1 1
| 24>  C        0.6329223194    -0.1533954917    -0.4016927029
| 25>  N        2.0384756508     0.0606989024    -0.0383603896
| 26>  C        3.1547038578    -0.6749556106    -0.6680538838
| 27>  C        3.0509034311     0.7820629251    -0.8873987689
| 28>  C        2.5833765178     1.3442943271    -2.1946851087
| 29>  C        3.9083289522     1.6920998839    -0.0427322933
| 30>  O        3.0800671659     2.7444623690     0.3682809961
| 31>  H        0.0724971131     0.7551943033    -0.1854136888
| 32>  H        0.2465077430    -0.9847638145     0.1870555102
| 33>  H        0.5562380382    -0.3928702524    -1.4583596776
| 34>  H        2.1635853623     0.2523493166     0.9510954388
| 35>  H        3.8849297606    -1.0782777621     0.0228830056
| 36>  H        2.8389394352    -1.3422833407    -1.4610019190
| 37>  H        3.4642985988     1.5532837568    -2.8049620344
| 38>  H        2.0497570863     2.2821999553    -2.0382143695
| 39>  H        1.9556186236     0.6541509581    -2.7569249416
| 40>  H        4.7536881263     2.0264987679    -0.6556781130
| 41>  H        4.3204763054     1.1379724503     0.8143465534
| 42>  H        3.6051459122     3.4550683561     0.7476863871
| 43> *
| 44>
| 45>                          ****END OF INPUT****
 Total Charge           Charge          ....    1
 Multiplicity           Mult            ....    1
 Number of Electrons    NEL             ....   56
FINAL SINGLE POINT ENERGY      -327.199532280157
FINAL SINGLE POINT ENERGY      -327.199533956774
FINAL SINGLE POINT ENERGY      -327.199535201066

CARTESIAN COORDINATES (ANGSTROEM)
---------------------------------
  C      1.364063   -1.239427   -1.280447
  N      0.913916   -0.001528   -0.633808
  C      0.047967    0.988314   -1.307643
  C     -0.484496    0.257446   -0.139854
  C     -1.489157   -0.842313   -0.294400
  C     -0.459028    0.948692    1.201113
  O      0.002644    0.002406    2.125328
  H      1.566029   -1.983546   -0.511600
  H      2.270314   -1.024228   -1.845643
  H      0.595172   -1.603334   -1.955737
  H      1.616430    0.399256   -0.019765
  H      0.370021    2.018075   -1.212416
  H     -0.265475    0.682624   -2.298293
  H     -2.484411   -0.407067   -0.183465
  H     -1.359245   -1.590417    0.488144
  H     -1.453547   -1.322057   -1.271293
  H     -1.473628    1.301514    1.420052
  H      0.195889    1.832205    1.159228
  H     -0.134058    0.318184    3.023288

FINAL SINGLE POINT ENERGY      -327.199535573931
                    ***********************HURRAY********************
 Multiplicity           Mult            ....    1
 Number of Electrons    NEL             ....   56
 Basis Dimension        Dim             ....  289
FINAL SINGLE POINT ENERGY      -327.199535964568

VIBRATIONAL FREQUENCIES
-----------------------

   0:         0.00 cm**-1
   1:         0.00 cm**-1
   2:         0.00 cm**-1
   3:         0.00 cm**-1
   4:         0.00 cm**-1
   5:         0.00 cm**-1
   6:        63.24 cm**-1
   7:       152.64 cm**-1
   8:       174.27 cm**-1
   9:       182.08 cm**-1
  10:       269.81 cm**-1
  11:       283.89 cm**-1
  12:       292.77 cm**-1
  13:       366.16 cm**-1
  14:       432.28 cm**-1
  15:       467.94 cm**-1
  16:       541.65 cm**-1
  17:       690.88 cm**-1
  18:       803.57 cm**-1
  19:       877.61 cm**-1
  20:       919.32 cm**-1
  21:       957.62 cm**-1
  22:       979.95 cm**-1
  23:      1015.70 cm**-1
  24:      1084.93 cm**-1
  25:      1096.35 cm**-1
  26:      1123.68 cm**-1
  27:      1145.52 cm**-1
  28:      1165.21 cm**-1
  29:      1189.14 cm**-1
  30:      1228.40 cm**-1
  31:      1242.04 cm**-1
  32:      1256.72 cm**-1
  33:      1327.86 cm**-1
  34:      1385.95 cm**-1
  35:      1424.98 cm**-1
  36:      1450.55 cm**-1
  37:      1452.08 cm**-1
  38:      1470.96 cm**-1
  39:      1472.65 cm**-1
  40:      1486.71 cm**-1
  41:      1491.19 cm**-1
  42:      1497.79 cm**-1
  43:      1513.81 cm**-1
  44:      1527.42 cm**-1
  45:      2995.77 cm**-1
  46:      3066.52 cm**-1
  47:      3076.79 cm**-1
  48:      3091.66 cm**-1
  49:      3151.46 cm**-1
  50:      3163.68 cm**-1
  51:      3171.19 cm**-1
  52:      3181.27 cm**-1
  53:      3206.73 cm**-1
  54:      3262.92 cm**-1
  55:      3537.08 cm**-1
  56:      3862.71 cm**-1

IR SPECTRUM
-----------

 Mode    freq (cm**-1)   T**2         TX         TY         TZ
-------------------------------------------------------------------
   6:        63.24    5.654141  ( -1.476750  -0.882362   1.641581)
   7:       152.64    0.522253  (  0.092017  -0.160254  -0.698644)
   8:       174.27    1.090674  ( -0.432127  -0.416614  -0.854619)
   9:       182.08    1.210797  (  0.603926   0.841253   0.371973)
  10:       269.81   13.582742  ( -3.209761  -1.638296   0.772113)
  11:       283.89   40.001638  (  5.713578   1.977070   1.856842)
  12:       292.77   75.255781  ( -7.626770  -3.979137   1.120106)
  13:       366.16    6.513185  ( -2.083244  -0.630997   1.332338)
  14:       432.28    0.945762  ( -0.547027  -0.228448  -0.770931)
  15:       467.94    2.784852  ( -1.083554   1.040559  -0.726636)
  16:       541.65    4.168065  ( -0.493298  -0.656933   1.869000)
  17:       690.88    5.091770  ( -1.305023  -0.497314   1.772389)
  18:       803.57   19.057609  ( -4.162278   1.180146  -0.583355)
  19:       877.61    1.914303  ( -1.174207   0.582164  -0.443426)
  20:       919.32    2.635597  (  0.509445  -1.512443   0.297624)
  21:       957.62   11.107256  ( -0.334612  -2.023796   2.626698)
  22:       979.95   28.182508  (  0.383057   2.577311  -4.625283)
  23:      1015.70   16.859482  ( -1.740648   1.057989   3.565149)
  24:      1084.93   19.337527  ( -3.266975  -0.638348   2.873484)
  25:      1096.35   22.568887  (  3.956469  -2.613967   0.287085)
  26:      1123.68   69.489680  ( -2.769847   4.998762  -6.068773)
  27:      1145.52   11.854051  ( -2.555379   1.606467   1.656307)
  28:      1165.21    7.750108  (  0.449209   2.336576  -1.445245)
  29:      1189.14    3.056696  ( -1.387429   1.043476  -0.207109)
  30:      1228.40   14.501490  (  1.374740  -2.526453   2.495720)
  31:      1242.04   23.763880  (  1.039696  -4.164979   2.309948)
  32:      1256.72   15.438678  (  1.348231  -3.289557   1.673250)
  33:      1327.86    6.368199  ( -1.358232  -0.030999   2.126604)
  34:      1385.95    7.452707  (  0.872729  -2.554747   0.405360)
  35:      1424.98   13.688243  ( -3.642073  -0.109160  -0.641587)
  36:      1450.55    7.900543  (  0.380625   2.775757  -0.225475)
  37:      1452.08    9.579074  (  1.211396  -2.630783  -1.091133)
  38:      1470.96    9.556217  ( -3.049347   0.054735   0.504681)
  39:      1472.65   12.791366  ( -0.041263   2.704947   2.339428)
  40:      1486.71   17.766251  (  3.522349  -1.714470  -1.555604)
  41:      1491.19   13.502138  (  0.713423   1.613850  -3.223143)
  42:      1497.79   27.302756  (  0.973505   0.031541   5.133620)
  43:      1513.81    7.999292  ( -1.887247   2.039850  -0.525931)
  44:      1527.42   18.146699  (  4.227272  -0.488443   0.195695)
  45:      2995.77   33.139322  ( -1.433363  -5.156871   2.119310)
  46:      3066.52    9.731491  ( -3.106876   0.169250  -0.223982)
  47:      3076.79    1.077823  (  0.356594   0.132265   0.966007)
  48:      3091.66    0.782487  ( -0.265976   0.501292   0.678565)
  49:      3151.46    1.551762  ( -0.047912   0.666792   1.051121)
  50:      3163.68    0.808414  (  0.114931  -0.627771   0.633331)
  51:      3171.19    1.990432  (  0.412679  -0.692087  -1.158078)
  52:      3181.27    0.246940  (  0.016407  -0.240557   0.434515)
  53:      3206.73    0.075097  ( -0.166226  -0.189512  -0.107477)
  54:      3262.92    2.016834  (  0.493421   0.851400   1.023957)
  55:      3537.08   77.855431  ( -7.052164  -2.422241  -4.717538)
  56:      3862.71  115.966185  ( -0.425061   1.060307  10.708000)

--------------------------
THERMOCHEMISTRY AT 298.15K
--------------------------

Temperature         ... 298.15 K
Pressure            ... 1.00 atm
Total Mass          ... 102.16 AMU

Throughout the following assumptions are being made:
  (1) The electronic state is orbitally nondegenerate
  (2) There are no thermally accessible electronically excited states
  (3) Hindered rotations indicated by low frequency modes) are not
      treated as such but are treated as vibrations and this may
      case some error
  (4) All equations used are the standard statistical mechanics
      equations for an ideal gas
  (5) All vibrations are strinctly harmonic

------------
INNER ENERGY
------------

The inner energy is: U= E(el) + E(ZPE) + E(vib) + E(rot) + E(trans)
    E(el)   - is the total energy from the electronic structure calculation
              = E(kin-el) + E(nuc-el) + E(el-el) + E(nuc-nuc)
    E(ZPE)  - the the zero temperature vibrational energy from the frequency calculation
    E(vib)  - the the finite temperature correction to E(ZPE) due to population
              of excietd vibrational states
    E(rot)  - is the rotational thermal energy
    E(trans)- is the translational thermal energy

Summary of contributions to the inner energy U:
Electronic energy                ...   -327.19953596 Eh
Zero point energy                ...      0.17376292 Eh     109.04 kcal/mol
Thermal vibrational correction   ...      0.00570125 Eh       3.58 kcal/mol
Thermal rotational correction    ...      0.00141627 Eh       0.89 kcal/mol
Thermal translational correction ...      0.00141627 Eh       0.89 kcal/mol
-----------------------------------------------------------------------
Total thermal energy                   -327.01723926 Eh

Summary of corrections to the electronic energy:
(perhaps to be used in another calculation)
Total thermal correction                  0.00853379 Eh       5.36 kcal/mol
Non-thermal (ZPE) correction              0.17376292 Eh     109.04 kcal/mol
-----------------------------------------------------------------------
Total correction                          0.18229671 Eh     114.39 kcal/mol

--------
ENTHALPY
--------

The enthalpy is H = U + kB*T
                kB is Boltzmann's constant
Total free energy                 ...   -327.01723926 Eh
Thermal Enthalpy correction       ...      0.00094421 Eh       0.59 kcal/mol
-----------------------------------------------------------------------
Total Enthalpy                    ...   -327.01629505 Eh

-------
ENTROPY
-------

The entropy contributions are T*S = T*(S(el)+S(vib)+S(rot)+S(trans)
     S(el)   - electronic entropy
     S(vib)  - vibrational entropy
     S(rot)  - rotational entropy
     S(trans)- translational entropy
The entropies will be listed as mutliplied by the temperature to get
units of energy

Electronic entropy                ...      0.00000000 Eh      0.00 kcal/mol
Vibrational entropy               ...      0.01008061 Eh      6.33 kcal/mol
Rotational entropy                ...      0.01204364 Eh      7.56 kcal/mol
Translational entropy             ...      0.01890147 Eh     11.86 kcal/mol
-----------------------------------------------------------------------
Final entropy term                ...      0.04102572 Eh     25.74 kcal/mol

CAUTION: The rotational entropy is not quite correctly treated here
         because it includes a symmetry number that is not yet correctly
         implemented in ORCA!
For a nonlinear molecule the correct rotational entropy is:
    S(rot) = R*(ln(qrot/sn)+1.5)
    R    = 8.31441 J/mol/K = 1.987191683e-3 kcal/mol/K
    qrot = 231946.0994136
    sn is the rotational symmetry number. We have assumed 3 here
       if it is different for your molecule then you should correct
       the printed rotational entropy by manually evaluating the equation
       as given above

For convenience we print out the resulting values for sn=1 - 12:
 sn= 1  qrot/sn=  231946.0994 T*S(rot)=     8.21 kcal/mol T*S(tot)=    26.39 kcal/mol
 sn= 2  qrot/sn=  115973.0497 T*S(rot)=     7.80 kcal/mol T*S(tot)=    25.98 kcal/mol
 sn= 3  qrot/sn=   77315.3665 T*S(rot)=     7.56 kcal/mol T*S(tot)=    25.74 kcal/mol
 sn= 4  qrot/sn=   57986.5249 T*S(rot)=     7.39 kcal/mol T*S(tot)=    25.57 kcal/mol
 sn= 5  qrot/sn=   46389.2199 T*S(rot)=     7.25 kcal/mol T*S(tot)=    25.44 kcal/mol
 sn= 6  qrot/sn=   38657.6832 T*S(rot)=     7.15 kcal/mol T*S(tot)=    25.33 kcal/mol
 sn= 7  qrot/sn=   33135.1571 T*S(rot)=     7.06 kcal/mol T*S(tot)=    25.24 kcal/mol
 sn= 8  qrot/sn=   28993.2624 T*S(rot)=     6.98 kcal/mol T*S(tot)=    25.16 kcal/mol
 sn= 9  qrot/sn=   25771.7888 T*S(rot)=     6.91 kcal/mol T*S(tot)=    25.09 kcal/mol
 sn=10  qrot/sn=   23194.6099 T*S(rot)=     6.84 kcal/mol T*S(tot)=    25.03 kcal/mol
 sn=11  qrot/sn=   21086.0090 T*S(rot)=     6.79 kcal/mol T*S(tot)=    24.97 kcal/mol
 sn=12  qrot/sn=   19328.8416 T*S(rot)=     6.74 kcal/mol T*S(tot)=    24.92 kcal/mol

-------------------
GIBBS FREE ENTHALPY
-------------------

The Gibbs free enthalpy is G = H - T*S

Total enthalpy                    ...   -327.01629505 Eh
Total entropy correction          ...     -0.04102572 Eh    -25.74 kcal/mol
-----------------------------------------------------------------------
Final Gibbs free enthalpy         ...   -327.05732077 Eh

For completeness - the Gibbs free enthalpy minus the electronic energy
G-E(el)                           ...      0.14221520 Eh     89.24 kcal/mol

                             ****ORCA TERMINATED NORMALLY****
TOTAL RUN TIME: 0 days 0 hours 57 minutes 48 seconds 269 msec
