                         Program Version 3.0.3 - RELEASE   -
|  1> ! NORI PBE0 def2-TZVP UseSym TightOPT Freq TightSCF Grid3 FinalGrid5 XYZFile
|  2> % pal
|  3>     nprocs 8
|  4> end
|  5> %method
|  6>     SymThresh 5.0e-2
|  7> end
|  8> % geom
|  9>     MaxIter 10
| 10> end
| 11> % maxcore 2000
| 12> % output
| 13>     printlevel mini
| 14>     print[ P_Basis ] 0
| 15>     print[ P_SCFInfo ] 1
| 16>     print[ P_SCFIterInfo ] 1
| 17>     print[ P_OrbEn ] 0
| 18>     print[ P_Cartesian ] 0
| 19> end
| 20> % elprop
| 21>     Dipole false
| 22> end
| 23> *xyz 1 1
| 24>  C        1.6845639580    -0.2816278570     0.1955847913
| 25>  N        2.9381119808    -0.0608504515    -0.5423882228
| 26>  C        3.0584804049    -0.3709830706    -1.9767147536
| 27>  C        3.0719836902     1.0393835190    -1.5327647197
| 28>  C        4.3380198739     1.8800287529    -1.5911344265
| 29>  C        5.5610488375     1.4189251999    -0.8605303613
| 30>  O        4.2703982548     2.8766531279    -2.2479556655
| 31>  H        1.6420311771    -1.3221600801     0.5139264884
| 32>  H        0.8472269895    -0.0619055902    -0.4645516744
| 33>  H        1.6604892480     0.3825722725     1.0579372925
| 34>  H        3.7787248152    -0.2401449623     0.0001095647
| 35>  H        3.9866540660    -0.8506201619    -2.2629032884
| 36>  H        2.1572547927    -0.7730380217    -2.4221724520
| 37>  H        2.1606605361     1.6132574511    -1.6575306850
| 38>  H        6.4081843797     2.0270418444    -1.1719223471
| 39>  H        5.7965675728     0.3663173754    -1.0520523062
| 40>  H        5.4268394229     1.5500706522     0.2196527655
| 41> *
| 42>
| 43>                          ****END OF INPUT****
 Total Charge           Charge          ....    1
 Multiplicity           Mult            ....    1
 Number of Electrons    NEL             ....   54
FINAL SINGLE POINT ENERGY      -325.976176210331

CARTESIAN COORDINATES (ANGSTROEM)
---------------------------------
  C      1.423001    0.030820   -2.207996
  N      0.259424   -0.000114   -1.308118
  C     -0.362211   -1.266632   -0.886776
  C      0.380722   -0.455273    0.101509
  C     -0.333675    0.287635    1.219731
  C     -1.392340    1.289474    0.876964
  O      0.001437    0.001518    2.331091
  H      1.073472   -0.030278   -3.237823
  H      2.062245   -0.821122   -1.982848
  H      1.970733    0.957882   -2.045240
  H     -0.394778    0.765643   -1.445797
  H     -1.445396   -1.261430   -0.877377
  H      0.106517   -2.151229   -1.299288
  H      1.383625   -0.775268    0.360788
  H     -1.922224    1.568266    1.785940
  H     -2.118058    0.906318    0.151911
  H     -0.934115    2.193629    0.459620

FINAL SINGLE POINT ENERGY      -325.976177120659
                    ***********************HURRAY********************
 Multiplicity           Mult            ....    1
 Number of Electrons    NEL             ....   54
 Basis Dimension        Dim             ....  277
FINAL SINGLE POINT ENERGY      -325.976177621693

VIBRATIONAL FREQUENCIES
-----------------------

   0:         0.00 cm**-1
   1:         0.00 cm**-1
   2:         0.00 cm**-1
   3:         0.00 cm**-1
   4:         0.00 cm**-1
   5:         0.00 cm**-1
   6:        60.32 cm**-1
   7:       137.56 cm**-1
   8:       153.83 cm**-1
   9:       185.53 cm**-1
  10:       208.36 cm**-1
  11:       312.44 cm**-1
  12:       400.55 cm**-1
  13:       447.69 cm**-1
  14:       504.24 cm**-1
  15:       575.06 cm**-1
  16:       738.88 cm**-1
  17:       815.66 cm**-1
  18:       875.44 cm**-1
  19:       920.71 cm**-1
  20:       954.20 cm**-1
  21:      1011.23 cm**-1
  22:      1043.26 cm**-1
  23:      1086.28 cm**-1
  24:      1113.64 cm**-1
  25:      1152.60 cm**-1
  26:      1159.68 cm**-1
  27:      1190.96 cm**-1
  28:      1228.89 cm**-1
  29:      1246.83 cm**-1
  30:      1280.49 cm**-1
  31:      1359.78 cm**-1
  32:      1386.79 cm**-1
  33:      1447.13 cm**-1
  34:      1454.16 cm**-1
  35:      1457.36 cm**-1
  36:      1469.01 cm**-1
  37:      1481.76 cm**-1
  38:      1493.94 cm**-1
  39:      1511.70 cm**-1
  40:      1856.69 cm**-1
  41:      3039.44 cm**-1
  42:      3084.70 cm**-1
  43:      3105.71 cm**-1
  44:      3166.86 cm**-1
  45:      3174.29 cm**-1
  46:      3184.11 cm**-1
  47:      3188.03 cm**-1
  48:      3208.97 cm**-1
  49:      3268.77 cm**-1
  50:      3523.24 cm**-1

IR SPECTRUM
-----------

 Mode    freq (cm**-1)   T**2         TX         TY         TZ
-------------------------------------------------------------------
   6:        60.32    2.493224  ( -1.216707  -1.006292   0.014966)
   7:       137.56    0.354221  ( -0.346552  -0.467310  -0.125472)
   8:       153.83    1.392105  ( -0.179698  -1.007821   0.586609)
   9:       185.53    1.044052  (  0.992246   0.231308   0.077431)
  10:       208.36    0.120239  ( -0.338850   0.041508  -0.060801)
  11:       312.44    2.198885  ( -0.718789   1.115092   0.662418)
  12:       400.55    0.888197  (  0.759178  -0.110939   0.547301)
  13:       447.69    5.060519  ( -0.146722   0.249996   2.230806)
  14:       504.24   13.201698  ( -2.721767   2.113122   1.152562)
  15:       575.06    0.150942  ( -0.132709   0.340898   0.130839)
  16:       738.88   14.450401  ( -0.952554   2.374401   2.811630)
  17:       815.66   16.473530  ( -0.443442   1.889082  -3.564864)
  18:       875.44    3.460285  (  0.102167  -0.203120  -1.846237)
  19:       920.71    4.760962  ( -1.765775   1.240712  -0.321921)
  20:       954.20   18.321621  (  0.840566   3.768490   1.847581)
  21:      1011.23   20.927088  ( -2.056010  -2.417542   3.294753)
  22:      1043.26    8.737082  (  0.575990   1.616915  -2.406430)
  23:      1086.28    4.908814  (  1.130865   0.037069  -1.904884)
  24:      1113.64   59.846920  (  2.520437  -2.621101  -6.828188)
  25:      1152.60    6.802272  (  1.175100   1.594837   1.696440)
  26:      1159.68    7.005942  ( -1.795587   0.155276  -1.938478)
  27:      1190.96    1.796003  ( -1.064673   0.610347   0.538470)
  28:      1228.89   11.801826  (  3.137858   0.432570  -1.329871)
  29:      1246.83   65.834648  (  3.847047  -4.470159  -5.572482)
  30:      1280.49    4.013648  ( -0.478703  -1.788763   0.764735)
  31:      1359.78   18.834463  (  1.761634  -2.339106  -3.203075)
  32:      1386.79   46.288007  (  4.783406  -4.795228  -0.642512)
  33:      1447.13   23.932924  ( -1.943952  -2.284531   3.864569)
  34:      1454.16    0.848866  ( -0.202664   0.867830  -0.233802)
  35:      1457.36   19.276124  (  4.063546   1.621403   0.367108)
  36:      1469.01    6.040125  (  2.056924   1.298366  -0.351328)
  37:      1481.76   17.308893  (  1.834143   2.652436   2.628573)
  38:      1493.94   22.936422  (  0.346297  -4.657798   1.058969)
  39:      1511.70   18.593329  (  0.459734  -1.191967   4.118396)
  40:      1856.69  167.355151  (  3.752570  -2.957774  12.021853)
  41:      3039.44   11.302110  (  1.313915  -1.848810  -2.481459)
  42:      3084.70    0.067750  (  0.197460  -0.030486  -0.166825)
  43:      3105.71    2.038921  (  0.765617   0.431190   1.125534)
  44:      3166.86    3.093032  ( -0.825829  -1.532265  -0.251400)
  45:      3174.29    2.130715  ( -0.891040   0.172162   1.143295)
  46:      3184.11    0.473861  ( -0.422532  -0.319801  -0.439381)
  47:      3188.03    0.309829  ( -0.211500   0.384667   0.342240)
  48:      3208.97    6.883641  (  2.223871  -0.867798   1.088561)
  49:      3268.77    7.172755  (  2.111205  -1.489584  -0.704776)
  50:      3523.24   78.676448  (  5.094595  -7.129105   1.377464)

--------------------------
THERMOCHEMISTRY AT 298.15K
--------------------------

Temperature         ... 298.15 K
Pressure            ... 1.00 atm
Total Mass          ... 100.14 AMU

Throughout the following assumptions are being made:
  (1) The electronic state is orbitally nondegenerate
  (2) There are no thermally accessible electronically excited states
  (3) Hindered rotations indicated by low frequency modes) are not
      treated as such but are treated as vibrations and this may
      case some error
  (4) All equations used are the standard statistical mechanics
      equations for an ideal gas
  (5) All vibrations are strinctly harmonic

------------
INNER ENERGY
------------

The inner energy is: U= E(el) + E(ZPE) + E(vib) + E(rot) + E(trans)
    E(el)   - is the total energy from the electronic structure calculation
              = E(kin-el) + E(nuc-el) + E(el-el) + E(nuc-nuc)
    E(ZPE)  - the the zero temperature vibrational energy from the frequency calculation
    E(vib)  - the the finite temperature correction to E(ZPE) due to population
              of excietd vibrational states
    E(rot)  - is the rotational thermal energy
    E(trans)- is the translational thermal energy

Summary of contributions to the inner energy U:
Electronic energy                ...   -325.97617762 Eh
Zero point energy                ...      0.14959992 Eh      93.88 kcal/mol
Thermal vibrational correction   ...      0.00521769 Eh       3.27 kcal/mol
Thermal rotational correction    ...      0.00141627 Eh       0.89 kcal/mol
Thermal translational correction ...      0.00141627 Eh       0.89 kcal/mol
-----------------------------------------------------------------------
Total thermal energy                   -325.81852747 Eh

Summary of corrections to the electronic energy:
(perhaps to be used in another calculation)
Total thermal correction                  0.00805024 Eh       5.05 kcal/mol
Non-thermal (ZPE) correction              0.14959992 Eh      93.88 kcal/mol
-----------------------------------------------------------------------
Total correction                          0.15765015 Eh      98.93 kcal/mol

--------
ENTHALPY
--------

The enthalpy is H = U + kB*T
                kB is Boltzmann's constant
Total free energy                 ...   -325.81852747 Eh
Thermal Enthalpy correction       ...      0.00094421 Eh       0.59 kcal/mol
-----------------------------------------------------------------------
Total Enthalpy                    ...   -325.81758326 Eh

-------
ENTROPY
-------

The entropy contributions are T*S = T*(S(el)+S(vib)+S(rot)+S(trans)
     S(el)   - electronic entropy
     S(vib)  - vibrational entropy
     S(rot)  - rotational entropy
     S(trans)- translational entropy
The entropies will be listed as mutliplied by the temperature to get
units of energy

Electronic entropy                ...      0.00000000 Eh      0.00 kcal/mol
Vibrational entropy               ...      0.00951105 Eh      5.97 kcal/mol
Rotational entropy                ...      0.01208768 Eh      7.59 kcal/mol
Translational entropy             ...      0.01887324 Eh     11.84 kcal/mol
-----------------------------------------------------------------------
Final entropy term                ...      0.04047197 Eh     25.40 kcal/mol

CAUTION: The rotational entropy is not quite correctly treated here
         because it includes a symmetry number that is not yet correctly
         implemented in ORCA!
For a nonlinear molecule the correct rotational entropy is:
    S(rot) = R*(ln(qrot/sn)+1.5)
    R    = 8.31441 J/mol/K = 1.987191683e-3 kcal/mol/K
    qrot = 243022.0882007
    sn is the rotational symmetry number. We have assumed 3 here
       if it is different for your molecule then you should correct
       the printed rotational entropy by manually evaluating the equation
       as given above

For convenience we print out the resulting values for sn=1 - 12:
 sn= 1  qrot/sn=  243022.0882 T*S(rot)=     8.24 kcal/mol T*S(tot)=    26.05 kcal/mol
 sn= 2  qrot/sn=  121511.0441 T*S(rot)=     7.83 kcal/mol T*S(tot)=    25.64 kcal/mol
 sn= 3  qrot/sn=   81007.3627 T*S(rot)=     7.59 kcal/mol T*S(tot)=    25.40 kcal/mol
 sn= 4  qrot/sn=   60755.5221 T*S(rot)=     7.41 kcal/mol T*S(tot)=    25.23 kcal/mol
 sn= 5  qrot/sn=   48604.4176 T*S(rot)=     7.28 kcal/mol T*S(tot)=    25.09 kcal/mol
 sn= 6  qrot/sn=   40503.6814 T*S(rot)=     7.17 kcal/mol T*S(tot)=    24.99 kcal/mol
 sn= 7  qrot/sn=   34717.4412 T*S(rot)=     7.08 kcal/mol T*S(tot)=    24.89 kcal/mol
 sn= 8  qrot/sn=   30377.7610 T*S(rot)=     7.00 kcal/mol T*S(tot)=    24.82 kcal/mol
 sn= 9  qrot/sn=   27002.4542 T*S(rot)=     6.93 kcal/mol T*S(tot)=    24.75 kcal/mol
 sn=10  qrot/sn=   24302.2088 T*S(rot)=     6.87 kcal/mol T*S(tot)=    24.68 kcal/mol
 sn=11  qrot/sn=   22092.9171 T*S(rot)=     6.82 kcal/mol T*S(tot)=    24.63 kcal/mol
 sn=12  qrot/sn=   20251.8407 T*S(rot)=     6.76 kcal/mol T*S(tot)=    24.58 kcal/mol

-------------------
GIBBS FREE ENTHALPY
-------------------

The Gibbs free enthalpy is G = H - T*S

Total enthalpy                    ...   -325.81758326 Eh
Total entropy correction          ...     -0.04047197 Eh    -25.40 kcal/mol
-----------------------------------------------------------------------
Final Gibbs free enthalpy         ...   -325.85805523 Eh

For completeness - the Gibbs free enthalpy minus the electronic energy
G-E(el)                           ...      0.11812239 Eh     74.12 kcal/mol

                             ****ORCA TERMINATED NORMALLY****
TOTAL RUN TIME: 0 days 0 hours 43 minutes 2 seconds 265 msec
