                         Program Version 3.0.3 - RELEASE   -
|  1> ! NORI PBE0 def2-TZVP UseSym TightOPT Freq TightSCF Grid3 FinalGrid5 XYZFile
|  2> % pal
|  3>     nprocs 8
|  4> end
|  5> %method
|  6>     SymThresh 5.0e-2
|  7> end
|  8> % geom
|  9>     MaxIter 10
| 10> end
| 11> % maxcore 2000
| 12> % output
| 13>     printlevel mini
| 14>     print[ P_Basis ] 0
| 15>     print[ P_SCFInfo ] 1
| 16>     print[ P_SCFIterInfo ] 1
| 17>     print[ P_OrbEn ] 0
| 18>     print[ P_Cartesian ] 0
| 19> end
| 20> % elprop
| 21>     Dipole false
| 22> end
| 23> *xyz 1 1
| 24>  C        0.7728695775     0.1087448218    -0.7749124988
| 25>  N        2.1125279081    -0.0193735468    -0.1858934382
| 26>  C        3.0225778321    -1.1264340003    -0.5646279711
| 27>  C        3.3477283642     0.2482581134    -0.9720540908
| 28>  C        4.4486554045     1.0350639777    -0.3313335800
| 29>  C        5.7427619314     0.7953889068    -1.0880091789
| 30>  O        5.8024973525     0.0496590076    -2.0215617452
| 31>  H        0.4540516186     1.1483613602    -0.7096970923
| 32>  H        0.0828652644    -0.5345464901    -0.2303019991
| 33>  H        0.8173601842    -0.1987999724    -1.8180696916
| 34>  H        2.1610565577     0.2536938291     0.7906846740
| 35>  H        3.5541741875    -1.5756209508     0.2654225989
| 36>  H        2.6020122194    -1.8134926187    -1.2876954566
| 37>  H        3.1167844328     0.5088309278    -1.9989484539
| 38>  H        4.2327888433     2.1097288937    -0.3400392358
| 39>  H        4.6072576919     0.7529563622     0.7170445791
| 40>  H        6.6216006300     1.3547613786    -0.7187174199
| 41> *
| 42>
| 43>                          ****END OF INPUT****
 Total Charge           Charge          ....    1
 Multiplicity           Mult            ....    1
 Number of Electrons    NEL             ....   54
FINAL SINGLE POINT ENERGY      -325.976875298443
FINAL SINGLE POINT ENERGY      -325.976875282685
FINAL SINGLE POINT ENERGY      -325.976875949441

CARTESIAN COORDINATES (ANGSTROEM)
---------------------------------
  C      0.624727    1.090348   -2.518945
  N      0.258363   -0.000030   -1.604937
  C      1.203618   -0.499121   -0.578117
  C      0.002659    0.236991   -0.157567
  C     -1.168934   -0.439307    0.484064
  C     -0.978585   -0.451429    1.989984
  O      0.000381   -0.000774    2.509415
  H     -0.282769    1.576832   -2.874087
  H      1.186462    0.677663   -3.356088
  H      1.241297    1.807785   -1.980207
  H     -0.323075   -0.716055   -2.029036
  H      1.230161   -1.577315   -0.477765
  H      2.163023    0.001681   -0.584048
  H      0.150019    1.278197    0.106690
  H     -2.107279    0.078042    0.255029
  H     -1.289183   -1.475921    0.145561
  H     -1.803583   -0.902435    2.571071

FINAL SINGLE POINT ENERGY      -325.976876184050
                    ***********************HURRAY********************
 Multiplicity           Mult            ....    1
 Number of Electrons    NEL             ....   54
 Basis Dimension        Dim             ....  277
FINAL SINGLE POINT ENERGY      -325.976876257314

VIBRATIONAL FREQUENCIES
-----------------------

   0:         0.00 cm**-1
   1:         0.00 cm**-1
   2:         0.00 cm**-1
   3:         0.00 cm**-1
   4:         0.00 cm**-1
   5:         0.00 cm**-1
   6:        45.24 cm**-1
   7:       133.19 cm**-1
   8:       162.83 cm**-1
   9:       197.54 cm**-1
  10:       246.22 cm**-1
  11:       313.89 cm**-1
  12:       392.60 cm**-1
  13:       432.88 cm**-1
  14:       655.41 cm**-1
  15:       722.95 cm**-1
  16:       805.64 cm**-1
  17:       870.75 cm**-1
  18:       886.01 cm**-1
  19:       929.07 cm**-1
  20:       944.75 cm**-1
  21:      1017.38 cm**-1
  22:      1064.97 cm**-1
  23:      1111.95 cm**-1
  24:      1148.59 cm**-1
  25:      1156.51 cm**-1
  26:      1170.75 cm**-1
  27:      1198.53 cm**-1
  28:      1242.26 cm**-1
  29:      1250.83 cm**-1
  30:      1297.90 cm**-1
  31:      1322.92 cm**-1
  32:      1398.71 cm**-1
  33:      1412.03 cm**-1
  34:      1447.28 cm**-1
  35:      1456.80 cm**-1
  36:      1470.12 cm**-1
  37:      1483.05 cm**-1
  38:      1495.93 cm**-1
  39:      1522.79 cm**-1
  40:      1843.65 cm**-1
  41:      2984.54 cm**-1
  42:      3046.44 cm**-1
  43:      3084.35 cm**-1
  44:      3093.32 cm**-1
  45:      3169.50 cm**-1
  46:      3182.34 cm**-1
  47:      3186.61 cm**-1
  48:      3202.89 cm**-1
  49:      3271.91 cm**-1
  50:      3541.78 cm**-1

IR SPECTRUM
-----------

 Mode    freq (cm**-1)   T**2         TX         TY         TZ
-------------------------------------------------------------------
   6:        45.24    3.097898  (  0.646395  -1.501025  -0.653449)
   7:       133.19    8.486155  ( -0.768771  -1.395661   2.438704)
   8:       162.83    4.904059  (  1.074149  -1.619740  -1.061463)
   9:       197.54    1.228955  (  0.083417  -0.400834   1.030208)
  10:       246.22    1.304802  ( -0.063297  -0.508986   1.020651)
  11:       313.89    6.943488  ( -0.831661   0.319014   2.479931)
  12:       392.60    1.081939  (  0.350388   0.122034   0.971738)
  13:       432.88    0.540252  ( -0.412686  -0.372870   0.480531)
  14:       655.41   11.205930  (  0.641293   0.960314  -3.142049)
  15:       722.95    6.886381  ( -1.199634   1.690578   1.609101)
  16:       805.64    5.415597  (  1.325066  -0.041727   1.912605)
  17:       870.75   26.395417  ( -2.038403   1.056837   4.596023)
  18:       886.01    5.820396  (  0.098104   0.278338   2.394431)
  19:       929.07   10.701443  ( -0.350305   0.942085   3.113070)
  20:       944.75   32.409121  (  2.040874  -2.231890   4.823134)
  21:      1017.38   10.970371  (  2.526835  -0.655364  -2.038620)
  22:      1064.97   27.811315  ( -0.774945  -0.852980   5.146183)
  23:      1111.95   10.024439  (  0.099839   1.696437  -2.671437)
  24:      1148.59   11.015854  (  2.776411  -0.972302  -1.536888)
  25:      1156.51    6.167756  (  1.005400  -2.146633  -0.740872)
  26:      1170.75    4.133695  (  0.946674  -1.402569  -1.127077)
  27:      1198.53    0.770173  ( -0.673577   0.255044   0.501418)
  28:      1242.26    6.056859  ( -0.186069   1.918435  -1.530309)
  29:      1250.83    8.091021  (  0.916604  -0.447027  -2.655377)
  30:      1297.90    3.219489  ( -1.229288   0.213573  -1.289467)
  31:      1322.92   34.805473  ( -0.556835   0.837966  -5.813194)
  32:      1398.71   16.151823  ( -1.819091  -1.156776   3.391843)
  33:      1412.03   11.934569  ( -2.725916  -1.561683  -1.437044)
  34:      1447.28   18.261316  ( -2.007611   1.079812  -3.614529)
  35:      1456.80    8.010584  ( -0.645257  -1.185833  -2.487575)
  36:      1470.12   13.124606  (  0.148475  -3.619745   0.002641)
  37:      1483.05   12.648685  ( -3.199595   1.048853   1.145069)
  38:      1495.93   23.706559  ( -3.412973  -1.362771  -3.193905)
  39:      1522.79   32.167312  (  1.364785   0.248129  -5.499373)
  40:      1843.65  131.139177  (  7.517155   3.475250   7.909121)
  41:      2984.54   44.372122  (  4.906085   2.507348  -3.743749)
  42:      3046.44    2.222750  ( -0.541952  -1.004238   0.959450)
  43:      3084.35    0.299382  (  0.073726   0.369828  -0.396452)
  44:      3093.32    0.764046  (  0.055282  -0.110173  -0.865362)
  45:      3169.50    2.849549  (  1.529408  -0.592875   0.398696)
  46:      3182.34    0.156257  ( -0.299558   0.225373   0.125417)
  47:      3186.61    0.297214  ( -0.320567  -0.235498   0.372816)
  48:      3202.89    3.574627  ( -0.132550   1.438522   1.219718)
  49:      3271.91    5.390687  ( -1.339044  -1.893611  -0.109025)
  50:      3541.78   75.692593  (  4.590285   5.183534   5.268097)

--------------------------
THERMOCHEMISTRY AT 298.15K
--------------------------

Temperature         ... 298.15 K
Pressure            ... 1.00 atm
Total Mass          ... 100.14 AMU

Throughout the following assumptions are being made:
  (1) The electronic state is orbitally nondegenerate
  (2) There are no thermally accessible electronically excited states
  (3) Hindered rotations indicated by low frequency modes) are not
      treated as such but are treated as vibrations and this may
      case some error
  (4) All equations used are the standard statistical mechanics
      equations for an ideal gas
  (5) All vibrations are strinctly harmonic

------------
INNER ENERGY
------------

The inner energy is: U= E(el) + E(ZPE) + E(vib) + E(rot) + E(trans)
    E(el)   - is the total energy from the electronic structure calculation
              = E(kin-el) + E(nuc-el) + E(el-el) + E(nuc-nuc)
    E(ZPE)  - the the zero temperature vibrational energy from the frequency calculation
    E(vib)  - the the finite temperature correction to E(ZPE) due to population
              of excietd vibrational states
    E(rot)  - is the rotational thermal energy
    E(trans)- is the translational thermal energy

Summary of contributions to the inner energy U:
Electronic energy                ...   -325.97687626 Eh
Zero point energy                ...      0.15039462 Eh      94.37 kcal/mol
Thermal vibrational correction   ...      0.00497824 Eh       3.12 kcal/mol
Thermal rotational correction    ...      0.00141627 Eh       0.89 kcal/mol
Thermal translational correction ...      0.00141627 Eh       0.89 kcal/mol
-----------------------------------------------------------------------
Total thermal energy                   -325.81867085 Eh

Summary of corrections to the electronic energy:
(perhaps to be used in another calculation)
Total thermal correction                  0.00781079 Eh       4.90 kcal/mol
Non-thermal (ZPE) correction              0.15039462 Eh      94.37 kcal/mol
-----------------------------------------------------------------------
Total correction                          0.15820540 Eh      99.28 kcal/mol

--------
ENTHALPY
--------

The enthalpy is H = U + kB*T
                kB is Boltzmann's constant
Total free energy                 ...   -325.81867085 Eh
Thermal Enthalpy correction       ...      0.00094421 Eh       0.59 kcal/mol
-----------------------------------------------------------------------
Total Enthalpy                    ...   -325.81772664 Eh

-------
ENTROPY
-------

The entropy contributions are T*S = T*(S(el)+S(vib)+S(rot)+S(trans)
     S(el)   - electronic entropy
     S(vib)  - vibrational entropy
     S(rot)  - rotational entropy
     S(trans)- translational entropy
The entropies will be listed as mutliplied by the temperature to get
units of energy

Electronic entropy                ...      0.00000000 Eh      0.00 kcal/mol
Vibrational entropy               ...      0.00929435 Eh      5.83 kcal/mol
Rotational entropy                ...      0.01209066 Eh      7.59 kcal/mol
Translational entropy             ...      0.01887324 Eh     11.84 kcal/mol
-----------------------------------------------------------------------
Final entropy term                ...      0.04025825 Eh     25.26 kcal/mol

CAUTION: The rotational entropy is not quite correctly treated here
         because it includes a symmetry number that is not yet correctly
         implemented in ORCA!
For a nonlinear molecule the correct rotational entropy is:
    S(rot) = R*(ln(qrot/sn)+1.5)
    R    = 8.31441 J/mol/K = 1.987191683e-3 kcal/mol/K
    qrot = 243788.9221818
    sn is the rotational symmetry number. We have assumed 3 here
       if it is different for your molecule then you should correct
       the printed rotational entropy by manually evaluating the equation
       as given above

For convenience we print out the resulting values for sn=1 - 12:
 sn= 1  qrot/sn=  243788.9222 T*S(rot)=     8.24 kcal/mol T*S(tot)=    25.91 kcal/mol
 sn= 2  qrot/sn=  121894.4611 T*S(rot)=     7.83 kcal/mol T*S(tot)=    25.50 kcal/mol
 sn= 3  qrot/sn=   81262.9741 T*S(rot)=     7.59 kcal/mol T*S(tot)=    25.26 kcal/mol
 sn= 4  qrot/sn=   60947.2305 T*S(rot)=     7.42 kcal/mol T*S(tot)=    25.09 kcal/mol
 sn= 5  qrot/sn=   48757.7844 T*S(rot)=     7.28 kcal/mol T*S(tot)=    24.96 kcal/mol
 sn= 6  qrot/sn=   40631.4870 T*S(rot)=     7.18 kcal/mol T*S(tot)=    24.85 kcal/mol
 sn= 7  qrot/sn=   34826.9889 T*S(rot)=     7.08 kcal/mol T*S(tot)=    24.76 kcal/mol
 sn= 8  qrot/sn=   30473.6153 T*S(rot)=     7.01 kcal/mol T*S(tot)=    24.68 kcal/mol
 sn= 9  qrot/sn=   27087.6580 T*S(rot)=     6.94 kcal/mol T*S(tot)=    24.61 kcal/mol
 sn=10  qrot/sn=   24378.8922 T*S(rot)=     6.87 kcal/mol T*S(tot)=    24.55 kcal/mol
 sn=11  qrot/sn=   22162.6293 T*S(rot)=     6.82 kcal/mol T*S(tot)=    24.49 kcal/mol
 sn=12  qrot/sn=   20315.7435 T*S(rot)=     6.77 kcal/mol T*S(tot)=    24.44 kcal/mol

-------------------
GIBBS FREE ENTHALPY
-------------------

The Gibbs free enthalpy is G = H - T*S

Total enthalpy                    ...   -325.81772664 Eh
Total entropy correction          ...     -0.04025825 Eh    -25.26 kcal/mol
-----------------------------------------------------------------------
Final Gibbs free enthalpy         ...   -325.85798489 Eh

For completeness - the Gibbs free enthalpy minus the electronic energy
G-E(el)                           ...      0.11889136 Eh     74.61 kcal/mol

                             ****ORCA TERMINATED NORMALLY****
TOTAL RUN TIME: 0 days 0 hours 45 minutes 15 seconds 21 msec
