                         Program Version 3.0.3 - RELEASE   -
|  1> ! NORI PBE0 def2-TZVP UseSym TightOPT Freq TightSCF Grid3 FinalGrid5 XYZFile
|  2> % pal
|  3>     nprocs 8
|  4> end
|  5> %method
|  6>     SymThresh 5.0e-2
|  7> end
|  8> % geom
|  9>     MaxIter 10
| 10> end
| 11> % maxcore 2000
| 12> % output
| 13>     printlevel mini
| 14>     print[ P_Basis ] 0
| 15>     print[ P_SCFInfo ] 1
| 16>     print[ P_SCFIterInfo ] 1
| 17>     print[ P_OrbEn ] 0
| 18>     print[ P_Cartesian ] 0
| 19> end
| 20> % elprop
| 21>     Dipole false
| 22> end
| 23> *xyz 1 1
| 24>  C        1.0207817042     0.2638713917    -0.2735160888
| 25>  N        2.4578924975    -0.0086715245    -0.1505639514
| 26>  C        3.1384086290    -0.9947647996    -1.0115034641
| 27>  C        3.4408839034     0.4353575576    -1.2065853487
| 28>  C        4.6973257245     1.0440900764    -0.7601901396
| 29>  N        4.9639900430     2.1891025079    -1.2445861498
| 30>  O        6.1375986175     2.6770240027    -0.8174603001
| 31>  H        0.8157089869     1.2622833249     0.1100035749
| 32>  H        0.4671050706    -0.4830059082     0.2944921075
| 33>  H        0.7418619476     0.2091166726    -1.3243934706
| 34>  H        2.8147045768     0.0478619639     0.7987483698
| 35>  H        3.8572159657    -1.6223670866    -0.4982706626
| 36>  H        2.4806539864    -1.5005662253    -1.7068901156
| 37>  H        2.9426393683     0.9554969109    -2.0170174325
| 38>  H        5.3707060753     0.5218806373    -0.0784764110
| 39>  H        6.2319829033     3.5263904983    -1.2668305172
| 40> *
| 41>
| 42>                          ****END OF INPUT****
 Total Charge           Charge          ....    1
 Multiplicity           Mult            ....    1
 Number of Electrons    NEL             ....   54
FINAL SINGLE POINT ENERGY      -341.965071817229

CARTESIAN COORDINATES (ANGSTROEM)
---------------------------------
  C      0.601789   -1.093585   -2.506979
  N      0.594287    0.000098   -1.527683
  C     -0.420842    1.069910   -1.565592
  C     -0.466240    0.097397   -0.457808
  C     -0.037583    0.431523    0.903597
  N     -0.401503   -0.376430    1.815540
  O      0.000152   -0.000101    3.038324
  H      1.112705   -1.952544   -2.074326
  H      1.114558   -0.760342   -3.408809
  H     -0.427044   -1.358802   -2.744926
  H      1.517231    0.297453   -1.225675
  H     -0.034740    2.065173   -1.380579
  H     -1.124639    0.980307   -2.383243
  H     -1.173868   -0.721058   -0.526974
  H      0.531430    1.338478    1.113455
  H     -0.352417   -0.673313    3.633990

FINAL SINGLE POINT ENERGY      -341.965072238598
                    ***********************HURRAY********************
 Multiplicity           Mult            ....    1
 Number of Electrons    NEL             ....   54
 Basis Dimension        Dim             ....  271
FINAL SINGLE POINT ENERGY      -341.965072440951

VIBRATIONAL FREQUENCIES
-----------------------

   0:         0.00 cm**-1
   1:         0.00 cm**-1
   2:         0.00 cm**-1
   3:         0.00 cm**-1
   4:         0.00 cm**-1
   5:         0.00 cm**-1
   6:        86.25 cm**-1
   7:       162.33 cm**-1
   8:       178.94 cm**-1
   9:       202.72 cm**-1
  10:       304.28 cm**-1
  11:       367.48 cm**-1
  12:       407.43 cm**-1
  13:       481.91 cm**-1
  14:       552.47 cm**-1
  15:       556.46 cm**-1
  16:       769.53 cm**-1
  17:       842.40 cm**-1
  18:       899.95 cm**-1
  19:       932.08 cm**-1
  20:       968.91 cm**-1
  21:      1072.25 cm**-1
  22:      1085.81 cm**-1
  23:      1135.46 cm**-1
  24:      1142.46 cm**-1
  25:      1165.03 cm**-1
  26:      1189.79 cm**-1
  27:      1223.78 cm**-1
  28:      1230.97 cm**-1
  29:      1277.55 cm**-1
  30:      1289.46 cm**-1
  31:      1373.00 cm**-1
  32:      1451.71 cm**-1
  33:      1455.47 cm**-1
  34:      1478.98 cm**-1
  35:      1483.30 cm**-1
  36:      1495.82 cm**-1
  37:      1518.40 cm**-1
  38:      1717.78 cm**-1
  39:      3082.92 cm**-1
  40:      3129.76 cm**-1
  41:      3166.70 cm**-1
  42:      3180.34 cm**-1
  43:      3185.80 cm**-1
  44:      3208.27 cm**-1
  45:      3267.94 cm**-1
  46:      3537.14 cm**-1
  47:      3809.71 cm**-1

IR SPECTRUM
-----------

 Mode    freq (cm**-1)   T**2         TX         TY         TZ
-------------------------------------------------------------------
   6:        86.25    1.312887  ( -0.230877   0.317541  -1.076453)
   7:       162.33    0.256512  (  0.422348  -0.251070   0.122877)
   8:       178.94    0.293916  (  0.113993  -0.291992   0.442338)
   9:       202.72    0.412554  ( -0.366477   0.306341  -0.429422)
  10:       304.28    1.399842  ( -0.474244  -1.073745   0.148346)
  11:       367.48    1.257026  (  0.951972   0.463789   0.368342)
  12:       407.43    6.860906  ( -0.868309  -0.752552   2.353850)
  13:       481.91    3.019012  (  1.269114   0.456439  -1.095457)
  14:       552.47   39.936138  ( -3.226689   4.190680   3.458731)
  15:       556.46  118.767167  ( -9.520790   5.302560  -0.067633)
  16:       769.53   54.189364  ( -3.064219   0.290659   6.686961)
  17:       842.40   13.371092  (  2.398317   0.225847   2.751029)
  18:       899.95    8.763185  ( -2.400757  -0.059326   1.730906)
  19:       932.08   13.630317  ( -2.006813  -0.258031   3.088112)
  20:       968.91   33.182448  (  3.598862  -4.413717   0.865873)
  21:      1072.25   19.870515  (  3.000356  -2.095663  -2.544912)
  22:      1085.81   15.161456  ( -0.583268   1.646023  -3.480210)
  23:      1135.46  224.220783  (  1.055094   1.021988 -14.901782)
  24:      1142.46    6.358297  ( -0.615915   1.318686  -2.059129)
  25:      1165.03   11.992966  (  1.233092   2.197364  -2.375720)
  26:      1189.79   12.083695  ( -0.766371  -1.246677   3.153120)
  27:      1223.78    9.435236  (  0.283299   2.481695  -1.787784)
  28:      1230.97   10.121890  ( -0.564810   2.568491   1.790456)
  29:      1277.55    8.898479  (  0.679066  -1.878070  -2.215897)
  30:      1289.46   28.555984  (  1.886930   1.231191   4.845580)
  31:      1373.00   44.898613  ( -1.543872  -1.375632  -6.373595)
  32:      1451.71   10.034102  (  0.414508  -2.906481   1.189391)
  33:      1455.47    4.368913  (  1.946162  -0.268174  -0.713757)
  34:      1478.98   12.267553  (  0.314932   2.995824   1.787011)
  35:      1483.30   32.006198  ( -0.563963   0.294416  -5.621518)
  36:      1495.82   30.548680  (  5.075723  -0.765353   2.049379)
  37:      1518.40   47.540995  ( -2.242353   0.888100   6.459422)
  38:      1717.78   39.467474  ( -0.267572  -0.823335   6.222379)
  39:      3082.92    0.388185  (  0.059648   0.277526   0.554623)
  40:      3129.76    0.648939  ( -0.451184  -0.535928  -0.397685)
  41:      3166.70    2.671922  ( -0.608695   1.186489  -0.945335)
  42:      3180.34    0.181550  ( -0.006582   0.375562  -0.201146)
  43:      3185.80    0.375190  ( -0.004764   0.119761  -0.600687)
  44:      3208.27    5.810689  (  1.524219   1.538004  -1.059241)
  45:      3267.94    5.449208  ( -1.446962  -1.273108  -1.317082)
  46:      3537.14   78.832768  ( -8.683183  -1.649418  -0.845293)
  47:      3809.71  234.951100  ( -3.377887  -7.181796  13.113458)

--------------------------
THERMOCHEMISTRY AT 298.15K
--------------------------

Temperature         ... 298.15 K
Pressure            ... 1.00 atm
Total Mass          ... 101.13 AMU

Throughout the following assumptions are being made:
  (1) The electronic state is orbitally nondegenerate
  (2) There are no thermally accessible electronically excited states
  (3) Hindered rotations indicated by low frequency modes) are not
      treated as such but are treated as vibrations and this may
      case some error
  (4) All equations used are the standard statistical mechanics
      equations for an ideal gas
  (5) All vibrations are strinctly harmonic

------------
INNER ENERGY
------------

The inner energy is: U= E(el) + E(ZPE) + E(vib) + E(rot) + E(trans)
    E(el)   - is the total energy from the electronic structure calculation
              = E(kin-el) + E(nuc-el) + E(el-el) + E(nuc-nuc)
    E(ZPE)  - the the zero temperature vibrational energy from the frequency calculation
    E(vib)  - the the finite temperature correction to E(ZPE) due to population
              of excietd vibrational states
    E(rot)  - is the rotational thermal energy
    E(trans)- is the translational thermal energy

Summary of contributions to the inner energy U:
Electronic energy                ...   -341.96507244 Eh
Zero point energy                ...      0.13912486 Eh      87.30 kcal/mol
Thermal vibrational correction   ...      0.00473360 Eh       2.97 kcal/mol
Thermal rotational correction    ...      0.00141627 Eh       0.89 kcal/mol
Thermal translational correction ...      0.00141627 Eh       0.89 kcal/mol
-----------------------------------------------------------------------
Total thermal energy                   -341.81838144 Eh

Summary of corrections to the electronic energy:
(perhaps to be used in another calculation)
Total thermal correction                  0.00756614 Eh       4.75 kcal/mol
Non-thermal (ZPE) correction              0.13912486 Eh      87.30 kcal/mol
-----------------------------------------------------------------------
Total correction                          0.14669100 Eh      92.05 kcal/mol

--------
ENTHALPY
--------

The enthalpy is H = U + kB*T
                kB is Boltzmann's constant
Total free energy                 ...   -341.81838144 Eh
Thermal Enthalpy correction       ...      0.00094421 Eh       0.59 kcal/mol
-----------------------------------------------------------------------
Total Enthalpy                    ...   -341.81743723 Eh

-------
ENTROPY
-------

The entropy contributions are T*S = T*(S(el)+S(vib)+S(rot)+S(trans)
     S(el)   - electronic entropy
     S(vib)  - vibrational entropy
     S(rot)  - rotational entropy
     S(trans)- translational entropy
The entropies will be listed as mutliplied by the temperature to get
units of energy

Electronic entropy                ...      0.00000000 Eh      0.00 kcal/mol
Vibrational entropy               ...      0.00819751 Eh      5.14 kcal/mol
Rotational entropy                ...      0.01218335 Eh      7.65 kcal/mol
Translational entropy             ...      0.01888714 Eh     11.85 kcal/mol
-----------------------------------------------------------------------
Final entropy term                ...      0.03926800 Eh     24.64 kcal/mol

CAUTION: The rotational entropy is not quite correctly treated here
         because it includes a symmetry number that is not yet correctly
         implemented in ORCA!
For a nonlinear molecule the correct rotational entropy is:
    S(rot) = R*(ln(qrot/sn)+1.5)
    R    = 8.31441 J/mol/K = 1.987191683e-3 kcal/mol/K
    qrot = 268936.0765041
    sn is the rotational symmetry number. We have assumed 3 here
       if it is different for your molecule then you should correct
       the printed rotational entropy by manually evaluating the equation
       as given above

For convenience we print out the resulting values for sn=1 - 12:
 sn= 1  qrot/sn=  268936.0765 T*S(rot)=     8.30 kcal/mol T*S(tot)=    25.29 kcal/mol
 sn= 2  qrot/sn=  134468.0383 T*S(rot)=     7.89 kcal/mol T*S(tot)=    24.88 kcal/mol
 sn= 3  qrot/sn=   89645.3588 T*S(rot)=     7.65 kcal/mol T*S(tot)=    24.64 kcal/mol
 sn= 4  qrot/sn=   67234.0191 T*S(rot)=     7.47 kcal/mol T*S(tot)=    24.47 kcal/mol
 sn= 5  qrot/sn=   53787.2153 T*S(rot)=     7.34 kcal/mol T*S(tot)=    24.34 kcal/mol
 sn= 6  qrot/sn=   44822.6794 T*S(rot)=     7.23 kcal/mol T*S(tot)=    24.23 kcal/mol
 sn= 7  qrot/sn=   38419.4395 T*S(rot)=     7.14 kcal/mol T*S(tot)=    24.14 kcal/mol
 sn= 8  qrot/sn=   33617.0096 T*S(rot)=     7.06 kcal/mol T*S(tot)=    24.06 kcal/mol
 sn= 9  qrot/sn=   29881.7863 T*S(rot)=     6.99 kcal/mol T*S(tot)=    23.99 kcal/mol
 sn=10  qrot/sn=   26893.6077 T*S(rot)=     6.93 kcal/mol T*S(tot)=    23.93 kcal/mol
 sn=11  qrot/sn=   24448.7342 T*S(rot)=     6.88 kcal/mol T*S(tot)=    23.87 kcal/mol
 sn=12  qrot/sn=   22411.3397 T*S(rot)=     6.82 kcal/mol T*S(tot)=    23.82 kcal/mol

-------------------
GIBBS FREE ENTHALPY
-------------------

The Gibbs free enthalpy is G = H - T*S

Total enthalpy                    ...   -341.81743723 Eh
Total entropy correction          ...     -0.03926800 Eh    -24.64 kcal/mol
-----------------------------------------------------------------------
Final Gibbs free enthalpy         ...   -341.85670523 Eh

For completeness - the Gibbs free enthalpy minus the electronic energy
G-E(el)                           ...      0.10836721 Eh     68.00 kcal/mol

                             ****ORCA TERMINATED NORMALLY****
TOTAL RUN TIME: 0 days 0 hours 32 minutes 44 seconds 281 msec
