                         Program Version 3.0.3 - RELEASE   -
|  1> ! NORI PBE0 def2-TZVP UseSym TightOPT Freq TightSCF Grid3 FinalGrid5 XYZFile
|  2> % pal
|  3>     nprocs 8
|  4> end
|  5> %method
|  6>     SymThresh 5.0e-2
|  7> end
|  8> % geom
|  9>     MaxIter 10
| 10> end
| 11> % maxcore 2000
| 12> % output
| 13>     printlevel mini
| 14>     print[ P_Basis ] 0
| 15>     print[ P_SCFInfo ] 1
| 16>     print[ P_SCFIterInfo ] 1
| 17>     print[ P_OrbEn ] 0
| 18>     print[ P_Cartesian ] 0
| 19> end
| 20> % elprop
| 21>     Dipole false
| 22> end
| 23> *xyz 1 1
| 24>  C        1.0532434583     0.1073443834    -0.3245313600
| 25>  N        2.5048664287     0.0016854581    -0.1291858656
| 26>  C        3.3172958540    -1.0588562916    -0.7342695292
| 27>  C        3.4815013360     0.3508012220    -1.1692052285
| 28>  C        4.6378747952     1.1114572971    -0.5485137870
| 29>  O        5.5221831008     1.6590874051    -1.3499548880
| 30>  O        4.7115661656     1.1599078653     0.6455369607
| 31>  H        0.5592522417    -0.5260665334     0.4106540905
| 32>  H        0.8010257629    -0.2273514192    -1.3293241030
| 33>  H        0.7557367670     1.1460244669    -0.1884997504
| 34>  H        2.8783577717     0.3198881578     0.7759405040
| 35>  H        4.0621382842    -1.4890776090    -0.0754849417
| 36>  H        2.7666637399    -1.7401296723    -1.3705354212
| 37>  H        3.0532063261     0.6630574212    -2.1151574821
| 38>  H        5.3330379679     1.5347878487    -2.2889391986
| 39> *
| 40>
| 41>                          ****END OF INPUT****
 Total Charge           Charge          ....    1
 Multiplicity           Mult            ....    1
 Number of Electrons    NEL             ....   54
FINAL SINGLE POINT ENERGY      -361.900187453902

CARTESIAN COORDINATES (ANGSTROEM)
---------------------------------
  C     -0.662177   -0.995492   -2.308061
  N     -0.061180   -0.152639   -1.266426
  C     -0.573233    1.177395   -0.920784
  C     -0.678782    0.058845    0.049450
  C      0.386548    0.006788    1.128320
  O     -0.000547    0.000330    2.383070
  O      1.536027    0.000909    0.793328
  H     -0.236690   -0.711508   -3.269455
  H     -1.739462   -0.838285   -2.320022
  H     -0.436853   -2.038136   -2.088901
  H      0.956151   -0.233971   -1.129976
  H      0.191073    1.929040   -0.765337
  H     -1.456903    1.476203   -1.470360
  H     -1.637815   -0.427217    0.190120
  H     -0.959221    0.010825    2.499499

FINAL SINGLE POINT ENERGY      -361.900188100679
                    ***********************HURRAY********************
 Multiplicity           Mult            ....    1
 Number of Electrons    NEL             ....   54
 Basis Dimension        Dim             ....  265
FINAL SINGLE POINT ENERGY      -361.900188578712

VIBRATIONAL FREQUENCIES
-----------------------

   0:         0.00 cm**-1
   1:         0.00 cm**-1
   2:         0.00 cm**-1
   3:         0.00 cm**-1
   4:         0.00 cm**-1
   5:         0.00 cm**-1
   6:        91.37 cm**-1
   7:       172.32 cm**-1
   8:       194.06 cm**-1
   9:       230.79 cm**-1
  10:       335.16 cm**-1
  11:       412.61 cm**-1
  12:       447.98 cm**-1
  13:       488.62 cm**-1
  14:       659.80 cm**-1
  15:       736.03 cm**-1
  16:       812.92 cm**-1
  17:       858.63 cm**-1
  18:       910.98 cm**-1
  19:       986.31 cm**-1
  20:      1012.53 cm**-1
  21:      1079.37 cm**-1
  22:      1133.38 cm**-1
  23:      1154.32 cm**-1
  24:      1166.85 cm**-1
  25:      1197.61 cm**-1
  26:      1211.32 cm**-1
  27:      1226.89 cm**-1
  28:      1288.21 cm**-1
  29:      1318.37 cm**-1
  30:      1416.72 cm**-1
  31:      1453.09 cm**-1
  32:      1464.50 cm**-1
  33:      1481.45 cm**-1
  34:      1491.38 cm**-1
  35:      1514.28 cm**-1
  36:      1873.08 cm**-1
  37:      3085.61 cm**-1
  38:      3167.88 cm**-1
  39:      3185.72 cm**-1
  40:      3187.39 cm**-1
  41:      3202.08 cm**-1
  42:      3275.34 cm**-1
  43:      3343.94 cm**-1
  44:      3814.05 cm**-1

IR SPECTRUM
-----------

 Mode    freq (cm**-1)   T**2         TX         TY         TZ
-------------------------------------------------------------------
   6:        91.37    4.715968  (  0.081981  -2.096153  -0.561595)
   7:       172.32   14.180868  ( -0.177097  -2.906539  -2.387789)
   8:       194.06    4.490107  (  0.084102  -1.471151   1.522744)
   9:       230.79   19.213196  ( -0.613523   0.609773  -4.297088)
  10:       335.16   13.288073  ( -0.727801   2.220265  -2.798000)
  11:       412.61   12.165580  ( -0.973023  -2.606018  -2.104157)
  12:       447.98    8.204391  ( -0.040952   2.856466   0.208123)
  13:       488.62   90.396855  (  0.055888   9.505458  -0.200004)
  14:       659.80    5.188915  (  2.076801   0.510296   0.784482)
  15:       736.03    2.564725  ( -1.091201   0.308003   1.130991)
  16:       812.92   18.157926  ( -3.654167   1.411058   1.677469)
  17:       858.63    7.011858  (  0.691769  -0.884411   2.398152)
  18:       910.98    4.162652  (  1.211999   0.980644  -1.316074)
  19:       986.31    2.464758  ( -0.608803   0.196470   1.433707)
  20:      1012.53   22.281731  (  0.221668  -4.043842  -2.424858)
  21:      1079.37    1.727199  (  1.146430   0.642554  -0.004510)
  22:      1133.38   21.309218  (  1.127699  -0.924191  -4.379884)
  23:      1154.32   20.275734  (  1.045933  -1.584598   4.082990)
  24:      1166.85   28.842045  ( -2.648902  -0.751402   4.610939)
  25:      1197.61   11.273216  (  1.244407  -0.185947  -3.112891)
  26:      1211.32    4.770511  (  1.518567  -0.855452  -1.316307)
  27:      1226.89   52.893994  ( -1.625680  -2.050840   6.785662)
  28:      1288.21   70.433842  (  0.559774  -2.268444   8.060686)
  29:      1318.37  167.607218  (  2.094345  -1.144896 -12.724392)
  30:      1416.72  287.918896  (  0.644878   1.084663  16.921186)
  31:      1453.09    3.899263  (  1.536319   0.702480  -1.022501)
  32:      1464.50   30.782166  ( -0.878561  -4.107023   3.625281)
  33:      1481.45   12.204363  ( -0.245763  -2.297342   2.620340)
  34:      1491.38   20.221061  ( -3.672061   2.227262   1.332792)
  35:      1514.28   18.063269  ( -2.241272   2.745919   2.345187)
  36:      1873.08  215.554134  ( 13.738413  -0.542650  -5.149337)
  37:      3085.61    0.347416  (  0.586419   0.026860   0.052986)
  38:      3167.88    5.012323  (  0.439089   2.180703  -0.253098)
  39:      3185.72    0.695943  ( -0.030064  -0.496303   0.669868)
  40:      3187.39    0.349134  ( -0.151725  -0.452114   0.348865)
  41:      3202.08    2.787703  ( -1.470587  -0.782636   0.112069)
  42:      3275.34    7.897889  (  2.410251   0.985987   1.056602)
  43:      3343.94  170.460038  (-12.091074   1.449190  -4.708058)
  44:      3814.05  132.818401  ( -9.463883  -0.006165   6.576723)

--------------------------
THERMOCHEMISTRY AT 298.15K
--------------------------

Temperature         ... 298.15 K
Pressure            ... 1.00 atm
Total Mass          ... 102.11 AMU

Throughout the following assumptions are being made:
  (1) The electronic state is orbitally nondegenerate
  (2) There are no thermally accessible electronically excited states
  (3) Hindered rotations indicated by low frequency modes) are not
      treated as such but are treated as vibrations and this may
      case some error
  (4) All equations used are the standard statistical mechanics
      equations for an ideal gas
  (5) All vibrations are strinctly harmonic

------------
INNER ENERGY
------------

The inner energy is: U= E(el) + E(ZPE) + E(vib) + E(rot) + E(trans)
    E(el)   - is the total energy from the electronic structure calculation
              = E(kin-el) + E(nuc-el) + E(el-el) + E(nuc-nuc)
    E(ZPE)  - the the zero temperature vibrational energy from the frequency calculation
    E(vib)  - the the finite temperature correction to E(ZPE) due to population
              of excietd vibrational states
    E(rot)  - is the rotational thermal energy
    E(trans)- is the translational thermal energy

Summary of contributions to the inner energy U:
Electronic energy                ...   -361.90018858 Eh
Zero point energy                ...      0.12776640 Eh      80.17 kcal/mol
Thermal vibrational correction   ...      0.00429991 Eh       2.70 kcal/mol
Thermal rotational correction    ...      0.00141627 Eh       0.89 kcal/mol
Thermal translational correction ...      0.00141627 Eh       0.89 kcal/mol
-----------------------------------------------------------------------
Total thermal energy                   -361.76528972 Eh

Summary of corrections to the electronic energy:
(perhaps to be used in another calculation)
Total thermal correction                  0.00713246 Eh       4.48 kcal/mol
Non-thermal (ZPE) correction              0.12776640 Eh      80.17 kcal/mol
-----------------------------------------------------------------------
Total correction                          0.13489886 Eh      84.65 kcal/mol

--------
ENTHALPY
--------

The enthalpy is H = U + kB*T
                kB is Boltzmann's constant
Total free energy                 ...   -361.76528972 Eh
Thermal Enthalpy correction       ...      0.00094421 Eh       0.59 kcal/mol
-----------------------------------------------------------------------
Total Enthalpy                    ...   -361.76434551 Eh

-------
ENTROPY
-------

The entropy contributions are T*S = T*(S(el)+S(vib)+S(rot)+S(trans)
     S(el)   - electronic entropy
     S(vib)  - vibrational entropy
     S(rot)  - rotational entropy
     S(trans)- translational entropy
The entropies will be listed as mutliplied by the temperature to get
units of energy

Electronic entropy                ...      0.00000000 Eh      0.00 kcal/mol
Vibrational entropy               ...      0.00737674 Eh      4.63 kcal/mol
Rotational entropy                ...      0.01198560 Eh      7.52 kcal/mol
Translational entropy             ...      0.01890086 Eh     11.86 kcal/mol
-----------------------------------------------------------------------
Final entropy term                ...      0.03826320 Eh     24.01 kcal/mol

CAUTION: The rotational entropy is not quite correctly treated here
         because it includes a symmetry number that is not yet correctly
         implemented in ORCA!
For a nonlinear molecule the correct rotational entropy is:
    S(rot) = R*(ln(qrot/sn)+1.5)
    R    = 8.31441 J/mol/K = 1.987191683e-3 kcal/mol/K
    qrot = 218117.4256190
    sn is the rotational symmetry number. We have assumed 3 here
       if it is different for your molecule then you should correct
       the printed rotational entropy by manually evaluating the equation
       as given above

For convenience we print out the resulting values for sn=1 - 12:
 sn= 1  qrot/sn=  218117.4256 T*S(rot)=     8.17 kcal/mol T*S(tot)=    24.66 kcal/mol
 sn= 2  qrot/sn=  109058.7128 T*S(rot)=     7.76 kcal/mol T*S(tot)=    24.25 kcal/mol
 sn= 3  qrot/sn=   72705.8085 T*S(rot)=     7.52 kcal/mol T*S(tot)=    24.01 kcal/mol
 sn= 4  qrot/sn=   54529.3564 T*S(rot)=     7.35 kcal/mol T*S(tot)=    23.84 kcal/mol
 sn= 5  qrot/sn=   43623.4851 T*S(rot)=     7.22 kcal/mol T*S(tot)=    23.71 kcal/mol
 sn= 6  qrot/sn=   36352.9043 T*S(rot)=     7.11 kcal/mol T*S(tot)=    23.60 kcal/mol
 sn= 7  qrot/sn=   31159.6322 T*S(rot)=     7.02 kcal/mol T*S(tot)=    23.51 kcal/mol
 sn= 8  qrot/sn=   27264.6782 T*S(rot)=     6.94 kcal/mol T*S(tot)=    23.43 kcal/mol
 sn= 9  qrot/sn=   24235.2695 T*S(rot)=     6.87 kcal/mol T*S(tot)=    23.36 kcal/mol
 sn=10  qrot/sn=   21811.7426 T*S(rot)=     6.81 kcal/mol T*S(tot)=    23.30 kcal/mol
 sn=11  qrot/sn=   19828.8569 T*S(rot)=     6.75 kcal/mol T*S(tot)=    23.24 kcal/mol
 sn=12  qrot/sn=   18176.4521 T*S(rot)=     6.70 kcal/mol T*S(tot)=    23.19 kcal/mol

-------------------
GIBBS FREE ENTHALPY
-------------------

The Gibbs free enthalpy is G = H - T*S

Total enthalpy                    ...   -361.76434551 Eh
Total entropy correction          ...     -0.03826320 Eh    -24.01 kcal/mol
-----------------------------------------------------------------------
Final Gibbs free enthalpy         ...   -361.80260871 Eh

For completeness - the Gibbs free enthalpy minus the electronic energy
G-E(el)                           ...      0.09757986 Eh     61.23 kcal/mol

                             ****ORCA TERMINATED NORMALLY****
TOTAL RUN TIME: 0 days 0 hours 33 minutes 5 seconds 653 msec
