                         Program Version 3.0.3 - RELEASE   -
|  1> ! NORI PBE0 def2-TZVP UseSym TightOPT Freq TightSCF Grid3 FinalGrid5 XYZFile
|  2> % pal
|  3>     nprocs 8
|  4> end
|  5> %method
|  6>     SymThresh 5.0e-2
|  7> end
|  8> % geom
|  9>     MaxIter 10
| 10> end
| 11> % maxcore 2000
| 12> % output
| 13>     printlevel mini
| 14>     print[ P_Basis ] 0
| 15>     print[ P_SCFInfo ] 1
| 16>     print[ P_SCFIterInfo ] 1
| 17>     print[ P_OrbEn ] 0
| 18>     print[ P_Cartesian ] 0
| 19> end
| 20> % elprop
| 21>     Dipole false
| 22> end
| 23> *xyz 1 1
| 24>  C        1.3602789216     0.2021457457     0.9403440271
| 25>  N        2.3167327927    -0.0744813036    -0.1548255876
| 26>  C        2.2617507160    -1.4714386971    -0.7115791198
| 27>  C        2.9607033049    -1.3189150791    -2.0318869234
| 28>  O        4.1255495949    -0.5147454341    -1.9186920188
| 29>  C        2.9370574671     0.0891252359    -2.4076503417
| 30>  C        2.2231282499     0.8571814772    -1.3324049599
| 31>  H        1.5085092912     1.2221054455     1.2915760068
| 32>  H        1.5395129034    -0.4990932489     1.7539522082
| 33>  H        0.3463652137     0.0825758832     0.5627942409
| 34>  H        3.2689966980     0.0359063932     0.1994051135
| 35>  H        2.7485888522    -2.1496690182    -0.0101357292
| 36>  H        1.2164584885    -1.7591006142    -0.8375544247
| 37>  H        2.9860017651    -2.1390912845    -2.7398121187
| 38>  H        2.9421218088     0.4478673936    -3.4300009693
| 39>  H        1.1706082968     1.0125325950    -1.5756179299
| 40>  H        2.6837456352     1.8090945106    -1.0663314734
| 41> *
| 42>
| 43>                          ****END OF INPUT****
 Total Charge           Charge          ....    1
 Multiplicity           Mult            ....    1
 Number of Electrons    NEL             ....   54
FINAL SINGLE POINT ENERGY      -325.988963153370

CARTESIAN COORDINATES (ANGSTROEM)
---------------------------------
  C     -2.104276    1.154549    0.000000
  N     -0.708816    0.660455   -0.000000
  C     -0.321105   -0.152830    1.205150
  C      0.911692   -0.866146    0.728703
  O      1.769572   -0.000434    0.000000
  C      0.911692   -0.866146   -0.728703
  C     -0.321105   -0.152830   -1.205151
  H     -2.267020    1.758641   -0.891255
  H     -2.267020    1.758641    0.891255
  H     -2.780871    0.301873    0.000000
  H     -0.072689    1.460326   -0.000000
  H     -0.164736    0.520019    2.049028
  H     -1.129377   -0.849705    1.434269
  H      1.375159   -1.632440    1.338710
  H      1.375159   -1.632440   -1.338710
  H     -1.129377   -0.849705   -1.434269
  H     -0.164736    0.520019   -2.049028

FINAL SINGLE POINT ENERGY      -325.988963466724
                    ***********************HURRAY********************
 Multiplicity           Mult            ....    1
 Number of Electrons    NEL             ....   54
 Basis Dimension        Dim             ....  277
FINAL SINGLE POINT ENERGY      -325.988963608509

VIBRATIONAL FREQUENCIES
-----------------------

   0:         0.00 cm**-1
   1:         0.00 cm**-1
   2:         0.00 cm**-1
   3:         0.00 cm**-1
   4:         0.00 cm**-1
   5:         0.00 cm**-1
   6:       142.18 cm**-1
   7:       233.37 cm**-1
   8:       314.07 cm**-1
   9:       351.75 cm**-1
  10:       405.14 cm**-1
  11:       440.26 cm**-1
  12:       640.55 cm**-1
  13:       682.97 cm**-1
  14:       854.20 cm**-1
  15:       861.54 cm**-1
  16:       883.52 cm**-1
  17:       933.70 cm**-1
  18:       957.32 cm**-1
  19:       971.59 cm**-1
  20:      1034.41 cm**-1
  21:      1040.81 cm**-1
  22:      1062.35 cm**-1
  23:      1107.37 cm**-1
  24:      1116.24 cm**-1
  25:      1163.07 cm**-1
  26:      1193.49 cm**-1
  27:      1205.40 cm**-1
  28:      1252.66 cm**-1
  29:      1307.42 cm**-1
  30:      1319.16 cm**-1
  31:      1364.24 cm**-1
  32:      1370.92 cm**-1
  33:      1412.31 cm**-1
  34:      1435.71 cm**-1
  35:      1456.23 cm**-1
  36:      1472.25 cm**-1
  37:      1478.11 cm**-1
  38:      1492.45 cm**-1
  39:      1494.94 cm**-1
  40:      1498.80 cm**-1
  41:      3087.25 cm**-1
  42:      3096.84 cm**-1
  43:      3098.70 cm**-1
  44:      3160.08 cm**-1
  45:      3160.83 cm**-1
  46:      3186.30 cm**-1
  47:      3188.82 cm**-1
  48:      3208.62 cm**-1
  49:      3217.80 cm**-1
  50:      3458.76 cm**-1

IR SPECTRUM
-----------

 Mode    freq (cm**-1)   T**2         TX         TY         TZ
-------------------------------------------------------------------
   6:       142.18    7.188125  ( -1.581978   2.164595   0.000001)
   7:       233.37    0.047614  ( -0.000000  -0.000000  -0.218207)
   8:       314.07    1.602840  ( -0.000000  -0.000000   1.266033)
   9:       351.75    1.943483  (  0.000000   0.000000   1.394089)
  10:       405.14   19.768136  ( -4.272530   1.230295  -0.000001)
  11:       440.26    0.138717  ( -0.364052  -0.078632  -0.000001)
  12:       640.55    0.748106  ( -0.832829  -0.233457  -0.000002)
  13:       682.97    2.874412  (  0.000000   0.000000   1.695409)
  14:       854.20    5.733803  ( -0.071774  -2.393460   0.000001)
  15:       861.54    8.800696  ( -0.000000  -0.000000   2.966597)
  16:       883.52   33.058771  (  3.969507   4.159542  -0.000001)
  17:       933.70    4.723305  (  1.415660   1.649003   0.000003)
  18:       957.32    8.489535  (  0.000000   0.000000   2.913681)
  19:       971.59    0.469976  ( -0.000000  -0.000000   0.685548)
  20:      1034.41   12.259521  ( -0.000000  -0.000000  -3.501360)
  21:      1040.81    1.018111  ( -0.795131  -0.621191  -0.000001)
  22:      1062.35    0.778056  ( -0.236468   0.849788   0.000000)
  23:      1107.37    0.007697  (  0.000000   0.000000  -0.087731)
  24:      1116.24   26.820944  (  5.133215  -0.686326  -0.000001)
  25:      1163.07   20.551608  ( -1.593658   4.244038  -0.000001)
  26:      1193.49    0.357942  (  0.000000   0.000000  -0.598282)
  27:      1205.40    0.083940  (  0.000000   0.000000   0.289724)
  28:      1252.66    8.327331  (  1.106424   2.665175   0.000000)
  29:      1307.42    4.345625  (  1.089516   1.777239   0.000000)
  30:      1319.16    0.165352  (  0.000000   0.000000  -0.406635)
  31:      1364.24   23.031394  (  3.802322  -2.928096  -0.000002)
  32:      1370.92    3.902275  (  0.000000   0.000000  -1.975418)
  33:      1412.31   17.932823  ( -3.420824   2.496154  -0.000002)
  34:      1435.71   11.458045  ( -0.000000  -0.000000  -3.384973)
  35:      1456.23    0.618247  (  0.437840   0.653103  -0.000001)
  36:      1472.25   10.889951  ( -2.109338  -2.537842  -0.000000)
  37:      1478.11    2.097270  ( -0.000000  -0.000000  -1.448195)
  38:      1492.45   25.899574  ( -2.784753   4.259663   0.000000)
  39:      1494.94   29.772675  (  0.000000   0.000000  -5.456434)
  40:      1498.80   18.326624  ( -3.378124  -2.629620   0.000000)
  41:      3087.25    0.101338  ( -0.315601   0.041648   0.000000)
  42:      3096.84    0.246776  ( -0.000000  -0.000000  -0.496766)
  43:      3098.70    0.754822  (  0.862044   0.108178   0.000001)
  44:      3160.08    0.019970  (  0.000000   0.000000   0.141314)
  45:      3160.83    0.107413  (  0.327298   0.016988  -0.000001)
  46:      3186.30    0.158479  (  0.000000   0.000000  -0.398095)
  47:      3188.82    0.053464  (  0.103808  -0.206610  -0.000000)
  48:      3208.62    0.218492  (  0.000000   0.000000  -0.467432)
  49:      3217.80    2.136677  ( -1.434610   0.280305  -0.000000)
  50:      3458.76   72.359255  (  5.101812   6.806671  -0.000000)

--------------------------
THERMOCHEMISTRY AT 298.15K
--------------------------

Temperature         ... 298.15 K
Pressure            ... 1.00 atm
Total Mass          ... 100.14 AMU

Throughout the following assumptions are being made:
  (1) The electronic state is orbitally nondegenerate
  (2) There are no thermally accessible electronically excited states
  (3) Hindered rotations indicated by low frequency modes) are not
      treated as such but are treated as vibrations and this may
      case some error
  (4) All equations used are the standard statistical mechanics
      equations for an ideal gas
  (5) All vibrations are strinctly harmonic

------------
INNER ENERGY
------------

The inner energy is: U= E(el) + E(ZPE) + E(vib) + E(rot) + E(trans)
    E(el)   - is the total energy from the electronic structure calculation
              = E(kin-el) + E(nuc-el) + E(el-el) + E(nuc-nuc)
    E(ZPE)  - the the zero temperature vibrational energy from the frequency calculation
    E(vib)  - the the finite temperature correction to E(ZPE) due to population
              of excietd vibrational states
    E(rot)  - is the rotational thermal energy
    E(trans)- is the translational thermal energy

Summary of contributions to the inner energy U:
Electronic energy                ...   -325.98896361 Eh
Zero point energy                ...      0.15449281 Eh      96.95 kcal/mol
Thermal vibrational correction   ...      0.00337132 Eh       2.12 kcal/mol
Thermal rotational correction    ...      0.00141627 Eh       0.89 kcal/mol
Thermal translational correction ...      0.00141627 Eh       0.89 kcal/mol
-----------------------------------------------------------------------
Total thermal energy                   -325.82826693 Eh

Summary of corrections to the electronic energy:
(perhaps to be used in another calculation)
Total thermal correction                  0.00620387 Eh       3.89 kcal/mol
Non-thermal (ZPE) correction              0.15449281 Eh      96.95 kcal/mol
-----------------------------------------------------------------------
Total correction                          0.16069668 Eh     100.84 kcal/mol

--------
ENTHALPY
--------

The enthalpy is H = U + kB*T
                kB is Boltzmann's constant
Total free energy                 ...   -325.82826693 Eh
Thermal Enthalpy correction       ...      0.00094421 Eh       0.59 kcal/mol
-----------------------------------------------------------------------
Total Enthalpy                    ...   -325.82732272 Eh

-------
ENTROPY
-------

The entropy contributions are T*S = T*(S(el)+S(vib)+S(rot)+S(trans)
     S(el)   - electronic entropy
     S(vib)  - vibrational entropy
     S(rot)  - rotational entropy
     S(trans)- translational entropy
The entropies will be listed as mutliplied by the temperature to get
units of energy

Electronic entropy                ...      0.00000000 Eh      0.00 kcal/mol
Vibrational entropy               ...      0.00529481 Eh      3.32 kcal/mol
Rotational entropy                ...      0.01174578 Eh      7.37 kcal/mol
Translational entropy             ...      0.01887324 Eh     11.84 kcal/mol
-----------------------------------------------------------------------
Final entropy term                ...      0.03591383 Eh     22.54 kcal/mol

CAUTION: The rotational entropy is not quite correctly treated here
         because it includes a symmetry number that is not yet correctly
         implemented in ORCA!
For a nonlinear molecule the correct rotational entropy is:
    S(rot) = R*(ln(qrot/sn)+1.5)
    R    = 8.31441 J/mol/K = 1.987191683e-3 kcal/mol/K
    qrot = 169191.7323433
    sn is the rotational symmetry number. We have assumed 3 here
       if it is different for your molecule then you should correct
       the printed rotational entropy by manually evaluating the equation
       as given above

For convenience we print out the resulting values for sn=1 - 12:
 sn= 1  qrot/sn=  169191.7323 T*S(rot)=     8.02 kcal/mol T*S(tot)=    23.19 kcal/mol
 sn= 2  qrot/sn=   84595.8662 T*S(rot)=     7.61 kcal/mol T*S(tot)=    22.78 kcal/mol
 sn= 3  qrot/sn=   56397.2441 T*S(rot)=     7.37 kcal/mol T*S(tot)=    22.54 kcal/mol
 sn= 4  qrot/sn=   42297.9331 T*S(rot)=     7.20 kcal/mol T*S(tot)=    22.37 kcal/mol
 sn= 5  qrot/sn=   33838.3465 T*S(rot)=     7.07 kcal/mol T*S(tot)=    22.23 kcal/mol
 sn= 6  qrot/sn=   28198.6221 T*S(rot)=     6.96 kcal/mol T*S(tot)=    22.13 kcal/mol
 sn= 7  qrot/sn=   24170.2475 T*S(rot)=     6.87 kcal/mol T*S(tot)=    22.03 kcal/mol
 sn= 8  qrot/sn=   21148.9665 T*S(rot)=     6.79 kcal/mol T*S(tot)=    21.96 kcal/mol
 sn= 9  qrot/sn=   18799.0814 T*S(rot)=     6.72 kcal/mol T*S(tot)=    21.89 kcal/mol
 sn=10  qrot/sn=   16919.1732 T*S(rot)=     6.66 kcal/mol T*S(tot)=    21.82 kcal/mol
 sn=11  qrot/sn=   15381.0666 T*S(rot)=     6.60 kcal/mol T*S(tot)=    21.77 kcal/mol
 sn=12  qrot/sn=   14099.3110 T*S(rot)=     6.55 kcal/mol T*S(tot)=    21.71 kcal/mol

-------------------
GIBBS FREE ENTHALPY
-------------------

The Gibbs free enthalpy is G = H - T*S

Total enthalpy                    ...   -325.82732272 Eh
Total entropy correction          ...     -0.03591383 Eh    -22.54 kcal/mol
-----------------------------------------------------------------------
Final Gibbs free enthalpy         ...   -325.86323655 Eh

For completeness - the Gibbs free enthalpy minus the electronic energy
G-E(el)                           ...      0.12572706 Eh     78.89 kcal/mol

                             ****ORCA TERMINATED NORMALLY****
TOTAL RUN TIME: 0 days 0 hours 45 minutes 13 seconds 596 msec
