                         Program Version 3.0.3 - RELEASE   -
|  1> ! NORI PBE0 def2-TZVP UseSym TightOPT Freq TightSCF Grid3 FinalGrid5 XYZFile
|  2> % pal
|  3>     nprocs 8
|  4> end
|  5> %method
|  6>     SymThresh 5.0e-2
|  7> end
|  8> % geom
|  9>     MaxIter 10
| 10> end
| 11> % maxcore 2000
| 12> % output
| 13>     printlevel mini
| 14>     print[ P_Basis ] 0
| 15>     print[ P_SCFInfo ] 1
| 16>     print[ P_SCFIterInfo ] 1
| 17>     print[ P_OrbEn ] 0
| 18>     print[ P_Cartesian ] 0
| 19> end
| 20> % elprop
| 21>     Dipole false
| 22> end
| 23> *xyz 1 1
| 24>  C        0.9129148502    -0.0677156428     0.1701530162
| 25>  N        2.3851903471    -0.0951404123     0.1034181001
| 26>  C        3.1727209662     0.9837222455     0.8162326625
| 27>  C        4.1377025604    -0.0696104129     1.3701869037
| 28>  C        3.1439759296    -1.1438659430     0.9115473423
| 29>  C        3.6123166206    -2.2972551572     0.0691808397
| 30>  O        2.4674250328    -2.8009816179    -0.5697075659
| 31>  H        0.5482532649     0.8043984645    -0.3724842005
| 32>  H        0.6130789979    -0.0043041640     1.2150182434
| 33>  H        0.5295317918    -0.9835934616    -0.2757552961
| 34>  H        2.6676632987    -0.1665629446    -0.8746336305
| 35>  H        2.5312532760     1.4414860113     1.5674442309
| 36>  H        3.5552417148     1.7449857875     0.1393255919
| 37>  H        4.3341946672    -0.0216872616     2.4378937129
| 38>  H        5.0847293581    -0.1099684501     0.8324943672
| 39>  H        2.4706270593    -1.4851981994     1.6990940619
| 40>  H        4.3647885144    -1.9542811183    -0.6568304180
| 41>  H        4.0955562664    -3.0295868441     0.7275067059
| 42>  H        2.6746854836    -3.6177508789    -1.0328546679
| 43> *
| 44>
| 45>                          ****END OF INPUT****
 Total Charge           Charge          ....    1
 Multiplicity           Mult            ....    1
 Number of Electrons    NEL             ....   56
FINAL SINGLE POINT ENERGY      -327.208639041502
FINAL SINGLE POINT ENERGY      -327.208640787231
FINAL SINGLE POINT ENERGY      -327.208642346407

CARTESIAN COORDINATES (ANGSTROEM)
---------------------------------
  C      1.685741   -1.125018   -0.304479
  N      0.746910   -0.001527   -0.476994
  C      0.226492    0.317742   -1.862398
  C     -1.193362    0.470558   -1.307139
  C     -0.695059   -0.161878   -0.002307
  C     -0.949147    0.519459    1.313219
  O      0.001287    0.000316    2.207738
  H      2.628237   -0.878950   -0.793307
  H      1.254083   -2.014362   -0.760949
  H      1.837539   -1.286130    0.761214
  H      1.147069    0.827964   -0.037516
  H      0.367457   -0.555934   -2.496493
  H      0.713510    1.182736   -2.307447
  H     -1.973077   -0.070727   -1.835954
  H     -1.497275    1.510207   -1.184640
  H     -0.886361   -1.233476    0.069591
  H     -0.847512    1.608884    1.198754
  H     -1.982927    0.311568    1.614939
  H     -0.172287    0.313951    3.099954

FINAL SINGLE POINT ENERGY      -327.208642771062
                    ***********************HURRAY********************
 Multiplicity           Mult            ....    1
 Number of Electrons    NEL             ....   56
 Basis Dimension        Dim             ....  289
FINAL SINGLE POINT ENERGY      -327.208643398625

VIBRATIONAL FREQUENCIES
-----------------------

   0:         0.00 cm**-1
   1:         0.00 cm**-1
   2:         0.00 cm**-1
   3:         0.00 cm**-1
   4:         0.00 cm**-1
   5:         0.00 cm**-1
   6:        59.26 cm**-1
   7:       112.15 cm**-1
   8:       202.53 cm**-1
   9:       233.24 cm**-1
  10:       283.39 cm**-1
  11:       309.16 cm**-1
  12:       348.36 cm**-1
  13:       445.74 cm**-1
  14:       488.04 cm**-1
  15:       665.74 cm**-1
  16:       782.42 cm**-1
  17:       806.68 cm**-1
  18:       912.80 cm**-1
  19:       926.11 cm**-1
  20:       992.60 cm**-1
  21:      1011.64 cm**-1
  22:      1048.23 cm**-1
  23:      1094.62 cm**-1
  24:      1102.96 cm**-1
  25:      1117.97 cm**-1
  26:      1132.94 cm**-1
  27:      1186.86 cm**-1
  28:      1217.13 cm**-1
  29:      1230.11 cm**-1
  30:      1250.83 cm**-1
  31:      1274.74 cm**-1
  32:      1295.00 cm**-1
  33:      1307.08 cm**-1
  34:      1333.60 cm**-1
  35:      1343.53 cm**-1
  36:      1370.85 cm**-1
  37:      1426.87 cm**-1
  38:      1452.55 cm**-1
  39:      1467.37 cm**-1
  40:      1485.26 cm**-1
  41:      1489.15 cm**-1
  42:      1498.07 cm**-1
  43:      1506.37 cm**-1
  44:      1516.99 cm**-1
  45:      3000.96 cm**-1
  46:      3063.32 cm**-1
  47:      3083.27 cm**-1
  48:      3113.91 cm**-1
  49:      3119.59 cm**-1
  50:      3125.95 cm**-1
  51:      3179.16 cm**-1
  52:      3180.19 cm**-1
  53:      3191.33 cm**-1
  54:      3192.74 cm**-1
  55:      3473.57 cm**-1
  56:      3862.68 cm**-1

IR SPECTRUM
-----------

 Mode    freq (cm**-1)   T**2         TX         TY         TZ
-------------------------------------------------------------------
   6:        59.26    1.872846  (  0.259829   0.924920  -0.974606)
   7:       112.15    7.538315  (  1.498465   1.301795  -1.896904)
   8:       202.53    5.605147  (  0.502377   1.784295   1.472771)
   9:       233.24    0.940548  (  0.003902  -0.053979   0.968307)
  10:       283.39   27.048897  (  3.176060   4.118420   0.012255)
  11:       309.16  101.725703  (  5.562580   7.840298  -3.051742)
  12:       348.36    5.795172  (  1.788726   1.400304   0.796732)
  13:       445.74    5.621077  ( -0.822011   0.515043  -2.163355)
  14:       488.04    4.487615  ( -1.841895   0.259984  -1.013630)
  15:       665.74    5.686050  ( -0.686812  -1.167178  -1.962660)
  16:       782.42    3.166176  ( -1.279583  -0.244653   1.212018)
  17:       806.68    7.421084  ( -0.223745  -1.172260   2.448842)
  18:       912.80   11.321264  ( -0.855850   0.166062   3.249801)
  19:       926.11    2.077325  ( -1.205166  -0.407538  -0.677357)
  20:       992.60    2.052814  ( -0.314210   0.710784  -1.203691)
  21:      1011.64   25.476834  ( -4.795501   1.293511  -0.898239)
  22:      1048.23    4.496159  ( -0.927314   0.499237  -1.840383)
  23:      1094.62    8.680866  (  2.766761  -0.984594   0.237646)
  24:      1102.96   51.189971  ( -3.171626   2.684350  -5.824519)
  25:      1117.97    5.514806  ( -0.153385   0.626007   2.258184)
  26:      1132.94   33.817426  (  4.354771  -2.356656   3.049519)
  27:      1186.86    5.358269  (  2.307022  -0.176675  -0.068587)
  28:      1217.13   12.461180  ( -1.878139   1.717484  -2.446226)
  29:      1230.11    1.389706  (  1.042036  -0.446237  -0.323635)
  30:      1250.83   26.547310  ( -4.205850   2.505422  -1.606548)
  31:      1274.74   14.113427  (  0.696960   1.288340  -3.459459)
  32:      1295.00    3.133148  (  1.670889  -0.320783   0.488238)
  33:      1307.08    6.817243  ( -0.885085   0.917381  -2.278657)
  34:      1333.60   21.952165  (  0.364752   2.830082  -3.716148)
  35:      1343.53    5.240790  ( -2.004823  -1.037731   0.380247)
  36:      1370.85   12.597647  (  2.379408  -0.504982  -2.584774)
  37:      1426.87   14.654682  (  3.434866  -1.673306  -0.237530)
  38:      1452.55   11.474407  ( -2.108409   2.617372  -0.422352)
  39:      1467.37    1.680378  ( -0.025348   0.326286  -1.254302)
  40:      1485.26   16.944837  (  3.501595  -0.905858   1.965475)
  41:      1489.15   15.964084  ( -2.189405   0.540983   3.298170)
  42:      1498.07   17.704994  ( -3.518992  -2.290987  -0.270313)
  43:      1506.37   10.773625  (  0.075924   1.501508   2.917762)
  44:      1516.99    2.515577  (  0.544172   1.463224   0.280050)
  45:      3000.96   27.548509  (  1.635312  -4.455622   2.240914)
  46:      3063.32    8.842990  ( -2.676978  -1.290750  -0.103658)
  47:      3083.27    1.095133  ( -0.394666   0.438709   0.864237)
  48:      3113.91    1.264130  (  0.776288  -0.813187   0.015312)
  49:      3119.59    1.652426  (  0.800368   0.194128  -0.986991)
  50:      3125.95    2.089257  ( -0.581665   1.304515   0.221727)
  51:      3179.16    0.287560  ( -0.448343  -0.113931  -0.271234)
  52:      3180.19    0.286628  ( -0.012199   0.088635   0.527847)
  53:      3191.33    0.156587  ( -0.103616   0.070870   0.375271)
  54:      3192.74    1.117596  (  0.292708   0.214718  -0.992882)
  55:      3473.57   50.387287  ( -3.556638  -5.163350  -3.328278)
  56:      3862.68  114.469796  ( -0.042490  -1.865070 -10.535156)

--------------------------
THERMOCHEMISTRY AT 298.15K
--------------------------

Temperature         ... 298.15 K
Pressure            ... 1.00 atm
Total Mass          ... 102.16 AMU

Throughout the following assumptions are being made:
  (1) The electronic state is orbitally nondegenerate
  (2) There are no thermally accessible electronically excited states
  (3) Hindered rotations indicated by low frequency modes) are not
      treated as such but are treated as vibrations and this may
      case some error
  (4) All equations used are the standard statistical mechanics
      equations for an ideal gas
  (5) All vibrations are strinctly harmonic

------------
INNER ENERGY
------------

The inner energy is: U= E(el) + E(ZPE) + E(vib) + E(rot) + E(trans)
    E(el)   - is the total energy from the electronic structure calculation
              = E(kin-el) + E(nuc-el) + E(el-el) + E(nuc-nuc)
    E(ZPE)  - the the zero temperature vibrational energy from the frequency calculation
    E(vib)  - the the finite temperature correction to E(ZPE) due to population
              of excietd vibrational states
    E(rot)  - is the rotational thermal energy
    E(trans)- is the translational thermal energy

Summary of contributions to the inner energy U:
Electronic energy                ...   -327.20864340 Eh
Zero point energy                ...      0.17613793 Eh     110.53 kcal/mol
Thermal vibrational correction   ...      0.00506218 Eh       3.18 kcal/mol
Thermal rotational correction    ...      0.00141627 Eh       0.89 kcal/mol
Thermal translational correction ...      0.00141627 Eh       0.89 kcal/mol
-----------------------------------------------------------------------
Total thermal energy                   -327.02461074 Eh

Summary of corrections to the electronic energy:
(perhaps to be used in another calculation)
Total thermal correction                  0.00789473 Eh       4.95 kcal/mol
Non-thermal (ZPE) correction              0.17613793 Eh     110.53 kcal/mol
-----------------------------------------------------------------------
Total correction                          0.18403266 Eh     115.48 kcal/mol

--------
ENTHALPY
--------

The enthalpy is H = U + kB*T
                kB is Boltzmann's constant
Total free energy                 ...   -327.02461074 Eh
Thermal Enthalpy correction       ...      0.00094421 Eh       0.59 kcal/mol
-----------------------------------------------------------------------
Total Enthalpy                    ...   -327.02366653 Eh

-------
ENTROPY
-------

The entropy contributions are T*S = T*(S(el)+S(vib)+S(rot)+S(trans)
     S(el)   - electronic entropy
     S(vib)  - vibrational entropy
     S(rot)  - rotational entropy
     S(trans)- translational entropy
The entropies will be listed as mutliplied by the temperature to get
units of energy

Electronic entropy                ...      0.00000000 Eh      0.00 kcal/mol
Vibrational entropy               ...      0.00910713 Eh      5.71 kcal/mol
Rotational entropy                ...      0.01205996 Eh      7.57 kcal/mol
Translational entropy             ...      0.01890147 Eh     11.86 kcal/mol
-----------------------------------------------------------------------
Final entropy term                ...      0.04006856 Eh     25.14 kcal/mol

CAUTION: The rotational entropy is not quite correctly treated here
         because it includes a symmetry number that is not yet correctly
         implemented in ORCA!
For a nonlinear molecule the correct rotational entropy is:
    S(rot) = R*(ln(qrot/sn)+1.5)
    R    = 8.31441 J/mol/K = 1.987191683e-3 kcal/mol/K
    qrot = 235990.3212553
    sn is the rotational symmetry number. We have assumed 3 here
       if it is different for your molecule then you should correct
       the printed rotational entropy by manually evaluating the equation
       as given above

For convenience we print out the resulting values for sn=1 - 12:
 sn= 1  qrot/sn=  235990.3213 T*S(rot)=     8.22 kcal/mol T*S(tot)=    25.79 kcal/mol
 sn= 2  qrot/sn=  117995.1606 T*S(rot)=     7.81 kcal/mol T*S(tot)=    25.38 kcal/mol
 sn= 3  qrot/sn=   78663.4404 T*S(rot)=     7.57 kcal/mol T*S(tot)=    25.14 kcal/mol
 sn= 4  qrot/sn=   58997.5803 T*S(rot)=     7.40 kcal/mol T*S(tot)=    24.97 kcal/mol
 sn= 5  qrot/sn=   47198.0643 T*S(rot)=     7.27 kcal/mol T*S(tot)=    24.84 kcal/mol
 sn= 6  qrot/sn=   39331.7202 T*S(rot)=     7.16 kcal/mol T*S(tot)=    24.73 kcal/mol
 sn= 7  qrot/sn=   33712.9030 T*S(rot)=     7.07 kcal/mol T*S(tot)=    24.64 kcal/mol
 sn= 8  qrot/sn=   29498.7902 T*S(rot)=     6.99 kcal/mol T*S(tot)=    24.56 kcal/mol
 sn= 9  qrot/sn=   26221.1468 T*S(rot)=     6.92 kcal/mol T*S(tot)=    24.49 kcal/mol
 sn=10  qrot/sn=   23599.0321 T*S(rot)=     6.85 kcal/mol T*S(tot)=    24.43 kcal/mol
 sn=11  qrot/sn=   21453.6656 T*S(rot)=     6.80 kcal/mol T*S(tot)=    24.37 kcal/mol
 sn=12  qrot/sn=   19665.8601 T*S(rot)=     6.75 kcal/mol T*S(tot)=    24.32 kcal/mol

-------------------
GIBBS FREE ENTHALPY
-------------------

The Gibbs free enthalpy is G = H - T*S

Total enthalpy                    ...   -327.02366653 Eh
Total entropy correction          ...     -0.04006856 Eh    -25.14 kcal/mol
-----------------------------------------------------------------------
Final Gibbs free enthalpy         ...   -327.06373509 Eh

For completeness - the Gibbs free enthalpy minus the electronic energy
G-E(el)                           ...      0.14490831 Eh     90.93 kcal/mol

                             ****ORCA TERMINATED NORMALLY****
TOTAL RUN TIME: 0 days 0 hours 57 minutes 25 seconds 725 msec
