                         Program Version 3.0.3 - RELEASE   -
|  1> ! NORI PBE0 def2-TZVP UseSym TightOPT Freq TightSCF Grid3 FinalGrid5 XYZFile
|  2> % pal
|  3>     nprocs 8
|  4> end
|  5> %method
|  6>     SymThresh 5.0e-2
|  7> end
|  8> % geom
|  9>     MaxIter 10
| 10> end
| 11> % maxcore 2000
| 12> % output
| 13>     printlevel mini
| 14>     print[ P_Basis ] 0
| 15>     print[ P_SCFInfo ] 1
| 16>     print[ P_SCFIterInfo ] 1
| 17>     print[ P_OrbEn ] 0
| 18>     print[ P_Cartesian ] 0
| 19> end
| 20> % elprop
| 21>     Dipole false
| 22> end
| 23> *xyz 1 1
| 24>  C        0.9568227896    -0.0901943804     0.5281638631
| 25>  N        2.2711137851    -0.1235943787    -0.1479485077
| 26>  C        3.2448494892     0.9683792245     0.2541402137
| 27>  C        4.0706672563    -0.0398272496     1.0689580785
| 28>  C        3.2565611478    -1.1480314541     0.3813760550
| 29>  C        5.5600371642    -0.0520118823     0.7929866267
| 30>  O        6.3813693738    -0.0217289925     1.6532073649
| 31>  H        0.4024443486     0.7813398152     0.1804324948
| 32>  H        1.1155971521    -0.0260992962     1.6039802918
| 33>  H        0.4112482195    -1.0022369569     0.2860883969
| 34>  H        2.1238099152    -0.1847565716    -1.1546686988
| 35>  H        2.7560527667     1.7817087672     0.7865834227
| 36>  H        3.7531968822     1.3489061798    -0.6327839033
| 37>  H        3.9079508510     0.0230488623     2.1441836678
| 38>  H        3.7689671885    -1.6286843760    -0.4530955026
| 39>  H        2.7767984400    -1.8959294179     1.0094904210
| 40>  H        5.8364732302    -0.0977878926    -0.2860142844
| 41> *
| 42>
| 43>                          ****END OF INPUT****
 Total Charge           Charge          ....    1
 Multiplicity           Mult            ....    1
 Number of Electrons    NEL             ....   54
FINAL SINGLE POINT ENERGY      -325.974527229339
FINAL SINGLE POINT ENERGY      -325.974524402426
FINAL SINGLE POINT ENERGY      -325.974529611139

CARTESIAN COORDINATES (ANGSTROEM)
---------------------------------
  C     -0.833777   -0.043815   -2.570557
  N      0.258761   -0.000034   -1.575247
  C      0.127543    1.064880   -0.502690
  C     -0.257674    0.000374    0.536778
  C      0.197298   -1.053799   -0.485633
  C      0.519189    0.033597    1.836830
  O     -0.001424    0.004784    2.906457
  H     -0.778821    0.846845   -3.195582
  H     -1.787474   -0.071601   -2.045245
  H     -0.719688   -0.938134   -3.182272
  H      1.152327    0.025484   -2.064415
  H     -0.610366    1.821434   -0.760278
  H      1.098993    1.529496   -0.328468
  H     -1.323197   -0.033717    0.759023
  H      1.196850   -1.451487   -0.304811
  H     -0.489836   -1.860778   -0.730081
  H      1.625821    0.085647    1.720954

FINAL SINGLE POINT ENERGY      -325.974529856489
                    ***********************HURRAY********************
 Multiplicity           Mult            ....    1
 Number of Electrons    NEL             ....   54
 Basis Dimension        Dim             ....  277
FINAL SINGLE POINT ENERGY      -325.974530164792

VIBRATIONAL FREQUENCIES
-----------------------

   0:         0.00 cm**-1
   1:         0.00 cm**-1
   2:         0.00 cm**-1
   3:         0.00 cm**-1
   4:         0.00 cm**-1
   5:         0.00 cm**-1
   6:        58.55 cm**-1
   7:        59.99 cm**-1
   8:       250.08 cm**-1
   9:       264.88 cm**-1
  10:       277.27 cm**-1
  11:       377.37 cm**-1
  12:       382.33 cm**-1
  13:       485.24 cm**-1
  14:       736.31 cm**-1
  15:       807.71 cm**-1
  16:       832.81 cm**-1
  17:       914.17 cm**-1
  18:       919.41 cm**-1
  19:       946.07 cm**-1
  20:      1001.90 cm**-1
  21:      1059.09 cm**-1
  22:      1085.58 cm**-1
  23:      1113.12 cm**-1
  24:      1114.70 cm**-1
  25:      1175.35 cm**-1
  26:      1225.46 cm**-1
  27:      1274.49 cm**-1
  28:      1293.90 cm**-1
  29:      1294.77 cm**-1
  30:      1307.51 cm**-1
  31:      1341.82 cm**-1
  32:      1360.26 cm**-1
  33:      1411.41 cm**-1
  34:      1428.89 cm**-1
  35:      1454.74 cm**-1
  36:      1473.56 cm**-1
  37:      1488.66 cm**-1
  38:      1491.93 cm**-1
  39:      1500.40 cm**-1
  40:      1871.64 cm**-1
  41:      2888.71 cm**-1
  42:      3080.81 cm**-1
  43:      3104.57 cm**-1
  44:      3107.73 cm**-1
  45:      3142.42 cm**-1
  46:      3180.46 cm**-1
  47:      3182.44 cm**-1
  48:      3184.68 cm**-1
  49:      3185.63 cm**-1
  50:      3486.76 cm**-1

IR SPECTRUM
-----------

 Mode    freq (cm**-1)   T**2         TX         TY         TZ
-------------------------------------------------------------------
   6:        58.55    5.212402  ( -0.377956   2.251566   0.000010)
   7:        59.99    2.055605  (  1.324823   0.536513   0.112261)
   8:       250.08    0.051170  ( -0.036053   0.223281   0.003980)
   9:       264.88    0.200155  (  0.051695  -0.444369   0.004340)
  10:       277.27    2.358144  ( -1.508831  -0.078154   0.274706)
  11:       377.37    4.363876  ( -1.359474  -0.044322  -1.585478)
  12:       382.33    0.125585  ( -0.046439  -0.341837  -0.081094)
  13:       485.24    2.706829  ( -0.590749  -0.025790  -1.535311)
  14:       736.31   15.768341  (  2.262883   0.104386   3.261412)
  15:       807.71   12.070778  ( -3.133259  -0.122761  -1.496127)
  16:       832.81    1.823108  ( -0.042946   1.349314   0.024803)
  17:       914.17    6.013485  ( -0.128242   2.445477  -0.129163)
  18:       919.41   13.043696  (  1.347702   0.157183   3.347042)
  19:       946.07    0.938405  (  0.044284  -0.964181   0.082456)
  20:      1001.90   39.036718  (  1.156079   0.089041   6.139403)
  21:      1059.09    6.661101  ( -0.113343   2.577847  -0.054407)
  22:      1085.58    8.415796  (  0.925001   0.048672   2.749145)
  23:      1113.12    4.050362  (  0.097269  -2.010160   0.012480)
  24:      1114.70    1.350969  (  0.988023   0.141631   0.595583)
  25:      1175.35   24.440245  (  2.706434   0.139193   4.134741)
  26:      1225.46    0.506823  (  0.020975  -0.711606  -0.000587)
  27:      1274.49    8.786382  ( -0.097937   2.962565  -0.000856)
  28:      1293.90    2.468356  (  0.161882  -1.518734   0.368234)
  29:      1294.77    2.455484  ( -0.510330  -0.372753  -1.433912)
  30:      1307.51    0.951274  (  0.957482   0.026971   0.183781)
  31:      1341.82   13.203129  ( -0.113424   3.631839  -0.002660)
  32:      1360.26    4.637839  ( -1.394994  -0.039936  -1.640194)
  33:      1411.41    6.415244  (  0.733909   0.052252   2.423611)
  34:      1428.89   13.076358  ( -2.536815  -0.103164  -2.574934)
  35:      1454.74    5.945772  ( -2.429812  -0.072504  -0.191122)
  36:      1473.56   33.391319  (  0.182889  -5.775476   0.041794)
  37:      1488.66    7.585736  (  0.097526  -2.752436   0.017872)
  38:      1491.93    5.683611  ( -1.428422  -0.033886   1.908421)
  39:      1500.40   22.241180  ( -2.050810  -0.046586   4.246550)
  40:      1871.64  195.569089  ( -3.727488  -0.148295  13.477868)
  41:      2888.71   59.212452  (  7.622601   0.350499  -0.992755)
  42:      3080.81    0.072111  ( -0.129702  -0.002159   0.235126)
  43:      3104.57    0.487945  ( -0.037602   0.697383   0.013696)
  44:      3107.73    1.498605  ( -0.698624  -0.039177   1.004488)
  45:      3142.42    0.075301  ( -0.195074  -0.005527   0.192917)
  46:      3180.46    0.194079  (  0.000902   0.440543  -0.000573)
  47:      3182.44    0.040760  ( -0.192059   0.023522  -0.057617)
  48:      3184.68    0.173657  ( -0.167688   0.378382  -0.048627)
  49:      3185.63    0.905122  (  0.910751   0.099415   0.256460)
  50:      3486.76   59.627755  ( -6.669009  -0.188213   3.888014)

--------------------------
THERMOCHEMISTRY AT 298.15K
--------------------------

Temperature         ... 298.15 K
Pressure            ... 1.00 atm
Total Mass          ... 100.14 AMU

Throughout the following assumptions are being made:
  (1) The electronic state is orbitally nondegenerate
  (2) There are no thermally accessible electronically excited states
  (3) Hindered rotations indicated by low frequency modes) are not
      treated as such but are treated as vibrations and this may
      case some error
  (4) All equations used are the standard statistical mechanics
      equations for an ideal gas
  (5) All vibrations are strinctly harmonic

------------
INNER ENERGY
------------

The inner energy is: U= E(el) + E(ZPE) + E(vib) + E(rot) + E(trans)
    E(el)   - is the total energy from the electronic structure calculation
              = E(kin-el) + E(nuc-el) + E(el-el) + E(nuc-nuc)
    E(ZPE)  - the the zero temperature vibrational energy from the frequency calculation
    E(vib)  - the the finite temperature correction to E(ZPE) due to population
              of excietd vibrational states
    E(rot)  - is the rotational thermal energy
    E(trans)- is the translational thermal energy

Summary of contributions to the inner energy U:
Electronic energy                ...   -325.97453016 Eh
Zero point energy                ...      0.15178424 Eh      95.25 kcal/mol
Thermal vibrational correction   ...      0.00459725 Eh       2.88 kcal/mol
Thermal rotational correction    ...      0.00141627 Eh       0.89 kcal/mol
Thermal translational correction ...      0.00141627 Eh       0.89 kcal/mol
-----------------------------------------------------------------------
Total thermal energy                   -325.81531613 Eh

Summary of corrections to the electronic energy:
(perhaps to be used in another calculation)
Total thermal correction                  0.00742979 Eh       4.66 kcal/mol
Non-thermal (ZPE) correction              0.15178424 Eh      95.25 kcal/mol
-----------------------------------------------------------------------
Total correction                          0.15921403 Eh      99.91 kcal/mol

--------
ENTHALPY
--------

The enthalpy is H = U + kB*T
                kB is Boltzmann's constant
Total free energy                 ...   -325.81531613 Eh
Thermal Enthalpy correction       ...      0.00094421 Eh       0.59 kcal/mol
-----------------------------------------------------------------------
Total Enthalpy                    ...   -325.81437193 Eh

-------
ENTROPY
-------

The entropy contributions are T*S = T*(S(el)+S(vib)+S(rot)+S(trans)
     S(el)   - electronic entropy
     S(vib)  - vibrational entropy
     S(rot)  - rotational entropy
     S(trans)- translational entropy
The entropies will be listed as mutliplied by the temperature to get
units of energy

Electronic entropy                ...      0.00000000 Eh      0.00 kcal/mol
Vibrational entropy               ...      0.00872582 Eh      5.48 kcal/mol
Rotational entropy                ...      0.01201003 Eh      7.54 kcal/mol
Translational entropy             ...      0.01887324 Eh     11.84 kcal/mol
-----------------------------------------------------------------------
Final entropy term                ...      0.03960909 Eh     24.86 kcal/mol

CAUTION: The rotational entropy is not quite correctly treated here
         because it includes a symmetry number that is not yet correctly
         implemented in ORCA!
For a nonlinear molecule the correct rotational entropy is:
    S(rot) = R*(ln(qrot/sn)+1.5)
    R    = 8.31441 J/mol/K = 1.987191683e-3 kcal/mol/K
    qrot = 223835.0118254
    sn is the rotational symmetry number. We have assumed 3 here
       if it is different for your molecule then you should correct
       the printed rotational entropy by manually evaluating the equation
       as given above

For convenience we print out the resulting values for sn=1 - 12:
 sn= 1  qrot/sn=  223835.0118 T*S(rot)=     8.19 kcal/mol T*S(tot)=    25.51 kcal/mol
 sn= 2  qrot/sn=  111917.5059 T*S(rot)=     7.78 kcal/mol T*S(tot)=    25.10 kcal/mol
 sn= 3  qrot/sn=   74611.6706 T*S(rot)=     7.54 kcal/mol T*S(tot)=    24.86 kcal/mol
 sn= 4  qrot/sn=   55958.7530 T*S(rot)=     7.37 kcal/mol T*S(tot)=    24.68 kcal/mol
 sn= 5  qrot/sn=   44767.0024 T*S(rot)=     7.23 kcal/mol T*S(tot)=    24.55 kcal/mol
 sn= 6  qrot/sn=   37305.8353 T*S(rot)=     7.13 kcal/mol T*S(tot)=    24.44 kcal/mol
 sn= 7  qrot/sn=   31976.4303 T*S(rot)=     7.03 kcal/mol T*S(tot)=    24.35 kcal/mol
 sn= 8  qrot/sn=   27979.3765 T*S(rot)=     6.96 kcal/mol T*S(tot)=    24.27 kcal/mol
 sn= 9  qrot/sn=   24870.5569 T*S(rot)=     6.89 kcal/mol T*S(tot)=    24.20 kcal/mol
 sn=10  qrot/sn=   22383.5012 T*S(rot)=     6.82 kcal/mol T*S(tot)=    24.14 kcal/mol
 sn=11  qrot/sn=   20348.6374 T*S(rot)=     6.77 kcal/mol T*S(tot)=    24.09 kcal/mol
 sn=12  qrot/sn=   18652.9177 T*S(rot)=     6.72 kcal/mol T*S(tot)=    24.03 kcal/mol

-------------------
GIBBS FREE ENTHALPY
-------------------

The Gibbs free enthalpy is G = H - T*S

Total enthalpy                    ...   -325.81437193 Eh
Total entropy correction          ...     -0.03960909 Eh    -24.86 kcal/mol
-----------------------------------------------------------------------
Final Gibbs free enthalpy         ...   -325.85398102 Eh

For completeness - the Gibbs free enthalpy minus the electronic energy
G-E(el)                           ...      0.12054915 Eh     75.65 kcal/mol

                             ****ORCA TERMINATED NORMALLY****
TOTAL RUN TIME: 0 days 0 hours 48 minutes 28 seconds 241 msec
