                         Program Version 3.0.3 - RELEASE   -
|  1> ! NORI PBE0 def2-TZVP UseSym TightOPT Freq TightSCF Grid3 FinalGrid5 XYZFile
|  2> % pal
|  3>     nprocs 8
|  4> end
|  5> %method
|  6>     SymThresh 5.0e-2
|  7> end
|  8> % geom
|  9>     MaxIter 10
| 10> end
| 11> % maxcore 2000
| 12> % output
| 13>     printlevel mini
| 14>     print[ P_Basis ] 0
| 15>     print[ P_SCFInfo ] 1
| 16>     print[ P_SCFIterInfo ] 1
| 17>     print[ P_OrbEn ] 0
| 18>     print[ P_Cartesian ] 0
| 19> end
| 20> % elprop
| 21>     Dipole false
| 22> end
| 23> *xyz 1 1
| 24>  C        1.2552919484     0.5171175314    -0.4477815548
| 25>  N        2.5651078660     0.2949018414     0.1943599505
| 26>  C        2.7601147729     0.6669061297     1.6521876099
| 27>  C        3.5780953600    -0.6092884586     1.8626968384
| 28>  C        3.0000029237    -1.1209697616     0.5275039489
| 29>  C        3.9622326607    -1.7557352780    -0.4539472508
| 30>  O        4.0713315551    -2.9365647682    -0.5431531363
| 31>  H        1.2680789136     0.0817478976    -1.4462683691
| 32>  H        1.0680237363     1.5887177541    -0.5104035745
| 33>  H        0.4853441793     0.0395168967     0.1555153995
| 34>  H        3.2928084853     0.7424727727    -0.3678945980
| 35>  H        1.7873675109     0.6543510051     2.1411911513
| 36>  H        3.2372790247     1.6359538370     1.7835076600
| 37>  H        4.6546263504    -0.4381522972     1.8193189269
| 38>  H        3.3440278149    -1.2084853014     2.7380910807
| 39>  H        2.1131958106    -1.7429543578     0.6505114787
| 40>  H        4.5925310871    -1.0518354432    -1.0458755613
| 41> *
| 42>
| 43>                          ****END OF INPUT****
 Total Charge           Charge          ....    1
 Multiplicity           Mult            ....    1
 Number of Electrons    NEL             ....   54
FINAL SINGLE POINT ENERGY      -325.974184287740
FINAL SINGLE POINT ENERGY      -325.974184512725
FINAL SINGLE POINT ENERGY      -325.974185719943

CARTESIAN COORDINATES (ANGSTROEM)
---------------------------------
  C      1.382420   -1.117565   -1.450175
  N      0.552439   -0.000007   -0.961100
  C     -0.714263    0.377970   -1.705777
  C     -1.428500    0.595624   -0.369913
  C     -0.277205   -0.184164    0.297293
  C      0.317503    0.395651    1.563029
  O     -0.007564    0.005280    2.638153
  H      2.174916   -1.317557   -0.729117
  H      1.815072   -0.844293   -2.412254
  H      0.752221   -1.998254   -1.562569
  H      1.140320    0.829836   -0.853455
  H     -1.061663   -0.495640   -2.255326
  H     -0.575152    1.219421   -2.381749
  H     -1.459080    1.643351   -0.067970
  H     -2.417863    0.160806   -0.261155
  H     -0.490621   -1.245382    0.426351
  H      1.033712    1.238772    1.426423

FINAL SINGLE POINT ENERGY      -325.974186282041
                    ***********************HURRAY********************
 Multiplicity           Mult            ....    1
 Number of Electrons    NEL             ....   54
 Basis Dimension        Dim             ....  277
FINAL SINGLE POINT ENERGY      -325.974187387671

VIBRATIONAL FREQUENCIES
-----------------------

   0:         0.00 cm**-1
   1:         0.00 cm**-1
   2:         0.00 cm**-1
   3:         0.00 cm**-1
   4:         0.00 cm**-1
   5:         0.00 cm**-1
   6:        48.31 cm**-1
   7:       104.91 cm**-1
   8:       192.11 cm**-1
   9:       233.68 cm**-1
  10:       244.85 cm**-1
  11:       329.38 cm**-1
  12:       454.66 cm**-1
  13:       480.92 cm**-1
  14:       641.22 cm**-1
  15:       788.34 cm**-1
  16:       853.25 cm**-1
  17:       911.25 cm**-1
  18:       921.34 cm**-1
  19:       985.73 cm**-1
  20:       991.17 cm**-1
  21:      1048.63 cm**-1
  22:      1084.97 cm**-1
  23:      1109.34 cm**-1
  24:      1119.60 cm**-1
  25:      1179.86 cm**-1
  26:      1225.65 cm**-1
  27:      1232.71 cm**-1
  28:      1263.97 cm**-1
  29:      1290.47 cm**-1
  30:      1308.39 cm**-1
  31:      1332.45 cm**-1
  32:      1364.62 cm**-1
  33:      1411.84 cm**-1
  34:      1434.37 cm**-1
  35:      1456.47 cm**-1
  36:      1485.15 cm**-1
  37:      1487.38 cm**-1
  38:      1494.45 cm**-1
  39:      1506.05 cm**-1
  40:      1872.97 cm**-1
  41:      2879.65 cm**-1
  42:      3082.19 cm**-1
  43:      3108.90 cm**-1
  44:      3119.16 cm**-1
  45:      3139.20 cm**-1
  46:      3179.57 cm**-1
  47:      3184.96 cm**-1
  48:      3186.37 cm**-1
  49:      3194.54 cm**-1
  50:      3439.57 cm**-1

IR SPECTRUM
-----------

 Mode    freq (cm**-1)   T**2         TX         TY         TZ
-------------------------------------------------------------------
   6:        48.31    9.928884  ( -2.399764   2.021075   0.292015)
   7:       104.91    0.299214  ( -0.378616  -0.357044   0.168472)
   8:       192.11    3.666149  (  1.073181   1.525342  -0.433318)
   9:       233.68    0.989731  ( -0.437297  -0.868095   0.211930)
  10:       244.85    5.112827  ( -1.645111  -1.539852  -0.187862)
  11:       329.38    0.208353  (  0.404207   0.004707  -0.212010)
  12:       454.66    1.716573  ( -1.110103  -0.643847   0.264020)
  13:       480.92    5.881095  ( -1.263459  -0.607005  -1.978967)
  14:       641.22    9.706771  (  1.196350   2.381316   1.613956)
  15:       788.34    0.766349  ( -0.209215   0.717274  -0.456176)
  16:       853.25   25.239592  (  1.728228   0.786343   4.651289)
  17:       911.25   11.594113  ( -1.736916   0.666565  -2.851829)
  18:       921.34    1.887253  (  0.893127   0.992552  -0.323140)
  19:       985.73   13.347137  (  2.985169  -0.681018  -1.993017)
  20:       991.17    4.537344  ( -0.951144   0.320448  -1.878825)
  21:      1048.63    8.004623  (  1.686675  -0.044254   2.271078)
  22:      1084.97   34.838717  ( -0.378511   2.559358   5.305199)
  23:      1109.34    4.215678  (  1.267228  -1.294183   0.966903)
  24:      1119.60   10.033912  (  2.683268  -1.629965  -0.420949)
  25:      1179.86    4.884979  (  1.982359   0.893273   0.396603)
  26:      1225.65    0.274541  ( -0.216629  -0.071441   0.471709)
  27:      1232.71    1.046119  ( -0.251323  -0.256951  -0.957566)
  28:      1263.97   15.350234  ( -1.205885   0.570484  -3.683833)
  29:      1290.47    1.216205  ( -0.109118  -0.500327  -0.976715)
  30:      1308.39    6.045589  ( -0.153824  -1.924786   1.522211)
  31:      1332.45    2.575209  (  1.489724   0.582487   0.128995)
  32:      1364.62   17.961251  ( -0.318521   1.738164  -3.852088)
  33:      1411.84    4.734053  ( -0.593459  -0.094404  -2.091159)
  34:      1434.37   15.396487  (  3.072879  -1.792852  -1.655169)
  35:      1456.47    5.594784  ( -1.110713   2.061304   0.334849)
  36:      1485.15   21.479942  ( -3.837889   0.831886   2.461405)
  37:      1487.38   17.997762  ( -0.579823   1.305254  -3.994731)
  38:      1494.45   22.539972  ( -3.730976  -2.719843  -1.105550)
  39:      1506.05    3.986465  ( -0.515177  -0.211261  -1.917401)
  40:      1872.97  153.865073  ( -1.528607  -3.076633  11.919008)
  41:      2879.65   55.225860  ( -5.060425  -5.131532   1.812550)
  42:      3082.19    0.055282  (  0.205488   0.009971  -0.113830)
  43:      3108.90    0.759460  ( -0.280043  -0.822583   0.066284)
  44:      3119.16    1.027650  (  0.146025  -0.292313  -0.959625)
  45:      3139.20    0.898739  (  0.548042   0.763295  -0.125581)
  46:      3179.57    0.278617  (  0.171133  -0.235375   0.440374)
  47:      3184.96    0.554774  ( -0.265232  -0.321199   0.617460)
  48:      3186.37    0.044112  ( -0.052646   0.101511   0.176170)
  49:      3194.54    1.138051  (  0.810585   0.546303   0.427266)
  50:      3439.57   44.342566  ( -4.397167  -4.843162  -1.245500)

--------------------------
THERMOCHEMISTRY AT 298.15K
--------------------------

Temperature         ... 298.15 K
Pressure            ... 1.00 atm
Total Mass          ... 100.14 AMU

Throughout the following assumptions are being made:
  (1) The electronic state is orbitally nondegenerate
  (2) There are no thermally accessible electronically excited states
  (3) Hindered rotations indicated by low frequency modes) are not
      treated as such but are treated as vibrations and this may
      case some error
  (4) All equations used are the standard statistical mechanics
      equations for an ideal gas
  (5) All vibrations are strinctly harmonic

------------
INNER ENERGY
------------

The inner energy is: U= E(el) + E(ZPE) + E(vib) + E(rot) + E(trans)
    E(el)   - is the total energy from the electronic structure calculation
              = E(kin-el) + E(nuc-el) + E(el-el) + E(nuc-nuc)
    E(ZPE)  - the the zero temperature vibrational energy from the frequency calculation
    E(vib)  - the the finite temperature correction to E(ZPE) due to population
              of excietd vibrational states
    E(rot)  - is the rotational thermal energy
    E(trans)- is the translational thermal energy

Summary of contributions to the inner energy U:
Electronic energy                ...   -325.97418739 Eh
Zero point energy                ...      0.15128071 Eh      94.93 kcal/mol
Thermal vibrational correction   ...      0.00473384 Eh       2.97 kcal/mol
Thermal rotational correction    ...      0.00141627 Eh       0.89 kcal/mol
Thermal translational correction ...      0.00141627 Eh       0.89 kcal/mol
-----------------------------------------------------------------------
Total thermal energy                   -325.81534029 Eh

Summary of corrections to the electronic energy:
(perhaps to be used in another calculation)
Total thermal correction                  0.00756638 Eh       4.75 kcal/mol
Non-thermal (ZPE) correction              0.15128071 Eh      94.93 kcal/mol
-----------------------------------------------------------------------
Total correction                          0.15884710 Eh      99.68 kcal/mol

--------
ENTHALPY
--------

The enthalpy is H = U + kB*T
                kB is Boltzmann's constant
Total free energy                 ...   -325.81534029 Eh
Thermal Enthalpy correction       ...      0.00094421 Eh       0.59 kcal/mol
-----------------------------------------------------------------------
Total Enthalpy                    ...   -325.81439608 Eh

-------
ENTROPY
-------

The entropy contributions are T*S = T*(S(el)+S(vib)+S(rot)+S(trans)
     S(el)   - electronic entropy
     S(vib)  - vibrational entropy
     S(rot)  - rotational entropy
     S(trans)- translational entropy
The entropies will be listed as mutliplied by the temperature to get
units of energy

Electronic entropy                ...      0.00000000 Eh      0.00 kcal/mol
Vibrational entropy               ...      0.00886559 Eh      5.56 kcal/mol
Rotational entropy                ...      0.01209302 Eh      7.59 kcal/mol
Translational entropy             ...      0.01887324 Eh     11.84 kcal/mol
-----------------------------------------------------------------------
Final entropy term                ...      0.03983184 Eh     24.99 kcal/mol

CAUTION: The rotational entropy is not quite correctly treated here
         because it includes a symmetry number that is not yet correctly
         implemented in ORCA!
For a nonlinear molecule the correct rotational entropy is:
    S(rot) = R*(ln(qrot/sn)+1.5)
    R    = 8.31441 J/mol/K = 1.987191683e-3 kcal/mol/K
    qrot = 244399.3136397
    sn is the rotational symmetry number. We have assumed 3 here
       if it is different for your molecule then you should correct
       the printed rotational entropy by manually evaluating the equation
       as given above

For convenience we print out the resulting values for sn=1 - 12:
 sn= 1  qrot/sn=  244399.3136 T*S(rot)=     8.24 kcal/mol T*S(tot)=    25.65 kcal/mol
 sn= 2  qrot/sn=  122199.6568 T*S(rot)=     7.83 kcal/mol T*S(tot)=    25.24 kcal/mol
 sn= 3  qrot/sn=   81466.4379 T*S(rot)=     7.59 kcal/mol T*S(tot)=    24.99 kcal/mol
 sn= 4  qrot/sn=   61099.8284 T*S(rot)=     7.42 kcal/mol T*S(tot)=    24.82 kcal/mol
 sn= 5  qrot/sn=   48879.8627 T*S(rot)=     7.29 kcal/mol T*S(tot)=    24.69 kcal/mol
 sn= 6  qrot/sn=   40733.2189 T*S(rot)=     7.18 kcal/mol T*S(tot)=    24.58 kcal/mol
 sn= 7  qrot/sn=   34914.1877 T*S(rot)=     7.09 kcal/mol T*S(tot)=    24.49 kcal/mol
 sn= 8  qrot/sn=   30549.9142 T*S(rot)=     7.01 kcal/mol T*S(tot)=    24.41 kcal/mol
 sn= 9  qrot/sn=   27155.4793 T*S(rot)=     6.94 kcal/mol T*S(tot)=    24.34 kcal/mol
 sn=10  qrot/sn=   24439.9314 T*S(rot)=     6.88 kcal/mol T*S(tot)=    24.28 kcal/mol
 sn=11  qrot/sn=   22218.1194 T*S(rot)=     6.82 kcal/mol T*S(tot)=    24.23 kcal/mol
 sn=12  qrot/sn=   20366.6095 T*S(rot)=     6.77 kcal/mol T*S(tot)=    24.17 kcal/mol

-------------------
GIBBS FREE ENTHALPY
-------------------

The Gibbs free enthalpy is G = H - T*S

Total enthalpy                    ...   -325.81439608 Eh
Total entropy correction          ...     -0.03983184 Eh    -24.99 kcal/mol
-----------------------------------------------------------------------
Final Gibbs free enthalpy         ...   -325.85422792 Eh

For completeness - the Gibbs free enthalpy minus the electronic energy
G-E(el)                           ...      0.11995946 Eh     75.28 kcal/mol

                             ****ORCA TERMINATED NORMALLY****
TOTAL RUN TIME: 0 days 0 hours 49 minutes 31 seconds 177 msec
