                         Program Version 3.0.3 - RELEASE   -
|  1> ! NORI PBE0 def2-TZVP UseSym TightOPT Freq TightSCF Grid3 FinalGrid5 XYZFile
|  2> % pal
|  3>     nprocs 8
|  4> end
|  5> %method
|  6>     SymThresh 5.0e-2
|  7> end
|  8> % geom
|  9>     MaxIter 10
| 10> end
| 11> % maxcore 2000
| 12> % output
| 13>     printlevel mini
| 14>     print[ P_Basis ] 0
| 15>     print[ P_SCFInfo ] 1
| 16>     print[ P_SCFIterInfo ] 1
| 17>     print[ P_OrbEn ] 0
| 18>     print[ P_Cartesian ] 0
| 19> end
| 20> % elprop
| 21>     Dipole false
| 22> end
| 23> *xyz 1 1
| 24>  C        1.1068775054     0.0251575297     0.6099745382
| 25>  N        2.4319871930    -0.0012507006    -0.0444778967
| 26>  C        3.4214947929     1.0682251852     0.3806414744
| 27>  C        4.3260898404    -0.0043247694     1.0455131960
| 28>  C        4.3255968992     0.0218090713     2.5543530873
| 29>  O        5.6506649802    -0.0262551427     0.6453287445
| 30>  C        3.3967376317    -1.0778939849     0.4177801043
| 31>  H        0.5726927128     0.9208016640     0.2936464987
| 32>  H        1.2467073869     0.0383234845     1.6891175709
| 33>  H        0.5493211346    -0.8648594725     0.3189347273
| 34>  H        2.2905575542    -0.0170597924    -1.0523428028
| 35>  H        2.9571429071     1.8136654041     1.0248798634
| 36>  H        3.8594222688     1.5482073817    -0.4939204454
| 37>  H        4.8618012022     0.9051768956     2.9049067065
| 38>  H        4.8387557684    -0.8624281769     2.9357254029
| 39>  H        3.3142671259     0.0422561007     2.9659807213
| 40>  H        5.7431136561    -0.0520051117    -0.3124065137
| 41>  H        3.8230499784    -1.5978901946    -0.4395969638
| 42>  H        2.9151994618    -1.7896453712     1.0869719868
| 43> *
| 44>
| 45>                          ****END OF INPUT****
 Total Charge           Charge          ....    1
 Multiplicity           Mult            ....    1
 Number of Electrons    NEL             ....   56
FINAL SINGLE POINT ENERGY      -327.201381666666
FINAL SINGLE POINT ENERGY      -327.201383548051

CARTESIAN COORDINATES (ANGSTROEM)
---------------------------------
  C     -2.406894    0.344921   -0.000000
  N     -1.040286    0.909565    0.000000
  C     -0.094703    0.401937    1.073150
  C      0.774725   -0.307967    0.000000
  C      0.667094   -1.813345    0.000000
  O      2.124555   -0.002284   -0.000000
  C     -0.094703    0.401937   -1.073150
  H     -2.930798    0.684472    0.892552
  H     -2.340754   -0.741157   -0.000000
  H     -2.930798    0.684472   -0.892553
  H     -1.113031    1.924653    0.000000
  H     -0.609930   -0.219267    1.803925
  H      0.396371    1.237759    1.570890
  H      1.164352   -2.215043    0.883919
  H      1.164352   -2.215043   -0.883920
  H     -0.370997   -2.150937    0.000000
  H      2.283936    0.946753   -0.000000
  H      0.396371    1.237759   -1.570890
  H     -0.609930   -0.219267   -1.803925

FINAL SINGLE POINT ENERGY      -327.201384375856
                    ***********************HURRAY********************
 Multiplicity           Mult            ....    1
 Number of Electrons    NEL             ....   56
 Basis Dimension        Dim             ....  289
FINAL SINGLE POINT ENERGY      -327.201384955076

VIBRATIONAL FREQUENCIES
-----------------------

   0:         0.00 cm**-1
   1:         0.00 cm**-1
   2:         0.00 cm**-1
   3:         0.00 cm**-1
   4:         0.00 cm**-1
   5:         0.00 cm**-1
   6:        71.76 cm**-1
   7:       232.27 cm**-1
   8:       237.72 cm**-1
   9:       255.11 cm**-1
  10:       330.14 cm**-1
  11:       336.86 cm**-1
  12:       358.05 cm**-1
  13:       373.94 cm**-1
  14:       456.08 cm**-1
  15:       457.91 cm**-1
  16:       652.30 cm**-1
  17:       786.44 cm**-1
  18:       851.43 cm**-1
  19:       866.43 cm**-1
  20:       911.27 cm**-1
  21:       934.32 cm**-1
  22:       942.04 cm**-1
  23:       997.62 cm**-1
  24:      1033.89 cm**-1
  25:      1090.00 cm**-1
  26:      1100.94 cm**-1
  27:      1137.77 cm**-1
  28:      1170.12 cm**-1
  29:      1212.53 cm**-1
  30:      1263.87 cm**-1
  31:      1269.73 cm**-1
  32:      1283.64 cm**-1
  33:      1330.38 cm**-1
  34:      1350.25 cm**-1
  35:      1389.90 cm**-1
  36:      1428.35 cm**-1
  37:      1431.39 cm**-1
  38:      1452.95 cm**-1
  39:      1465.60 cm**-1
  40:      1472.40 cm**-1
  41:      1488.30 cm**-1
  42:      1490.66 cm**-1
  43:      1492.76 cm**-1
  44:      1499.70 cm**-1
  45:      3067.82 cm**-1
  46:      3085.99 cm**-1
  47:      3107.53 cm**-1
  48:      3111.34 cm**-1
  49:      3150.09 cm**-1
  50:      3159.15 cm**-1
  51:      3181.20 cm**-1
  52:      3182.87 cm**-1
  53:      3184.63 cm**-1
  54:      3191.50 cm**-1
  55:      3502.64 cm**-1
  56:      3840.62 cm**-1

IR SPECTRUM
-----------

 Mode    freq (cm**-1)   T**2         TX         TY         TZ
-------------------------------------------------------------------
   6:        71.76    0.730779  ( -0.722618  -0.456731   0.000071)
   7:       232.27    1.255897  ( -0.000007  -0.000061  -1.120668)
   8:       237.72    2.214632  ( -0.000053  -0.000057  -1.488164)
   9:       255.11    1.478129  (  0.000001   0.000071   1.215783)
  10:       330.14    0.116797  (  0.340254   0.031984  -0.001114)
  11:       336.86  109.829660  (  0.000031  -0.000025  10.479965)
  12:       358.05    1.178356  (  0.000020   0.000057  -1.085521)
  13:       373.94    2.873895  (  0.275519   1.672718   0.000109)
  14:       456.08    6.197316  (  1.891315   1.618717   0.000126)
  15:       457.91    0.615093  (  0.000253   0.000233  -0.784279)
  16:       652.30    6.720804  ( -2.498369  -0.692067  -0.000022)
  17:       786.44    0.465608  ( -0.192630   0.654600   0.000007)
  18:       851.43    0.143059  (  0.000016  -0.000020  -0.378232)
  19:       866.43    2.287387  (  0.667034  -1.357369  -0.000003)
  20:       911.27    6.712241  ( -0.000017  -0.000012   2.590799)
  21:       934.32    9.284408  ( -0.000040   0.000001  -3.047033)
  22:       942.04    0.299891  ( -0.019993   0.547258  -0.000135)
  23:       997.62    8.132394  ( -2.658391  -1.032160   0.000069)
  24:      1033.89   62.040097  ( -7.876493  -0.030809   0.000012)
  25:      1090.00    1.999716  (  0.000056   0.000038   1.414113)
  26:      1100.94    1.712310  (  0.978778   0.868506  -0.000104)
  27:      1137.77   27.708535  ( -4.651076  -2.464961   0.000039)
  28:      1170.12   10.518094  ( -0.000096  -0.000052  -3.243161)
  29:      1212.53    0.159982  (  0.000104  -0.000016  -0.399978)
  30:      1263.87  109.980746  (-10.380691  -1.490636   0.000025)
  31:      1269.73   11.723140  ( -0.000196  -0.000045  -3.423907)
  32:      1283.64    3.855759  ( -1.904238  -0.479205  -0.000007)
  33:      1330.38    8.523857  (  0.000057  -0.000026   2.919565)
  34:      1350.25   33.057395  ( -5.622026   1.204251   0.000001)
  35:      1389.90   32.118306  (  5.619774  -0.732424   0.000047)
  36:      1428.35   20.200086  (  0.351534   4.480682   0.000082)
  37:      1431.39   28.867892  ( -5.327245   0.698825  -0.000032)
  38:      1452.95    4.037491  ( -0.934674  -1.778729   0.000298)
  39:      1465.60   23.523932  (  0.000075   0.000078  -4.850148)
  40:      1472.40   11.811208  (  0.000020  -0.000191  -3.436744)
  41:      1488.30    3.969088  ( -1.381976   1.435002   0.000598)
  42:      1490.66    9.617115  (  0.000142  -0.000451  -3.101147)
  43:      1492.76    4.166034  ( -1.845442  -0.871996   0.000169)
  44:      1499.70   22.195135  (  3.027959  -3.609238   0.000532)
  45:      3067.82    4.177303  ( -1.934266  -0.660241  -0.000006)
  46:      3085.99    0.261495  (  0.415077   0.298674   0.000002)
  47:      3107.53    0.488887  (  0.000001   0.000016   0.699205)
  48:      3111.34    0.485362  ( -0.390103  -0.577219  -0.000000)
  49:      3150.09    8.187934  (  2.858543  -0.129087  -0.000045)
  50:      3159.15    0.846026  (  0.000024   0.000030  -0.919797)
  51:      3181.20    0.249788  (  0.000020  -0.000012   0.499788)
  52:      3182.87    0.213379  ( -0.457033   0.067082   0.000019)
  53:      3184.63    0.000593  ( -0.000004  -0.000011   0.024343)
  54:      3191.50    0.021109  ( -0.040536  -0.139521   0.000000)
  55:      3502.64   65.757210  ( -1.239267   8.013827  -0.000000)
  56:      3840.62   45.284365  (  4.499074   5.004268   0.000000)

--------------------------
THERMOCHEMISTRY AT 298.15K
--------------------------

Temperature         ... 298.15 K
Pressure            ... 1.00 atm
Total Mass          ... 102.16 AMU

Throughout the following assumptions are being made:
  (1) The electronic state is orbitally nondegenerate
  (2) There are no thermally accessible electronically excited states
  (3) Hindered rotations indicated by low frequency modes) are not
      treated as such but are treated as vibrations and this may
      case some error
  (4) All equations used are the standard statistical mechanics
      equations for an ideal gas
  (5) All vibrations are strinctly harmonic

------------
INNER ENERGY
------------

The inner energy is: U= E(el) + E(ZPE) + E(vib) + E(rot) + E(trans)
    E(el)   - is the total energy from the electronic structure calculation
              = E(kin-el) + E(nuc-el) + E(el-el) + E(nuc-nuc)
    E(ZPE)  - the the zero temperature vibrational energy from the frequency calculation
    E(vib)  - the the finite temperature correction to E(ZPE) due to population
              of excietd vibrational states
    E(rot)  - is the rotational thermal energy
    E(trans)- is the translational thermal energy

Summary of contributions to the inner energy U:
Electronic energy                ...   -327.20138496 Eh
Zero point energy                ...      0.17467211 Eh     109.61 kcal/mol
Thermal vibrational correction   ...      0.00502784 Eh       3.16 kcal/mol
Thermal rotational correction    ...      0.00141627 Eh       0.89 kcal/mol
Thermal translational correction ...      0.00141627 Eh       0.89 kcal/mol
-----------------------------------------------------------------------
Total thermal energy                   -327.01885246 Eh

Summary of corrections to the electronic energy:
(perhaps to be used in another calculation)
Total thermal correction                  0.00786038 Eh       4.93 kcal/mol
Non-thermal (ZPE) correction              0.17467211 Eh     109.61 kcal/mol
-----------------------------------------------------------------------
Total correction                          0.18253249 Eh     114.54 kcal/mol

--------
ENTHALPY
--------

The enthalpy is H = U + kB*T
                kB is Boltzmann's constant
Total free energy                 ...   -327.01885246 Eh
Thermal Enthalpy correction       ...      0.00094421 Eh       0.59 kcal/mol
-----------------------------------------------------------------------
Total Enthalpy                    ...   -327.01790825 Eh

-------
ENTROPY
-------

The entropy contributions are T*S = T*(S(el)+S(vib)+S(rot)+S(trans)
     S(el)   - electronic entropy
     S(vib)  - vibrational entropy
     S(rot)  - rotational entropy
     S(trans)- translational entropy
The entropies will be listed as mutliplied by the temperature to get
units of energy

Electronic entropy                ...      0.00000000 Eh      0.00 kcal/mol
Vibrational entropy               ...      0.00841991 Eh      5.28 kcal/mol
Rotational entropy                ...      0.01197710 Eh      7.52 kcal/mol
Translational entropy             ...      0.01890147 Eh     11.86 kcal/mol
-----------------------------------------------------------------------
Final entropy term                ...      0.03929847 Eh     24.66 kcal/mol

CAUTION: The rotational entropy is not quite correctly treated here
         because it includes a symmetry number that is not yet correctly
         implemented in ORCA!
For a nonlinear molecule the correct rotational entropy is:
    S(rot) = R*(ln(qrot/sn)+1.5)
    R    = 8.31441 J/mol/K = 1.987191683e-3 kcal/mol/K
    qrot = 216162.0494680
    sn is the rotational symmetry number. We have assumed 3 here
       if it is different for your molecule then you should correct
       the printed rotational entropy by manually evaluating the equation
       as given above

For convenience we print out the resulting values for sn=1 - 12:
 sn= 1  qrot/sn=  216162.0495 T*S(rot)=     8.17 kcal/mol T*S(tot)=    25.31 kcal/mol
 sn= 2  qrot/sn=  108081.0247 T*S(rot)=     7.76 kcal/mol T*S(tot)=    24.90 kcal/mol
 sn= 3  qrot/sn=   72054.0165 T*S(rot)=     7.52 kcal/mol T*S(tot)=    24.66 kcal/mol
 sn= 4  qrot/sn=   54040.5124 T*S(rot)=     7.35 kcal/mol T*S(tot)=    24.49 kcal/mol
 sn= 5  qrot/sn=   43232.4099 T*S(rot)=     7.21 kcal/mol T*S(tot)=    24.36 kcal/mol
 sn= 6  qrot/sn=   36027.0082 T*S(rot)=     7.11 kcal/mol T*S(tot)=    24.25 kcal/mol
 sn= 7  qrot/sn=   30880.2928 T*S(rot)=     7.01 kcal/mol T*S(tot)=    24.16 kcal/mol
 sn= 8  qrot/sn=   27020.2562 T*S(rot)=     6.93 kcal/mol T*S(tot)=    24.08 kcal/mol
 sn= 9  qrot/sn=   24018.0055 T*S(rot)=     6.86 kcal/mol T*S(tot)=    24.01 kcal/mol
 sn=10  qrot/sn=   21616.2049 T*S(rot)=     6.80 kcal/mol T*S(tot)=    23.95 kcal/mol
 sn=11  qrot/sn=   19651.0954 T*S(rot)=     6.75 kcal/mol T*S(tot)=    23.89 kcal/mol
 sn=12  qrot/sn=   18013.5041 T*S(rot)=     6.69 kcal/mol T*S(tot)=    23.84 kcal/mol

-------------------
GIBBS FREE ENTHALPY
-------------------

The Gibbs free enthalpy is G = H - T*S

Total enthalpy                    ...   -327.01790825 Eh
Total entropy correction          ...     -0.03929847 Eh    -24.66 kcal/mol
-----------------------------------------------------------------------
Final Gibbs free enthalpy         ...   -327.05720673 Eh

For completeness - the Gibbs free enthalpy minus the electronic energy
G-E(el)                           ...      0.14417823 Eh     90.47 kcal/mol

                             ****ORCA TERMINATED NORMALLY****
TOTAL RUN TIME: 0 days 0 hours 58 minutes 43 seconds 266 msec
