                         Program Version 3.0.3 - RELEASE   -
|  1> ! NORI PBE0 def2-TZVP UseSym TightOPT Freq TightSCF Grid3 FinalGrid5 XYZFile
|  2> % pal
|  3>     nprocs 8
|  4> end
|  5> %method
|  6>     SymThresh 5.0e-2
|  7> end
|  8> % geom
|  9>     MaxIter 10
| 10> end
| 11> % maxcore 2000
| 12> % output
| 13>     printlevel mini
| 14>     print[ P_Basis ] 0
| 15>     print[ P_SCFInfo ] 1
| 16>     print[ P_SCFIterInfo ] 1
| 17>     print[ P_OrbEn ] 0
| 18>     print[ P_Cartesian ] 0
| 19> end
| 20> % elprop
| 21>     Dipole false
| 22> end
| 23> *xyz 1 1
| 24>  C        1.2351549537    -0.3357991844     0.8547152086
| 25>  N        2.1968356908     0.2218143053    -0.1179029657
| 26>  C        3.1728457905     1.2607244722     0.4039424620
| 27>  C        4.3656850024     0.3534343357     0.0566604932
| 28>  C        5.1698123268    -0.1311061757     1.2397772050
| 29>  O        4.2586008631    -0.6699243561     2.1737971984
| 30>  C        3.3637583504    -0.6657350681    -0.5125479571
| 31>  H        0.6968965664    -1.1591649517     0.3861892108
| 32>  H        0.5367863102     0.4472277497     1.1483445883
| 33>  H        1.7963733239    -0.6893996730     1.7177008073
| 34>  H        1.6891037148     0.5593751431    -0.9327984159
| 35>  H        3.0063840949     1.4315957898     1.4653335604
| 36>  H        3.0874458033     2.1900875123    -0.1547701284
| 37>  H        5.0312864889     0.7769282525    -0.6945895674
| 38>  H        5.7315346531     0.7095064200     1.6652053976
| 39>  H        5.8926805740    -0.8846018337     0.9034917749
| 40>  H        4.7321296697    -0.9863666517     2.9476938340
| 41>  H        3.3858057538    -0.8247031583    -1.5887887313
| 42>  H        3.3088800694    -1.6139129280     0.0172860254
| 43> *
| 44>
| 45>                          ****END OF INPUT****
 Total Charge           Charge          ....    1
 Multiplicity           Mult            ....    1
 Number of Electrons    NEL             ....   56
FINAL SINGLE POINT ENERGY      -327.207755642729

CARTESIAN COORDINATES (ANGSTROEM)
---------------------------------
  C     -0.702205   -2.069832   -0.000000
  N     -1.245705   -0.696355    0.000000
  C     -0.725030    0.245223    1.070982
  C     -0.146425    1.185817   -0.000000
  C      1.358812    1.308667    0.000000
  O      1.886654   -0.000859    0.000000
  C     -0.725030    0.245223   -1.070982
  H     -1.051778   -2.587617   -0.892640
  H     -1.051778   -2.587617    0.892640
  H      0.384019   -2.001058   -0.000000
  H     -2.262457   -0.740068    0.000000
  H      0.007913   -0.263906    1.693113
  H     -1.540591    0.636098    1.675790
  H     -0.598486    2.176841   -0.000000
  H      1.676915    1.870156    0.886928
  H      1.676915    1.870156   -0.886928
  H      2.846932    0.033718    0.000000
  H     -1.540591    0.636098   -1.675790
  H      0.007913   -0.263906   -1.693113

FINAL SINGLE POINT ENERGY      -327.207756069847
                    ***********************HURRAY********************
 Multiplicity           Mult            ....    1
 Number of Electrons    NEL             ....   56
 Basis Dimension        Dim             ....  289
FINAL SINGLE POINT ENERGY      -327.207756243298

VIBRATIONAL FREQUENCIES
-----------------------

   0:         0.00 cm**-1
   1:         0.00 cm**-1
   2:         0.00 cm**-1
   3:         0.00 cm**-1
   4:         0.00 cm**-1
   5:         0.00 cm**-1
   6:        74.63 cm**-1
   7:       134.69 cm**-1
   8:       239.35 cm**-1
   9:       255.82 cm**-1
  10:       299.04 cm**-1
  11:       342.72 cm**-1
  12:       350.70 cm**-1
  13:       405.73 cm**-1
  14:       567.55 cm**-1
  15:       687.92 cm**-1
  16:       814.80 cm**-1
  17:       818.45 cm**-1
  18:       897.81 cm**-1
  19:       916.97 cm**-1
  20:       941.07 cm**-1
  21:      1008.99 cm**-1
  22:      1053.84 cm**-1
  23:      1069.63 cm**-1
  24:      1082.20 cm**-1
  25:      1123.51 cm**-1
  26:      1138.93 cm**-1
  27:      1162.40 cm**-1
  28:      1219.77 cm**-1
  29:      1237.98 cm**-1
  30:      1244.59 cm**-1
  31:      1298.91 cm**-1
  32:      1301.58 cm**-1
  33:      1311.64 cm**-1
  34:      1339.45 cm**-1
  35:      1344.23 cm**-1
  36:      1398.36 cm**-1
  37:      1426.10 cm**-1
  38:      1447.52 cm**-1
  39:      1451.75 cm**-1
  40:      1469.09 cm**-1
  41:      1492.24 cm**-1
  42:      1495.08 cm**-1
  43:      1499.73 cm**-1
  44:      1512.41 cm**-1
  45:      3027.19 cm**-1
  46:      3069.33 cm**-1
  47:      3081.71 cm**-1
  48:      3121.07 cm**-1
  49:      3124.12 cm**-1
  50:      3136.41 cm**-1
  51:      3178.70 cm**-1
  52:      3190.47 cm**-1
  53:      3194.63 cm**-1
  54:      3195.51 cm**-1
  55:      3503.57 cm**-1
  56:      3870.69 cm**-1

IR SPECTRUM
-----------

 Mode    freq (cm**-1)   T**2         TX         TY         TZ
-------------------------------------------------------------------
   6:        74.63    1.512946  (  1.097580   0.555216   0.000004)
   7:       134.69    4.565168  ( -0.000004   0.000002  -2.136625)
   8:       239.35   10.450490  (  3.125755  -0.824708   0.000027)
   9:       255.82    3.610176  (  0.000093  -0.000015  -1.900046)
  10:       299.04  102.804858  (  0.000011   0.000001  10.139273)
  11:       342.72    6.126627  (  0.000002   0.000002   2.475202)
  12:       350.70    9.523931  ( -0.000011  -0.000006   3.086087)
  13:       405.73    1.690914  (  0.878107   0.959084   0.000005)
  14:       567.55    9.168608  (  1.712719  -2.497039  -0.000001)
  15:       687.92    2.570874  ( -1.486694   0.600512   0.000003)
  16:       814.80    0.991230  ( -0.000000   0.000004  -0.995605)
  17:       818.45    3.764768  (  0.017492  -1.940222   0.000004)
  18:       897.81    2.927380  (  1.531863  -0.762088  -0.000013)
  19:       916.97    4.367013  ( -0.000003   0.000008  -2.089740)
  20:       941.07    8.020362  ( -0.000002   0.000007  -2.832024)
  21:      1008.99   46.263641  ( -1.901264   6.530608   0.000004)
  22:      1053.84    2.891463  ( -1.537253  -0.726853  -0.000003)
  23:      1069.63   13.604961  (  3.683216  -0.197174   0.000004)
  24:      1082.20    2.866466  (  0.000002   0.000005  -1.693064)
  25:      1123.51   10.663606  ( -1.886627   2.665379   0.000000)
  26:      1138.93    0.083939  (  0.000007  -0.000006  -0.289722)
  27:      1162.40   32.163648  (  1.413949  -5.492212   0.000000)
  28:      1219.77    0.400701  (  0.000013  -0.000023   0.633010)
  29:      1237.98   60.655934  ( -1.419118   7.657809   0.000001)
  30:      1244.59    1.942296  ( -0.000001   0.000011   1.393663)
  31:      1298.91    5.973460  (  0.000000   0.000000   2.444066)
  32:      1301.58    0.669118  (  0.363767   0.732660  -0.000002)
  33:      1311.64    3.146829  (  0.000000   0.000000   1.773930)
  34:      1339.45    1.948283  (  0.249456   1.373337  -0.000010)
  35:      1344.23   15.820568  (  0.000002   0.000007   3.977508)
  36:      1398.36    7.552195  ( -0.948559   2.579231  -0.000003)
  37:      1426.10   12.008543  (  1.323807  -3.202511   0.000008)
  38:      1447.52    3.934667  (  1.824905   0.777425   0.000000)
  39:      1451.75    2.238582  (  0.218900  -1.480089  -0.000005)
  40:      1469.09   28.817699  ( -0.000000  -0.000002  -5.368212)
  41:      1492.24    4.386181  ( -1.947238   0.771003  -0.000020)
  42:      1495.08   19.606618  (  2.701074   3.508677   0.000024)
  43:      1499.73   10.021807  (  0.000014   0.000005  -3.165724)
  44:      1512.41    4.886914  (  1.977964   0.987205  -0.000001)
  45:      3027.19   26.313248  (  1.010587   5.029111  -0.000000)
  46:      3069.33   14.940262  ( -0.000000   0.000000   3.865263)
  47:      3081.71    2.543466  ( -0.996111  -1.245483   0.000014)
  48:      3121.07    2.097598  (  0.000000  -0.000000  -1.448309)
  49:      3124.12    1.679911  ( -1.275801  -0.228565  -0.000001)
  50:      3136.41    1.666259  (  0.162103  -1.280618   0.000000)
  51:      3178.70    0.036168  (  0.000002  -0.000010   0.190178)
  52:      3190.47    2.149996  ( -1.316876  -0.644851  -0.000011)
  53:      3194.63    0.167677  ( -0.000000   0.000001   0.409483)
  54:      3195.51    0.509594  (  0.713781  -0.010549   0.000002)
  55:      3503.57   63.009683  ( -7.869022  -1.043157  -0.000000)
  56:      3870.69  102.461154  ( -9.968981   1.755156  -0.000000)

--------------------------
THERMOCHEMISTRY AT 298.15K
--------------------------

Temperature         ... 298.15 K
Pressure            ... 1.00 atm
Total Mass          ... 102.16 AMU

Throughout the following assumptions are being made:
  (1) The electronic state is orbitally nondegenerate
  (2) There are no thermally accessible electronically excited states
  (3) Hindered rotations indicated by low frequency modes) are not
      treated as such but are treated as vibrations and this may
      case some error
  (4) All equations used are the standard statistical mechanics
      equations for an ideal gas
  (5) All vibrations are strinctly harmonic

------------
INNER ENERGY
------------

The inner energy is: U= E(el) + E(ZPE) + E(vib) + E(rot) + E(trans)
    E(el)   - is the total energy from the electronic structure calculation
              = E(kin-el) + E(nuc-el) + E(el-el) + E(nuc-nuc)
    E(ZPE)  - the the zero temperature vibrational energy from the frequency calculation
    E(vib)  - the the finite temperature correction to E(ZPE) due to population
              of excietd vibrational states
    E(rot)  - is the rotational thermal energy
    E(trans)- is the translational thermal energy

Summary of contributions to the inner energy U:
Electronic energy                ...   -327.20775624 Eh
Zero point energy                ...      0.17671873 Eh     110.89 kcal/mol
Thermal vibrational correction   ...      0.00481638 Eh       3.02 kcal/mol
Thermal rotational correction    ...      0.00141627 Eh       0.89 kcal/mol
Thermal translational correction ...      0.00141627 Eh       0.89 kcal/mol
-----------------------------------------------------------------------
Total thermal energy                   -327.02338859 Eh

Summary of corrections to the electronic energy:
(perhaps to be used in another calculation)
Total thermal correction                  0.00764893 Eh       4.80 kcal/mol
Non-thermal (ZPE) correction              0.17671873 Eh     110.89 kcal/mol
-----------------------------------------------------------------------
Total correction                          0.18436765 Eh     115.69 kcal/mol

--------
ENTHALPY
--------

The enthalpy is H = U + kB*T
                kB is Boltzmann's constant
Total free energy                 ...   -327.02338859 Eh
Thermal Enthalpy correction       ...      0.00094421 Eh       0.59 kcal/mol
-----------------------------------------------------------------------
Total Enthalpy                    ...   -327.02244438 Eh

-------
ENTROPY
-------

The entropy contributions are T*S = T*(S(el)+S(vib)+S(rot)+S(trans)
     S(el)   - electronic entropy
     S(vib)  - vibrational entropy
     S(rot)  - rotational entropy
     S(trans)- translational entropy
The entropies will be listed as mutliplied by the temperature to get
units of energy

Electronic entropy                ...      0.00000000 Eh      0.00 kcal/mol
Vibrational entropy               ...      0.00834221 Eh      5.23 kcal/mol
Rotational entropy                ...      0.01197597 Eh      7.52 kcal/mol
Translational entropy             ...      0.01890147 Eh     11.86 kcal/mol
-----------------------------------------------------------------------
Final entropy term                ...      0.03921965 Eh     24.61 kcal/mol

CAUTION: The rotational entropy is not quite correctly treated here
         because it includes a symmetry number that is not yet correctly
         implemented in ORCA!
For a nonlinear molecule the correct rotational entropy is:
    S(rot) = R*(ln(qrot/sn)+1.5)
    R    = 8.31441 J/mol/K = 1.987191683e-3 kcal/mol/K
    qrot = 215904.9696899
    sn is the rotational symmetry number. We have assumed 3 here
       if it is different for your molecule then you should correct
       the printed rotational entropy by manually evaluating the equation
       as given above

For convenience we print out the resulting values for sn=1 - 12:
 sn= 1  qrot/sn=  215904.9697 T*S(rot)=     8.17 kcal/mol T*S(tot)=    25.26 kcal/mol
 sn= 2  qrot/sn=  107952.4848 T*S(rot)=     7.76 kcal/mol T*S(tot)=    24.85 kcal/mol
 sn= 3  qrot/sn=   71968.3232 T*S(rot)=     7.52 kcal/mol T*S(tot)=    24.61 kcal/mol
 sn= 4  qrot/sn=   53976.2424 T*S(rot)=     7.34 kcal/mol T*S(tot)=    24.44 kcal/mol
 sn= 5  qrot/sn=   43180.9939 T*S(rot)=     7.21 kcal/mol T*S(tot)=    24.31 kcal/mol
 sn= 6  qrot/sn=   35984.1616 T*S(rot)=     7.10 kcal/mol T*S(tot)=    24.20 kcal/mol
 sn= 7  qrot/sn=   30843.5671 T*S(rot)=     7.01 kcal/mol T*S(tot)=    24.11 kcal/mol
 sn= 8  qrot/sn=   26988.1212 T*S(rot)=     6.93 kcal/mol T*S(tot)=    24.03 kcal/mol
 sn= 9  qrot/sn=   23989.4411 T*S(rot)=     6.86 kcal/mol T*S(tot)=    23.96 kcal/mol
 sn=10  qrot/sn=   21590.4970 T*S(rot)=     6.80 kcal/mol T*S(tot)=    23.90 kcal/mol
 sn=11  qrot/sn=   19627.7245 T*S(rot)=     6.75 kcal/mol T*S(tot)=    23.84 kcal/mol
 sn=12  qrot/sn=   17992.0808 T*S(rot)=     6.69 kcal/mol T*S(tot)=    23.79 kcal/mol

-------------------
GIBBS FREE ENTHALPY
-------------------

The Gibbs free enthalpy is G = H - T*S

Total enthalpy                    ...   -327.02244438 Eh
Total entropy correction          ...     -0.03921965 Eh    -24.61 kcal/mol
-----------------------------------------------------------------------
Final Gibbs free enthalpy         ...   -327.06166403 Eh

For completeness - the Gibbs free enthalpy minus the electronic energy
G-E(el)                           ...      0.14609222 Eh     91.67 kcal/mol

                             ****ORCA TERMINATED NORMALLY****
TOTAL RUN TIME: 0 days 0 hours 55 minutes 11 seconds 961 msec
