                         Program Version 3.0.3 - RELEASE   -
|  1> ! NORI PBE0 def2-TZVP UseSym TightOPT Freq TightSCF Grid3 FinalGrid5 XYZFile
|  2> % pal
|  3>     nprocs 8
|  4> end
|  5> %method
|  6>     SymThresh 5.0e-2
|  7> end
|  8> % geom
|  9>     MaxIter 10
| 10> end
| 11> % maxcore 2000
| 12> % output
| 13>     printlevel mini
| 14>     print[ P_Basis ] 0
| 15>     print[ P_SCFInfo ] 1
| 16>     print[ P_SCFIterInfo ] 1
| 17>     print[ P_OrbEn ] 0
| 18>     print[ P_Cartesian ] 0
| 19> end
| 20> % elprop
| 21>     Dipole false
| 22> end
| 23> *xyz 1 1
| 24>  C        0.9686645943    -0.0471088738     0.0212375905
| 25>  N        2.4426593761    -0.0775577035     0.1874073089
| 26>  C        2.9908297425     1.0688581706     1.0108734073
| 27>  C        4.3900592158     0.6286436925     1.3836072601
| 28>  C        4.3099683628    -0.8876707003     1.4426045215
| 29>  O        5.1092862079    -1.6426293623     1.8903971673
| 30>  C        2.9786214303    -1.3181294220     0.8189050146
| 31>  H        0.6610084219    -0.8849155372    -0.6027218704
| 32>  H        0.6844551645     0.8933219945    -0.4496791997
| 33>  H        0.5067562598    -0.1248167101     1.0040196419
| 34>  H        2.8586950333    -0.0026320444    -0.7428091109
| 35>  H        2.3405395920     1.1580440974     1.8820703259
| 36>  H        2.9247155077     1.9833247617     0.4233256361
| 37>  H        4.7313413007     1.0334821105     2.3361069575
| 38>  H        5.1320168663     0.9080562673     0.6277669727
| 39>  H        3.0894920282    -2.1190972484     0.0891713848
| 40>  H        2.2895808959    -1.6372734924     1.6046969919
| 41> *
| 42>
| 43>                          ****END OF INPUT****
 Total Charge           Charge          ....    1
 Multiplicity           Mult            ....    1
 Number of Electrons    NEL             ....   54
FINAL SINGLE POINT ENERGY      -326.014445017402
FINAL SINGLE POINT ENERGY      -326.014446145190

CARTESIAN COORDINATES (ANGSTROEM)
---------------------------------
  C      0.739043   -0.857440   -2.245110
  N      0.482496    0.000672   -1.062109
  C     -0.948314    0.484273   -0.953119
  C     -1.073278    0.969646    0.475046
  C     -0.093667    0.110118    1.256900
  O     -0.001453   -0.002498    2.435001
  C      0.792397   -0.633384    0.252287
  H      1.791798   -1.134463   -2.264775
  H      0.480957   -0.303367   -3.146728
  H      0.120277   -1.749719   -2.165279
  H      1.072611    0.830077   -1.149512
  H     -1.580505   -0.383064   -1.150531
  H     -1.123531    1.233771   -1.723336
  H     -2.080387    0.870133    0.879563
  H     -0.780747    2.019170    0.586962
  H      1.853642   -0.563157    0.486488
  H      0.499978   -1.685368    0.210211

FINAL SINGLE POINT ENERGY      -326.014446828907
                    ***********************HURRAY********************
 Multiplicity           Mult            ....    1
 Number of Electrons    NEL             ....   54
 Basis Dimension        Dim             ....  277
FINAL SINGLE POINT ENERGY      -326.014446924351

VIBRATIONAL FREQUENCIES
-----------------------

   0:         0.00 cm**-1
   1:         0.00 cm**-1
   2:         0.00 cm**-1
   3:         0.00 cm**-1
   4:         0.00 cm**-1
   5:         0.00 cm**-1
   6:        92.05 cm**-1
   7:       164.81 cm**-1
   8:       240.04 cm**-1
   9:       294.69 cm**-1
  10:       420.29 cm**-1
  11:       463.40 cm**-1
  12:       488.94 cm**-1
  13:       541.20 cm**-1
  14:       597.22 cm**-1
  15:       742.32 cm**-1
  16:       813.23 cm**-1
  17:       853.67 cm**-1
  18:       912.78 cm**-1
  19:       969.71 cm**-1
  20:      1015.52 cm**-1
  21:      1040.37 cm**-1
  22:      1069.99 cm**-1
  23:      1093.89 cm**-1
  24:      1168.08 cm**-1
  25:      1176.72 cm**-1
  26:      1186.35 cm**-1
  27:      1247.01 cm**-1
  28:      1284.86 cm**-1
  29:      1320.15 cm**-1
  30:      1326.79 cm**-1
  31:      1375.73 cm**-1
  32:      1409.39 cm**-1
  33:      1432.53 cm**-1
  34:      1445.00 cm**-1
  35:      1449.29 cm**-1
  36:      1467.35 cm**-1
  37:      1488.42 cm**-1
  38:      1495.47 cm**-1
  39:      1505.38 cm**-1
  40:      1907.72 cm**-1
  41:      3072.70 cm**-1
  42:      3085.23 cm**-1
  43:      3095.91 cm**-1
  44:      3103.16 cm**-1
  45:      3151.05 cm**-1
  46:      3170.18 cm**-1
  47:      3171.51 cm**-1
  48:      3185.58 cm**-1
  49:      3188.85 cm**-1
  50:      3456.37 cm**-1

IR SPECTRUM
-----------

 Mode    freq (cm**-1)   T**2         TX         TY         TZ
-------------------------------------------------------------------
   6:        92.05    6.315176  ( -1.520073  -1.965427   0.376365)
   7:       164.81    0.079690  (  0.083817  -0.208372  -0.171016)
   8:       240.04    0.209633  ( -0.256807   0.340349  -0.166872)
   9:       294.69    2.577485  ( -1.266770   0.986133   0.017904)
  10:       420.29    0.879887  ( -0.671805   0.455933   0.469776)
  11:       463.40    1.276986  (  0.611350  -0.413661  -0.855641)
  12:       488.94    5.993549  ( -1.783727   1.610436   0.467292)
  13:       541.20    6.879865  ( -0.782473   0.222081  -2.493648)
  14:       597.22    3.172754  (  0.049356   0.842277  -1.568721)
  15:       742.32    3.893055  (  0.588254  -1.183071   1.465385)
  16:       813.23    5.065097  ( -0.672402   0.326450   2.122829)
  17:       853.67    1.452518  (  0.483791   0.887135  -0.656853)
  18:       912.78    6.288156  (  0.551388  -2.429344  -0.287080)
  19:       969.71    5.650348  ( -1.662570   1.018673  -1.359600)
  20:      1015.52    7.330191  (  2.538252  -0.872864   0.354366)
  21:      1040.37    3.428265  ( -0.852220   1.392597   0.873303)
  22:      1069.99    9.819727  (  1.123681  -2.140520  -1.993801)
  23:      1093.89   55.914462  ( -5.205421   3.650468   3.936006)
  24:      1168.08   38.030713  ( -4.601403   4.011263  -0.876114)
  25:      1176.72    1.273571  ( -0.423783  -0.241352   1.017707)
  26:      1186.35    3.831181  (  1.492347  -1.246805  -0.222622)
  27:      1247.01    1.838368  (  0.307767  -0.281796   1.290054)
  28:      1284.86   11.186211  ( -1.865339   2.422956  -1.354993)
  29:      1320.15    7.552061  (  1.606653  -1.200167  -1.878916)
  30:      1326.79    5.463111  (  2.269826  -0.188240   0.524943)
  31:      1375.73    0.231625  ( -0.456872  -0.065696  -0.136297)
  32:      1409.39   15.089475  ( -3.064066   2.316656  -0.577998)
  33:      1432.53   12.510727  (  0.219901  -1.053831  -3.369245)
  34:      1445.00   22.315965  ( -2.770908   3.743877   0.788299)
  35:      1449.29    1.961419  ( -1.150915   0.329808   0.726663)
  36:      1467.35   13.396115  ( -1.101197   2.917849   1.915630)
  37:      1488.42   18.168196  ( -3.717894   2.063127  -0.298271)
  38:      1495.47   30.072735  (  1.833174   2.829856  -4.324826)
  39:      1505.38   18.872962  ( -2.875339  -2.057369  -2.524405)
  40:      1907.72  227.616766  ( -1.083301   1.157483 -15.003448)
  41:      3072.70    5.550265  (  1.714402  -1.567198   0.393679)
  42:      3085.23    0.023983  (  0.015184   0.054020   0.144341)
  43:      3095.91    5.135881  (  1.331746  -1.715081  -0.648715)
  44:      3103.16    0.989964  ( -0.464572  -0.455402  -0.752825)
  45:      3151.05    5.448508  ( -2.238054  -0.136163   0.648908)
  46:      3170.18    0.116646  (  0.306939   0.149506   0.009094)
  47:      3171.51    3.307859  (  1.625472   0.782634   0.230614)
  48:      3185.58    0.348492  ( -0.382872   0.354924   0.275553)
  49:      3188.85    0.174949  ( -0.206339  -0.039009  -0.361734)
  50:      3456.37   58.301430  (  4.699852   5.827471  -1.501136)

--------------------------
THERMOCHEMISTRY AT 298.15K
--------------------------

Temperature         ... 298.15 K
Pressure            ... 1.00 atm
Total Mass          ... 100.14 AMU

Throughout the following assumptions are being made:
  (1) The electronic state is orbitally nondegenerate
  (2) There are no thermally accessible electronically excited states
  (3) Hindered rotations indicated by low frequency modes) are not
      treated as such but are treated as vibrations and this may
      case some error
  (4) All equations used are the standard statistical mechanics
      equations for an ideal gas
  (5) All vibrations are strinctly harmonic

------------
INNER ENERGY
------------

The inner energy is: U= E(el) + E(ZPE) + E(vib) + E(rot) + E(trans)
    E(el)   - is the total energy from the electronic structure calculation
              = E(kin-el) + E(nuc-el) + E(el-el) + E(nuc-nuc)
    E(ZPE)  - the the zero temperature vibrational energy from the frequency calculation
    E(vib)  - the the finite temperature correction to E(ZPE) due to population
              of excietd vibrational states
    E(rot)  - is the rotational thermal energy
    E(trans)- is the translational thermal energy

Summary of contributions to the inner energy U:
Electronic energy                ...   -326.01444692 Eh
Zero point energy                ...      0.15304932 Eh      96.04 kcal/mol
Thermal vibrational correction   ...      0.00403286 Eh       2.53 kcal/mol
Thermal rotational correction    ...      0.00141627 Eh       0.89 kcal/mol
Thermal translational correction ...      0.00141627 Eh       0.89 kcal/mol
-----------------------------------------------------------------------
Total thermal energy                   -325.85453220 Eh

Summary of corrections to the electronic energy:
(perhaps to be used in another calculation)
Total thermal correction                  0.00686541 Eh       4.31 kcal/mol
Non-thermal (ZPE) correction              0.15304932 Eh      96.04 kcal/mol
-----------------------------------------------------------------------
Total correction                          0.15991472 Eh     100.35 kcal/mol

--------
ENTHALPY
--------

The enthalpy is H = U + kB*T
                kB is Boltzmann's constant
Total free energy                 ...   -325.85453220 Eh
Thermal Enthalpy correction       ...      0.00094421 Eh       0.59 kcal/mol
-----------------------------------------------------------------------
Total Enthalpy                    ...   -325.85358799 Eh

-------
ENTROPY
-------

The entropy contributions are T*S = T*(S(el)+S(vib)+S(rot)+S(trans)
     S(el)   - electronic entropy
     S(vib)  - vibrational entropy
     S(rot)  - rotational entropy
     S(trans)- translational entropy
The entropies will be listed as mutliplied by the temperature to get
units of energy

Electronic entropy                ...      0.00000000 Eh      0.00 kcal/mol
Vibrational entropy               ...      0.00677438 Eh      4.25 kcal/mol
Rotational entropy                ...      0.01194597 Eh      7.50 kcal/mol
Translational entropy             ...      0.01887324 Eh     11.84 kcal/mol
-----------------------------------------------------------------------
Final entropy term                ...      0.03759359 Eh     23.59 kcal/mol

CAUTION: The rotational entropy is not quite correctly treated here
         because it includes a symmetry number that is not yet correctly
         implemented in ORCA!
For a nonlinear molecule the correct rotational entropy is:
    S(rot) = R*(ln(qrot/sn)+1.5)
    R    = 8.31441 J/mol/K = 1.987191683e-3 kcal/mol/K
    qrot = 209152.0222548
    sn is the rotational symmetry number. We have assumed 3 here
       if it is different for your molecule then you should correct
       the printed rotational entropy by manually evaluating the equation
       as given above

For convenience we print out the resulting values for sn=1 - 12:
 sn= 1  qrot/sn=  209152.0223 T*S(rot)=     8.15 kcal/mol T*S(tot)=    24.24 kcal/mol
 sn= 2  qrot/sn=  104576.0111 T*S(rot)=     7.74 kcal/mol T*S(tot)=    23.83 kcal/mol
 sn= 3  qrot/sn=   69717.3408 T*S(rot)=     7.50 kcal/mol T*S(tot)=    23.59 kcal/mol
 sn= 4  qrot/sn=   52288.0056 T*S(rot)=     7.33 kcal/mol T*S(tot)=    23.42 kcal/mol
 sn= 5  qrot/sn=   41830.4045 T*S(rot)=     7.19 kcal/mol T*S(tot)=    23.29 kcal/mol
 sn= 6  qrot/sn=   34858.6704 T*S(rot)=     7.09 kcal/mol T*S(tot)=    23.18 kcal/mol
 sn= 7  qrot/sn=   29878.8603 T*S(rot)=     6.99 kcal/mol T*S(tot)=    23.09 kcal/mol
 sn= 8  qrot/sn=   26144.0028 T*S(rot)=     6.92 kcal/mol T*S(tot)=    23.01 kcal/mol
 sn= 9  qrot/sn=   23239.1136 T*S(rot)=     6.85 kcal/mol T*S(tot)=    22.94 kcal/mol
 sn=10  qrot/sn=   20915.2022 T*S(rot)=     6.78 kcal/mol T*S(tot)=    22.88 kcal/mol
 sn=11  qrot/sn=   19013.8202 T*S(rot)=     6.73 kcal/mol T*S(tot)=    22.82 kcal/mol
 sn=12  qrot/sn=   17429.3352 T*S(rot)=     6.67 kcal/mol T*S(tot)=    22.77 kcal/mol

-------------------
GIBBS FREE ENTHALPY
-------------------

The Gibbs free enthalpy is G = H - T*S

Total enthalpy                    ...   -325.85358799 Eh
Total entropy correction          ...     -0.03759359 Eh    -23.59 kcal/mol
-----------------------------------------------------------------------
Final Gibbs free enthalpy         ...   -325.89118158 Eh

For completeness - the Gibbs free enthalpy minus the electronic energy
G-E(el)                           ...      0.12326534 Eh     77.35 kcal/mol

                             ****ORCA TERMINATED NORMALLY****
TOTAL RUN TIME: 0 days 0 hours 48 minutes 5 seconds 412 msec
