                         Program Version 3.0.3 - RELEASE   -
|  1> ! NORI PBE0 def2-TZVP UseSym TightOPT Freq TightSCF Grid3 FinalGrid5 XYZFile
|  2> % pal
|  3>     nprocs 8
|  4> end
|  5> %method
|  6>     SymThresh 5.0e-2
|  7> end
|  8> % geom
|  9>     MaxIter 10
| 10> end
| 11> % maxcore 2000
| 12> % output
| 13>     printlevel mini
| 14>     print[ P_Basis ] 0
| 15>     print[ P_SCFInfo ] 1
| 16>     print[ P_SCFIterInfo ] 1
| 17>     print[ P_OrbEn ] 0
| 18>     print[ P_Cartesian ] 0
| 19> end
| 20> % elprop
| 21>     Dipole false
| 22> end
| 23> *xyz 1 1
| 24>  C        1.6091466444     0.6656248479    -0.2595232559
| 25>  N        2.7951521904    -0.1823374313     0.0523561064
| 26>  C        3.1758444693    -0.1888155313     1.4811628985
| 27>  C        4.5873503855    -0.5046551657     1.8398414618
| 28>  C        4.0615788471     0.8953617136     1.9866431865
| 29>  C        3.8074859542     1.5092002249     3.3440025875
| 30>  O        4.9308190129     2.1898585895     3.8196930100
| 31>  H        1.4071322600     0.6166735127    -1.3281864731
| 32>  H        1.8308863715     1.6872511748     0.0410149003
| 33>  H        0.7572654342     0.2872495806     0.3014999313
| 34>  H        3.5942605114     0.1413361896    -0.4968344229
| 35>  H        2.6184794455    -1.1429561812    -0.2524448493
| 36>  H        2.3634425462    -0.5616434779     2.0937697917
| 37>  H        5.2969651648    -0.7038190514     1.0436511011
| 38>  H        4.7358104811    -1.1086803410     2.7272006925
| 39>  H        4.4273635837     1.6088438477     1.2512883057
| 40>  H        3.4608058752     0.7341911687     4.0421633157
| 41>  H        3.0107171252     2.2535508211     3.2631627270
| 42>  H        5.5796236972     1.5654955089     4.1555689853
| 43> *
| 44>
| 45>                          ****END OF INPUT****
 Total Charge           Charge          ....    1
 Multiplicity           Mult            ....    1
 Number of Electrons    NEL             ....   56
FINAL SINGLE POINT ENERGY      -327.190019601912
FINAL SINGLE POINT ENERGY      -327.190021845463
FINAL SINGLE POINT ENERGY      -327.190023671227

CARTESIAN COORDINATES (ANGSTROEM)
---------------------------------
  C      0.604679    1.440008   -2.338928
  N      0.405069   -0.000260   -2.009014
  C     -0.446921   -0.234205   -0.823233
  C     -0.294554   -1.513642   -0.075084
  C      0.189224   -0.222606    0.522631
  C     -0.518832    0.428183    1.688617
  O     -0.004892   -0.007612    2.911973
  H      1.245998    1.519687   -3.215016
  H      1.065921    1.926094   -1.482286
  H     -0.367126    1.884726   -2.542609
  H      1.314303   -0.439066   -1.849116
  H     -0.000046   -0.482680   -2.815185
  H     -1.430409    0.197739   -0.966115
  H      0.446191   -2.231003   -0.411096
  H     -1.205786   -1.961951    0.302959
  H      1.270062   -0.098714    0.549566
  H     -1.601896    0.259212    1.605436
  H     -0.356069    1.508745    1.655294
  H     -0.340022   -0.884248    3.119104

FINAL SINGLE POINT ENERGY      -327.190024141958
                    ***********************HURRAY********************
 Multiplicity           Mult            ....    1
 Number of Electrons    NEL             ....   56
 Basis Dimension        Dim             ....  289
FINAL SINGLE POINT ENERGY      -327.190024569165

VIBRATIONAL FREQUENCIES
-----------------------

   0:         0.00 cm**-1
   1:         0.00 cm**-1
   2:         0.00 cm**-1
   3:         0.00 cm**-1
   4:         0.00 cm**-1
   5:         0.00 cm**-1
   6:        71.38 cm**-1
   7:       107.92 cm**-1
   8:       146.30 cm**-1
   9:       183.27 cm**-1
  10:       236.29 cm**-1
  11:       264.69 cm**-1
  12:       350.39 cm**-1
  13:       382.88 cm**-1
  14:       421.84 cm**-1
  15:       488.55 cm**-1
  16:       784.48 cm**-1
  17:       832.06 cm**-1
  18:       861.76 cm**-1
  19:       870.69 cm**-1
  20:       964.51 cm**-1
  21:       977.24 cm**-1
  22:      1008.33 cm**-1
  23:      1053.06 cm**-1
  24:      1069.45 cm**-1
  25:      1093.69 cm**-1
  26:      1119.69 cm**-1
  27:      1124.36 cm**-1
  28:      1160.44 cm**-1
  29:      1183.68 cm**-1
  30:      1217.20 cm**-1
  31:      1233.69 cm**-1
  32:      1255.15 cm**-1
  33:      1326.35 cm**-1
  34:      1366.34 cm**-1
  35:      1397.32 cm**-1
  36:      1404.35 cm**-1
  37:      1420.59 cm**-1
  38:      1445.48 cm**-1
  39:      1459.36 cm**-1
  40:      1489.28 cm**-1
  41:      1491.15 cm**-1
  42:      1495.50 cm**-1
  43:      1510.04 cm**-1
  44:      1648.21 cm**-1
  45:      3010.92 cm**-1
  46:      3093.83 cm**-1
  47:      3095.61 cm**-1
  48:      3144.99 cm**-1
  49:      3150.09 cm**-1
  50:      3194.47 cm**-1
  51:      3198.42 cm**-1
  52:      3201.10 cm**-1
  53:      3236.58 cm**-1
  54:      3431.13 cm**-1
  55:      3481.57 cm**-1
  56:      3860.99 cm**-1

IR SPECTRUM
-----------

 Mode    freq (cm**-1)   T**2         TX         TY         TZ
-------------------------------------------------------------------
   6:        71.38    2.589337  ( -0.261134  -1.018533   1.218087)
   7:       107.92    4.298103  ( -1.202579   0.206190  -1.676124)
   8:       146.30    1.372306  (  0.463885  -1.062673  -0.166861)
   9:       183.27    1.189428  (  0.469762  -0.652031  -0.737297)
  10:       236.29    1.113685  ( -0.670819  -0.553113  -0.598125)
  11:       264.69  120.916621  ( -8.476187   3.250254   6.205379)
  12:       350.39   17.466519  ( -2.491163   0.359541   3.336369)
  13:       382.88    4.108892  ( -0.341990  -0.051875  -1.997309)
  14:       421.84    3.798718  (  0.027942   1.907540   0.399034)
  15:       488.55    2.389382  ( -1.383291  -0.019561   0.689569)
  16:       784.48   16.587424  (  2.289829  -0.499419   3.330869)
  17:       832.06    3.143840  ( -1.208187  -0.051972  -1.296697)
  18:       861.76   15.179511  (  2.108515  -3.253677   0.383750)
  19:       870.69    4.666963  (  0.114398  -0.128216   2.153471)
  20:       964.51   16.262338  (  2.969046   1.955327   1.903628)
  21:       977.24    1.314813  (  0.062091  -0.773257  -0.844412)
  22:      1008.33    2.451091  (  1.230999   0.958253  -0.132233)
  23:      1053.06    6.493118  (  0.210588  -2.394699   0.845096)
  24:      1069.45   61.913168  ( -0.092387   2.473950  -7.468882)
  25:      1093.69    2.500908  (  1.181943  -0.200649   1.031338)
  26:      1119.69   27.199600  (  0.060403  -2.007971   4.812900)
  27:      1124.36   92.546059  ( -2.777708   0.621562  -9.189345)
  28:      1160.44    1.981607  ( -1.252190  -0.001322   0.643136)
  29:      1183.68    3.653789  ( -0.901659  -1.355838   1.001251)
  30:      1217.20    0.325800  (  0.375788   0.214606  -0.372192)
  31:      1233.69   10.102623  (  1.587275  -1.340586   2.405413)
  32:      1255.15    5.298637  ( -1.893754  -0.560923  -1.182242)
  33:      1326.35    0.620754  (  0.357128   0.132479   0.689683)
  34:      1366.34    0.872708  ( -0.931594   0.045002  -0.053062)
  35:      1397.32   14.718032  ( -1.874367  -0.131275  -3.344779)
  36:      1404.35   42.798356  (  1.979560   4.212873  -4.596890)
  37:      1420.59   21.766585  (  2.642542   1.294162   3.620594)
  38:      1445.48   12.936999  (  0.216859  -1.033621  -3.438255)
  39:      1459.36    3.717188  (  0.984392   0.715282  -1.495504)
  40:      1489.28    8.899786  ( -2.090443   1.816797  -1.108640)
  41:      1491.15   17.946021  (  3.759205   0.480247   1.893082)
  42:      1495.50   24.606977  (  2.374358   0.083260  -4.354592)
  43:      1510.04   13.150227  ( -0.719868  -2.448821   2.575906)
  44:      1648.21   54.415945  ( -3.924120   5.106451   3.597413)
  45:      3010.92   31.730037  ( -4.969310   1.416509  -2.242655)
  46:      3093.83    0.027718  (  0.006698  -0.133753   0.098909)
  47:      3095.61   11.140857  ( -0.833144  -3.215826   0.324330)
  48:      3144.99    1.846343  (  1.057355   0.483115  -0.703522)
  49:      3150.09    3.538953  ( -0.940763  -0.316092   1.598125)
  50:      3194.47    0.160691  ( -0.159569   0.356374  -0.090700)
  51:      3198.42    0.457585  ( -0.491306   0.170821   0.432462)
  52:      3201.10    0.113384  ( -0.119880  -0.009975  -0.314505)
  53:      3236.58    0.134431  ( -0.335622   0.026898  -0.145140)
  54:      3431.13   45.568887  (  1.086492  -4.743658  -4.678261)
  55:      3481.57   65.304420  ( -7.057041   0.247762  -3.929530)
  56:      3860.99   55.863486  ( -1.408939  -5.502794   4.857740)

--------------------------
THERMOCHEMISTRY AT 298.15K
--------------------------

Temperature         ... 298.15 K
Pressure            ... 1.00 atm
Total Mass          ... 102.16 AMU

Throughout the following assumptions are being made:
  (1) The electronic state is orbitally nondegenerate
  (2) There are no thermally accessible electronically excited states
  (3) Hindered rotations indicated by low frequency modes) are not
      treated as such but are treated as vibrations and this may
      case some error
  (4) All equations used are the standard statistical mechanics
      equations for an ideal gas
  (5) All vibrations are strinctly harmonic

------------
INNER ENERGY
------------

The inner energy is: U= E(el) + E(ZPE) + E(vib) + E(rot) + E(trans)
    E(el)   - is the total energy from the electronic structure calculation
              = E(kin-el) + E(nuc-el) + E(el-el) + E(nuc-nuc)
    E(ZPE)  - the the zero temperature vibrational energy from the frequency calculation
    E(vib)  - the the finite temperature correction to E(ZPE) due to population
              of excietd vibrational states
    E(rot)  - is the rotational thermal energy
    E(trans)- is the translational thermal energy

Summary of contributions to the inner energy U:
Electronic energy                ...   -327.19002457 Eh
Zero point energy                ...      0.17545690 Eh     110.10 kcal/mol
Thermal vibrational correction   ...      0.00560768 Eh       3.52 kcal/mol
Thermal rotational correction    ...      0.00141627 Eh       0.89 kcal/mol
Thermal translational correction ...      0.00141627 Eh       0.89 kcal/mol
-----------------------------------------------------------------------
Total thermal energy                   -327.00612745 Eh

Summary of corrections to the electronic energy:
(perhaps to be used in another calculation)
Total thermal correction                  0.00844022 Eh       5.30 kcal/mol
Non-thermal (ZPE) correction              0.17545690 Eh     110.10 kcal/mol
-----------------------------------------------------------------------
Total correction                          0.18389712 Eh     115.40 kcal/mol

--------
ENTHALPY
--------

The enthalpy is H = U + kB*T
                kB is Boltzmann's constant
Total free energy                 ...   -327.00612745 Eh
Thermal Enthalpy correction       ...      0.00094421 Eh       0.59 kcal/mol
-----------------------------------------------------------------------
Total Enthalpy                    ...   -327.00518324 Eh

-------
ENTROPY
-------

The entropy contributions are T*S = T*(S(el)+S(vib)+S(rot)+S(trans)
     S(el)   - electronic entropy
     S(vib)  - vibrational entropy
     S(rot)  - rotational entropy
     S(trans)- translational entropy
The entropies will be listed as mutliplied by the temperature to get
units of energy

Electronic entropy                ...      0.00000000 Eh      0.00 kcal/mol
Vibrational entropy               ...      0.01016339 Eh      6.38 kcal/mol
Rotational entropy                ...      0.01228764 Eh      7.71 kcal/mol
Translational entropy             ...      0.01890147 Eh     11.86 kcal/mol
-----------------------------------------------------------------------
Final entropy term                ...      0.04135250 Eh     25.95 kcal/mol

CAUTION: The rotational entropy is not quite correctly treated here
         because it includes a symmetry number that is not yet correctly
         implemented in ORCA!
For a nonlinear molecule the correct rotational entropy is:
    S(rot) = R*(ln(qrot/sn)+1.5)
    R    = 8.31441 J/mol/K = 1.987191683e-3 kcal/mol/K
    qrot = 300343.1900151
    sn is the rotational symmetry number. We have assumed 3 here
       if it is different for your molecule then you should correct
       the printed rotational entropy by manually evaluating the equation
       as given above

For convenience we print out the resulting values for sn=1 - 12:
 sn= 1  qrot/sn=  300343.1900 T*S(rot)=     8.36 kcal/mol T*S(tot)=    26.60 kcal/mol
 sn= 2  qrot/sn=  150171.5950 T*S(rot)=     7.95 kcal/mol T*S(tot)=    26.19 kcal/mol
 sn= 3  qrot/sn=  100114.3967 T*S(rot)=     7.71 kcal/mol T*S(tot)=    25.95 kcal/mol
 sn= 4  qrot/sn=   75085.7975 T*S(rot)=     7.54 kcal/mol T*S(tot)=    25.78 kcal/mol
 sn= 5  qrot/sn=   60068.6380 T*S(rot)=     7.41 kcal/mol T*S(tot)=    25.65 kcal/mol
 sn= 6  qrot/sn=   50057.1983 T*S(rot)=     7.30 kcal/mol T*S(tot)=    25.54 kcal/mol
 sn= 7  qrot/sn=   42906.1700 T*S(rot)=     7.21 kcal/mol T*S(tot)=    25.45 kcal/mol
 sn= 8  qrot/sn=   37542.8988 T*S(rot)=     7.13 kcal/mol T*S(tot)=    25.37 kcal/mol
 sn= 9  qrot/sn=   33371.4656 T*S(rot)=     7.06 kcal/mol T*S(tot)=    25.30 kcal/mol
 sn=10  qrot/sn=   30034.3190 T*S(rot)=     7.00 kcal/mol T*S(tot)=    25.24 kcal/mol
 sn=11  qrot/sn=   27303.9264 T*S(rot)=     6.94 kcal/mol T*S(tot)=    25.18 kcal/mol
 sn=12  qrot/sn=   25028.5992 T*S(rot)=     6.89 kcal/mol T*S(tot)=    25.13 kcal/mol

-------------------
GIBBS FREE ENTHALPY
-------------------

The Gibbs free enthalpy is G = H - T*S

Total enthalpy                    ...   -327.00518324 Eh
Total entropy correction          ...     -0.04135250 Eh    -25.95 kcal/mol
-----------------------------------------------------------------------
Final Gibbs free enthalpy         ...   -327.04653574 Eh

For completeness - the Gibbs free enthalpy minus the electronic energy
G-E(el)                           ...      0.14348883 Eh     90.04 kcal/mol

                             ****ORCA TERMINATED NORMALLY****
TOTAL RUN TIME: 0 days 0 hours 51 minutes 35 seconds 938 msec
