                         Program Version 3.0.3 - RELEASE   -
|  1> ! NORI PBE0 def2-TZVP UseSym TightOPT Freq TightSCF Grid3 FinalGrid5 XYZFile
|  2> % pal
|  3>     nprocs 8
|  4> end
|  5> %method
|  6>     SymThresh 5.0e-2
|  7> end
|  8> % geom
|  9>     MaxIter 10
| 10> end
| 11> % maxcore 2000
| 12> % output
| 13>     printlevel mini
| 14>     print[ P_Basis ] 0
| 15>     print[ P_SCFInfo ] 1
| 16>     print[ P_SCFIterInfo ] 1
| 17>     print[ P_OrbEn ] 0
| 18>     print[ P_Cartesian ] 0
| 19> end
| 20> % elprop
| 21>     Dipole false
| 22> end
| 23> *xyz 1 1
| 24>  C        2.0060908308    -0.4594285173     0.5571017141
| 25>  N        2.6920791004     0.2326654486    -0.5716371932
| 26>  C        3.6066354489     1.3051184145    -0.1390107019
| 27>  C        4.1072887371     2.3112911538    -1.1272219762
| 28>  C        3.1300485130     2.7182259188    -0.0549636156
| 29>  C        1.7273824562     3.1051131157    -0.4395031578
| 30>  O        3.6228527231     3.3405853532     1.0771836231
| 31>  H        1.3318612315    -1.2142665565     0.1557005238
| 32>  H        1.4541943464     0.2835071292     1.1286831058
| 33>  H        2.7616593859    -0.9255644653     1.1861303923
| 34>  H        3.2103113225    -0.4504653757    -1.1293532978
| 35>  H        1.9867744866     0.6333160179    -1.1939745182
| 36>  H        4.2784381117     0.9623823877     0.6381678738
| 37>  H        3.7391210279     2.2720058057    -2.1471400812
| 38>  H        5.1462238303     2.5980219642    -1.0265299929
| 39>  H        1.3613539743     2.5835161463    -1.3297701996
| 40>  H        1.6993029397     4.1681741964    -0.6888326332
| 41>  H        1.0365732515     2.9387832337     0.3897143216
| 42>  H        3.7682882823     4.2759386290     0.8968958131
| 43> *
| 44>
| 45>                          ****END OF INPUT****
 Total Charge           Charge          ....    1
 Multiplicity           Mult            ....    1
 Number of Electrons    NEL             ....   56
FINAL SINGLE POINT ENERGY      -327.196823293024
FINAL SINGLE POINT ENERGY      -327.196825325684
FINAL SINGLE POINT ENERGY      -327.196826639428

CARTESIAN COORDINATES (ANGSTROEM)
---------------------------------
  C      1.517770   -1.163641   -1.651060
  N      0.591301    0.000554   -1.547096
  C      0.524848    0.582813   -0.193978
  C     -0.586312    1.516644    0.169394
  C     -0.523572    0.136652    0.771770
  C     -1.565035   -0.883101    0.397834
  O      0.000915    0.000724    2.043650
  H      1.493223   -1.549086   -2.668817
  H      1.192040   -1.923138   -0.944397
  H      2.521451   -0.828003   -1.398961
  H      0.872274    0.724096   -2.213187
  H     -0.347604   -0.292996   -1.824953
  H      1.513921    0.773083    0.203020
  H     -1.369360    1.707890   -0.556951
  H     -0.309537    2.368209    0.777567
  H     -1.954730   -0.758492   -0.617367
  H     -2.428690   -0.777925    1.058554
  H     -1.178099   -1.897259    0.517335
  H     -0.672956    0.214945    2.698255

FINAL SINGLE POINT ENERGY      -327.196826972397
                    ***********************HURRAY********************
 Multiplicity           Mult            ....    1
 Number of Electrons    NEL             ....   56
 Basis Dimension        Dim             ....  289
FINAL SINGLE POINT ENERGY      -327.196827258259

VIBRATIONAL FREQUENCIES
-----------------------

   0:         0.00 cm**-1
   1:         0.00 cm**-1
   2:         0.00 cm**-1
   3:         0.00 cm**-1
   4:         0.00 cm**-1
   5:         0.00 cm**-1
   6:        77.55 cm**-1
   7:       144.36 cm**-1
   8:       177.25 cm**-1
   9:       219.29 cm**-1
  10:       262.25 cm**-1
  11:       304.30 cm**-1
  12:       348.99 cm**-1
  13:       405.12 cm**-1
  14:       427.06 cm**-1
  15:       436.30 cm**-1
  16:       505.98 cm**-1
  17:       727.58 cm**-1
  18:       770.29 cm**-1
  19:       853.81 cm**-1
  20:       904.88 cm**-1
  21:       907.43 cm**-1
  22:       979.60 cm**-1
  23:       991.83 cm**-1
  24:      1030.48 cm**-1
  25:      1062.47 cm**-1
  26:      1080.36 cm**-1
  27:      1084.86 cm**-1
  28:      1118.39 cm**-1
  29:      1185.60 cm**-1
  30:      1210.83 cm**-1
  31:      1262.94 cm**-1
  32:      1319.99 cm**-1
  33:      1342.28 cm**-1
  34:      1363.80 cm**-1
  35:      1403.88 cm**-1
  36:      1421.00 cm**-1
  37:      1432.96 cm**-1
  38:      1456.46 cm**-1
  39:      1466.65 cm**-1
  40:      1487.97 cm**-1
  41:      1490.63 cm**-1
  42:      1495.36 cm**-1
  43:      1523.69 cm**-1
  44:      1641.86 cm**-1
  45:      3045.29 cm**-1
  46:      3094.74 cm**-1
  47:      3116.33 cm**-1
  48:      3137.71 cm**-1
  49:      3150.88 cm**-1
  50:      3195.18 cm**-1
  51:      3203.21 cm**-1
  52:      3212.19 cm**-1
  53:      3248.74 cm**-1
  54:      3430.53 cm**-1
  55:      3477.35 cm**-1
  56:      3829.30 cm**-1

IR SPECTRUM
-----------

 Mode    freq (cm**-1)   T**2         TX         TY         TZ
-------------------------------------------------------------------
   6:        77.55    0.803508  (  0.488408   0.745341  -0.097121)
   7:       144.36    3.495263  ( -0.784464  -1.008129   1.365121)
   8:       177.25    1.417503  (  1.135630  -0.004822  -0.357525)
   9:       219.29    0.212493  (  0.281335   0.308822   0.194864)
  10:       262.25    3.716220  ( -1.540193  -0.103093   1.154728)
  11:       304.30  116.366840  ( -3.095389 -10.326190   0.393975)
  12:       348.99    2.836812  ( -0.489758  -1.605650  -0.137243)
  13:       405.12   17.385729  ( -1.580019  -2.756703   2.699974)
  14:       427.06    8.177149  (  1.026704  -1.990380  -1.778037)
  15:       436.30   10.996512  (  1.508163   1.261754   2.670194)
  16:       505.98    3.624792  ( -1.446534  -1.219864  -0.210385)
  17:       727.58    1.920645  (  1.336732   0.240657   0.275459)
  18:       770.29   17.924163  ( -2.661706  -0.911107   3.163758)
  19:       853.81   11.424930  ( -2.668730  -0.414936   2.032397)
  20:       904.88   11.734639  (  0.435462   2.984885   1.623415)
  21:       907.43    7.482681  (  0.762929   2.526695   0.718634)
  22:       979.60    2.292347  (  0.824499  -1.019039  -0.757699)
  23:       991.83   15.159107  ( -2.501521  -0.068988  -2.982741)
  24:      1030.48   27.817161  (  0.952321  -3.142188  -4.127578)
  25:      1062.47    8.380515  (  2.348461   0.648807  -1.563425)
  26:      1080.36    0.035818  ( -0.141437  -0.093271  -0.084348)
  27:      1084.86   22.870426  ( -0.575126  -0.612780   4.707882)
  28:      1118.39    7.414581  (  0.188478  -0.033324  -2.716237)
  29:      1185.60    6.716607  (  0.724320   0.918775   2.312535)
  30:      1210.83   11.415971  (  1.923270  -1.746266   2.160453)
  31:      1262.94  114.652712  ( -3.106349   3.161186  -9.747318)
  32:      1319.99    7.863443  (  0.165876   0.315723  -2.781411)
  33:      1342.28   24.875154  (  3.261886   0.267067   3.763500)
  34:      1363.80   12.065974  ( -3.259679  -0.826342   0.870417)
  35:      1403.88   39.711436  (  3.626910  -4.424630  -2.641896)
  36:      1421.00   11.745214  ( -2.481708  -1.161603  -2.058402)
  37:      1432.96    8.873052  ( -0.515287  -1.296265  -2.631963)
  38:      1456.46    2.978104  (  1.008487  -0.811553  -1.141245)
  39:      1466.65   10.436128  ( -0.896832  -1.915394   2.441943)
  40:      1487.97   11.990430  ( -1.607014   3.017059  -0.552531)
  41:      1490.63   18.713451  (  3.620345   2.352310   0.270537)
  42:      1495.36   28.269115  ( -0.199965   0.462714  -5.292922)
  43:      1523.69    7.236698  ( -0.284250   2.620490   0.537523)
  44:      1641.86   55.128795  ( -3.272858   2.193890  -6.293174)
  45:      3045.29   10.666706  (  0.390128   1.031546   3.074153)
  46:      3094.74    0.116217  (  0.139421  -0.192430  -0.244436)
  47:      3116.33   12.299000  (  0.305450   1.089950  -3.319294)
  48:      3137.71    3.602834  ( -0.715605   1.722264  -0.352918)
  49:      3150.88    2.574718  ( -0.260200  -1.065027  -1.171636)
  50:      3195.18    0.173932  (  0.385478  -0.129930   0.091960)
  51:      3203.21    0.083421  (  0.142772   0.169277  -0.185425)
  52:      3212.19    2.325572  ( -1.174116  -0.569689  -0.788974)
  53:      3248.74    1.363038  ( -0.467990  -0.955017  -0.481629)
  54:      3430.53   32.774632  ( -2.769164   2.785106  -4.165278)
  55:      3477.35   82.628199  (  6.836456   5.332334  -2.730803)
  56:      3829.30   80.510464  (  3.697678  -1.275830  -8.075264)

--------------------------
THERMOCHEMISTRY AT 298.15K
--------------------------

Temperature         ... 298.15 K
Pressure            ... 1.00 atm
Total Mass          ... 102.16 AMU

Throughout the following assumptions are being made:
  (1) The electronic state is orbitally nondegenerate
  (2) There are no thermally accessible electronically excited states
  (3) Hindered rotations indicated by low frequency modes) are not
      treated as such but are treated as vibrations and this may
      case some error
  (4) All equations used are the standard statistical mechanics
      equations for an ideal gas
  (5) All vibrations are strinctly harmonic

------------
INNER ENERGY
------------

The inner energy is: U= E(el) + E(ZPE) + E(vib) + E(rot) + E(trans)
    E(el)   - is the total energy from the electronic structure calculation
              = E(kin-el) + E(nuc-el) + E(el-el) + E(nuc-nuc)
    E(ZPE)  - the the zero temperature vibrational energy from the frequency calculation
    E(vib)  - the the finite temperature correction to E(ZPE) due to population
              of excietd vibrational states
    E(rot)  - is the rotational thermal energy
    E(trans)- is the translational thermal energy

Summary of contributions to the inner energy U:
Electronic energy                ...   -327.19682726 Eh
Zero point energy                ...      0.17420643 Eh     109.32 kcal/mol
Thermal vibrational correction   ...      0.00559596 Eh       3.51 kcal/mol
Thermal rotational correction    ...      0.00141627 Eh       0.89 kcal/mol
Thermal translational correction ...      0.00141627 Eh       0.89 kcal/mol
-----------------------------------------------------------------------
Total thermal energy                   -327.01419232 Eh

Summary of corrections to the electronic energy:
(perhaps to be used in another calculation)
Total thermal correction                  0.00842850 Eh       5.29 kcal/mol
Non-thermal (ZPE) correction              0.17420643 Eh     109.32 kcal/mol
-----------------------------------------------------------------------
Total correction                          0.18263494 Eh     114.60 kcal/mol

--------
ENTHALPY
--------

The enthalpy is H = U + kB*T
                kB is Boltzmann's constant
Total free energy                 ...   -327.01419232 Eh
Thermal Enthalpy correction       ...      0.00094421 Eh       0.59 kcal/mol
-----------------------------------------------------------------------
Total Enthalpy                    ...   -327.01324811 Eh

-------
ENTROPY
-------

The entropy contributions are T*S = T*(S(el)+S(vib)+S(rot)+S(trans)
     S(el)   - electronic entropy
     S(vib)  - vibrational entropy
     S(rot)  - rotational entropy
     S(trans)- translational entropy
The entropies will be listed as mutliplied by the temperature to get
units of energy

Electronic entropy                ...      0.00000000 Eh      0.00 kcal/mol
Vibrational entropy               ...      0.00966102 Eh      6.06 kcal/mol
Rotational entropy                ...      0.01210397 Eh      7.60 kcal/mol
Translational entropy             ...      0.01890147 Eh     11.86 kcal/mol
-----------------------------------------------------------------------
Final entropy term                ...      0.04066646 Eh     25.52 kcal/mol

CAUTION: The rotational entropy is not quite correctly treated here
         because it includes a symmetry number that is not yet correctly
         implemented in ORCA!
For a nonlinear molecule the correct rotational entropy is:
    S(rot) = R*(ln(qrot/sn)+1.5)
    R    = 8.31441 J/mol/K = 1.987191683e-3 kcal/mol/K
    qrot = 247251.0685485
    sn is the rotational symmetry number. We have assumed 3 here
       if it is different for your molecule then you should correct
       the printed rotational entropy by manually evaluating the equation
       as given above

For convenience we print out the resulting values for sn=1 - 12:
 sn= 1  qrot/sn=  247251.0685 T*S(rot)=     8.25 kcal/mol T*S(tot)=    26.17 kcal/mol
 sn= 2  qrot/sn=  123625.5343 T*S(rot)=     7.84 kcal/mol T*S(tot)=    25.76 kcal/mol
 sn= 3  qrot/sn=   82417.0228 T*S(rot)=     7.60 kcal/mol T*S(tot)=    25.52 kcal/mol
 sn= 4  qrot/sn=   61812.7671 T*S(rot)=     7.42 kcal/mol T*S(tot)=    25.35 kcal/mol
 sn= 5  qrot/sn=   49450.2137 T*S(rot)=     7.29 kcal/mol T*S(tot)=    25.22 kcal/mol
 sn= 6  qrot/sn=   41208.5114 T*S(rot)=     7.18 kcal/mol T*S(tot)=    25.11 kcal/mol
 sn= 7  qrot/sn=   35321.5812 T*S(rot)=     7.09 kcal/mol T*S(tot)=    25.02 kcal/mol
 sn= 8  qrot/sn=   30906.3836 T*S(rot)=     7.01 kcal/mol T*S(tot)=    24.94 kcal/mol
 sn= 9  qrot/sn=   27472.3409 T*S(rot)=     6.94 kcal/mol T*S(tot)=    24.87 kcal/mol
 sn=10  qrot/sn=   24725.1069 T*S(rot)=     6.88 kcal/mol T*S(tot)=    24.81 kcal/mol
 sn=11  qrot/sn=   22477.3699 T*S(rot)=     6.83 kcal/mol T*S(tot)=    24.75 kcal/mol
 sn=12  qrot/sn=   20604.2557 T*S(rot)=     6.77 kcal/mol T*S(tot)=    24.70 kcal/mol

-------------------
GIBBS FREE ENTHALPY
-------------------

The Gibbs free enthalpy is G = H - T*S

Total enthalpy                    ...   -327.01324811 Eh
Total entropy correction          ...     -0.04066646 Eh    -25.52 kcal/mol
-----------------------------------------------------------------------
Final Gibbs free enthalpy         ...   -327.05391457 Eh

For completeness - the Gibbs free enthalpy minus the electronic energy
G-E(el)                           ...      0.14291269 Eh     89.68 kcal/mol

                             ****ORCA TERMINATED NORMALLY****
TOTAL RUN TIME: 0 days 0 hours 56 minutes 52 seconds 967 msec
