                         Program Version 3.0.3 - RELEASE   -
|  1> ! NORI PBE0 def2-TZVP UseSym TightOPT Freq TightSCF Grid3 FinalGrid5 XYZFile
|  2> % pal
|  3>     nprocs 8
|  4> end
|  5> %method
|  6>     SymThresh 5.0e-2
|  7> end
|  8> % geom
|  9>     MaxIter 10
| 10> end
| 11> % maxcore 2000
| 12> % output
| 13>     printlevel mini
| 14>     print[ P_Basis ] 0
| 15>     print[ P_SCFInfo ] 1
| 16>     print[ P_SCFIterInfo ] 1
| 17>     print[ P_OrbEn ] 0
| 18>     print[ P_Cartesian ] 0
| 19> end
| 20> % elprop
| 21>     Dipole false
| 22> end
| 23> *xyz 1 1
| 24>  C        0.8006657918    -0.5934663012     0.6404575779
| 25>  N        1.9428518665    -0.5797866815    -0.3212103557
| 26>  C        2.9450972685    -1.6305804626    -0.0600573955
| 27>  C        2.7598867665    -2.9711121829    -0.6480185975
| 28>  C        3.8580665091    -2.0587338189    -1.1622566295
| 29>  C        5.2597927065    -2.3820880607    -0.7419794222
| 30>  O        5.5314258910    -2.6104196088     0.4025828086
| 31>  H        0.1064539662     0.2028698560     0.3772856411
| 32>  H        1.1942018146    -0.4364339439     1.6426027846
| 33>  H        0.3131222032    -1.5639128645     0.5782563189
| 34>  H        1.5836681757    -0.6830344198    -1.2727992219
| 35>  H        2.4012723378     0.3345773139    -0.2906821116
| 36>  H        3.3794910298    -1.5450597373     0.9299749138
| 37>  H        3.0579464873    -3.8138411133    -0.0366589137
| 38>  H        1.9237240932    -3.1518108116    -1.3149743892
| 39>  H        3.7226762691    -1.6481683497    -2.1577256678
| 40>  H        6.0179468233    -2.4135988134    -1.5447073403
| 41> *
| 42>
| 43>                          ****END OF INPUT****
 Total Charge           Charge          ....    1
 Multiplicity           Mult            ....    1
 Number of Electrons    NEL             ....   54
FINAL SINGLE POINT ENERGY      -325.977848284518

CARTESIAN COORDINATES (ANGSTROEM)
---------------------------------
  C      0.993524    1.256064   -2.403153
  N      0.793141   -0.000066   -1.620757
  C      0.173501    0.221284   -0.300154
  C     -1.297089    0.258609   -0.186414
  C     -0.518788   -0.913911    0.381104
  C     -0.355103   -0.961904    1.870017
  O     -0.002080    0.000378    2.490731
  H      1.447251    1.008111   -3.361130
  H      1.647007    1.913914   -1.834152
  H      0.023850    1.726772   -2.548056
  H      0.215045   -0.645996   -2.162501
  H      1.694220   -0.467585   -1.493061
  H      0.767177    0.878849    0.325451
  H     -1.710791    0.969479    0.518108
  H     -1.906239    0.061779   -1.061842
  H     -0.623949   -1.862519   -0.135379
  H     -0.596784   -1.921931    2.359320

FINAL SINGLE POINT ENERGY      -325.977848520517
                    ***********************HURRAY********************
 Multiplicity           Mult            ....    1
 Number of Electrons    NEL             ....   54
 Basis Dimension        Dim             ....  277
FINAL SINGLE POINT ENERGY      -325.977849028266

VIBRATIONAL FREQUENCIES
-----------------------

   0:         0.00 cm**-1
   1:         0.00 cm**-1
   2:         0.00 cm**-1
   3:         0.00 cm**-1
   4:         0.00 cm**-1
   5:         0.00 cm**-1
   6:        81.15 cm**-1
   7:        90.83 cm**-1
   8:       160.59 cm**-1
   9:       192.05 cm**-1
  10:       245.60 cm**-1
  11:       296.14 cm**-1
  12:       373.74 cm**-1
  13:       455.49 cm**-1
  14:       684.23 cm**-1
  15:       785.39 cm**-1
  16:       814.72 cm**-1
  17:       841.98 cm**-1
  18:       890.12 cm**-1
  19:       952.27 cm**-1
  20:       995.41 cm**-1
  21:      1020.96 cm**-1
  22:      1054.82 cm**-1
  23:      1063.13 cm**-1
  24:      1102.50 cm**-1
  25:      1118.01 cm**-1
  26:      1122.79 cm**-1
  27:      1184.63 cm**-1
  28:      1208.31 cm**-1
  29:      1244.41 cm**-1
  30:      1320.93 cm**-1
  31:      1372.52 cm**-1
  32:      1404.09 cm**-1
  33:      1414.89 cm**-1
  34:      1434.01 cm**-1
  35:      1456.87 cm**-1
  36:      1489.78 cm**-1
  37:      1493.84 cm**-1
  38:      1498.81 cm**-1
  39:      1648.42 cm**-1
  40:      1832.97 cm**-1
  41:      2995.84 cm**-1
  42:      3095.66 cm**-1
  43:      3153.74 cm**-1
  44:      3182.12 cm**-1
  45:      3195.54 cm**-1
  46:      3197.69 cm**-1
  47:      3204.27 cm**-1
  48:      3250.31 cm**-1
  49:      3433.58 cm**-1
  50:      3484.16 cm**-1

IR SPECTRUM
-----------

 Mode    freq (cm**-1)   T**2         TX         TY         TZ
-------------------------------------------------------------------
   6:        81.15    2.037874  ( -1.269004  -0.581624   0.298691)
   7:        90.83    7.531440  (  2.192753  -0.784751  -1.451702)
   8:       160.59    2.420109  ( -0.535557  -0.846538   1.190236)
   9:       192.05    3.865192  ( -1.444707   0.887753  -0.994941)
  10:       245.60   10.826630  ( -1.727862   0.877140  -2.659276)
  11:       296.14    7.706163  ( -1.605498  -0.332702   2.240056)
  12:       373.74    2.561207  (  1.250341   0.457233  -0.888140)
  13:       455.49    0.548552  ( -0.325698   0.526841   0.406093)
  14:       684.23   11.855571  (  0.850428   0.385825  -3.314134)
  15:       785.39    5.133836  ( -1.728113  -1.445758   0.239258)
  16:       814.72   24.103074  (  2.091444   0.026532   4.441647)
  17:       841.98    6.531916  ( -2.554818   0.022179   0.065813)
  18:       890.12   12.273295  ( -1.096299  -1.378029   3.028607)
  19:       952.27   19.105987  ( -2.379034  -2.224214   2.915315)
  20:       995.41   30.753491  (  1.543467  -3.237334   4.229760)
  21:      1020.96   18.301982  (  1.020616   0.721604  -4.091407)
  22:      1054.82   10.022300  ( -0.431201  -2.517157   1.870905)
  23:      1063.13    9.162465  ( -2.608630   0.667963  -1.382513)
  24:      1102.50    5.915487  (  1.023412   2.201139   0.151998)
  25:      1118.01   13.522839  ( -0.401966   1.802481  -3.179988)
  26:      1122.79    3.277646  (  1.792571   0.014955   0.253202)
  27:      1184.63   22.893226  ( -0.518354  -1.774680   4.413054)
  28:      1208.31    2.389928  ( -0.086860  -0.054933  -1.542519)
  29:      1244.41    1.090401  ( -0.833075   0.493147  -0.391399)
  30:      1320.93   17.945138  (  1.122547  -1.138560   3.922844)
  31:      1372.52   20.033335  (  0.472363  -1.864432   4.041547)
  32:      1404.09   38.218367  (  1.617511   3.410296  -4.896112)
  33:      1414.89    7.025479  ( -1.246170   0.155035   2.334203)
  34:      1434.01   14.132278  (  0.470817  -1.684198   3.327775)
  35:      1456.87    8.408533  ( -1.269308   2.354104  -1.120528)
  36:      1489.78   22.183529  ( -4.093692  -0.937990  -2.131992)
  37:      1493.84    5.687295  (  1.618783  -1.191440  -1.283474)
  38:      1498.81   43.323073  (  3.042906  -0.323289  -5.827459)
  39:      1648.42   51.169614  ( -1.339804   6.299501   3.113010)
  40:      1832.97  131.025432  (  3.208088   5.292767   9.629134)
  41:      2995.84   48.276636  (  1.333947   5.855213  -3.494810)
  42:      3095.66    0.012329  (  0.015812   0.078086   0.077343)
  43:      3153.74    3.968151  (  1.056616  -0.467220  -1.622781)
  44:      3182.12    1.459195  ( -0.489287   0.349082   1.047824)
  45:      3195.54    5.492222  (  0.521752   0.534760   2.221268)
  46:      3197.69    2.066110  ( -0.334452  -0.839503  -1.117805)
  47:      3204.27    0.252446  (  0.499994  -0.023161   0.043763)
  48:      3250.31    3.532725  ( -0.090300   1.100519   1.520996)
  49:      3433.58   47.183416  (  3.525230  -5.526039  -2.054036)
  50:      3484.16   70.535015  (  7.296739   1.355929   3.931167)

--------------------------
THERMOCHEMISTRY AT 298.15K
--------------------------

Temperature         ... 298.15 K
Pressure            ... 1.00 atm
Total Mass          ... 100.14 AMU

Throughout the following assumptions are being made:
  (1) The electronic state is orbitally nondegenerate
  (2) There are no thermally accessible electronically excited states
  (3) Hindered rotations indicated by low frequency modes) are not
      treated as such but are treated as vibrations and this may
      case some error
  (4) All equations used are the standard statistical mechanics
      equations for an ideal gas
  (5) All vibrations are strinctly harmonic

------------
INNER ENERGY
------------

The inner energy is: U= E(el) + E(ZPE) + E(vib) + E(rot) + E(trans)
    E(el)   - is the total energy from the electronic structure calculation
              = E(kin-el) + E(nuc-el) + E(el-el) + E(nuc-nuc)
    E(ZPE)  - the the zero temperature vibrational energy from the frequency calculation
    E(vib)  - the the finite temperature correction to E(ZPE) due to population
              of excietd vibrational states
    E(rot)  - is the rotational thermal energy
    E(trans)- is the translational thermal energy

Summary of contributions to the inner energy U:
Electronic energy                ...   -325.97784903 Eh
Zero point energy                ...      0.15158764 Eh      95.12 kcal/mol
Thermal vibrational correction   ...      0.00499162 Eh       3.13 kcal/mol
Thermal rotational correction    ...      0.00141627 Eh       0.89 kcal/mol
Thermal translational correction ...      0.00141627 Eh       0.89 kcal/mol
-----------------------------------------------------------------------
Total thermal energy                   -325.81843722 Eh

Summary of corrections to the electronic energy:
(perhaps to be used in another calculation)
Total thermal correction                  0.00782416 Eh       4.91 kcal/mol
Non-thermal (ZPE) correction              0.15158764 Eh      95.12 kcal/mol
-----------------------------------------------------------------------
Total correction                          0.15941181 Eh     100.03 kcal/mol

--------
ENTHALPY
--------

The enthalpy is H = U + kB*T
                kB is Boltzmann's constant
Total free energy                 ...   -325.81843722 Eh
Thermal Enthalpy correction       ...      0.00094421 Eh       0.59 kcal/mol
-----------------------------------------------------------------------
Total Enthalpy                    ...   -325.81749301 Eh

-------
ENTROPY
-------

The entropy contributions are T*S = T*(S(el)+S(vib)+S(rot)+S(trans)
     S(el)   - electronic entropy
     S(vib)  - vibrational entropy
     S(rot)  - rotational entropy
     S(trans)- translational entropy
The entropies will be listed as mutliplied by the temperature to get
units of energy

Electronic entropy                ...      0.00000000 Eh      0.00 kcal/mol
Vibrational entropy               ...      0.00914802 Eh      5.74 kcal/mol
Rotational entropy                ...      0.01210982 Eh      7.60 kcal/mol
Translational entropy             ...      0.01887324 Eh     11.84 kcal/mol
-----------------------------------------------------------------------
Final entropy term                ...      0.04013109 Eh     25.18 kcal/mol

CAUTION: The rotational entropy is not quite correctly treated here
         because it includes a symmetry number that is not yet correctly
         implemented in ORCA!
For a nonlinear molecule the correct rotational entropy is:
    S(rot) = R*(ln(qrot/sn)+1.5)
    R    = 8.31441 J/mol/K = 1.987191683e-3 kcal/mol/K
    qrot = 248787.9974041
    sn is the rotational symmetry number. We have assumed 3 here
       if it is different for your molecule then you should correct
       the printed rotational entropy by manually evaluating the equation
       as given above

For convenience we print out the resulting values for sn=1 - 12:
 sn= 1  qrot/sn=  248787.9974 T*S(rot)=     8.25 kcal/mol T*S(tot)=    25.83 kcal/mol
 sn= 2  qrot/sn=  124393.9987 T*S(rot)=     7.84 kcal/mol T*S(tot)=    25.42 kcal/mol
 sn= 3  qrot/sn=   82929.3325 T*S(rot)=     7.60 kcal/mol T*S(tot)=    25.18 kcal/mol
 sn= 4  qrot/sn=   62196.9994 T*S(rot)=     7.43 kcal/mol T*S(tot)=    25.01 kcal/mol
 sn= 5  qrot/sn=   49757.5995 T*S(rot)=     7.30 kcal/mol T*S(tot)=    24.88 kcal/mol
 sn= 6  qrot/sn=   41464.6662 T*S(rot)=     7.19 kcal/mol T*S(tot)=    24.77 kcal/mol
 sn= 7  qrot/sn=   35541.1425 T*S(rot)=     7.10 kcal/mol T*S(tot)=    24.68 kcal/mol
 sn= 8  qrot/sn=   31098.4997 T*S(rot)=     7.02 kcal/mol T*S(tot)=    24.60 kcal/mol
 sn= 9  qrot/sn=   27643.1108 T*S(rot)=     6.95 kcal/mol T*S(tot)=    24.53 kcal/mol
 sn=10  qrot/sn=   24878.7997 T*S(rot)=     6.89 kcal/mol T*S(tot)=    24.47 kcal/mol
 sn=11  qrot/sn=   22617.0907 T*S(rot)=     6.83 kcal/mol T*S(tot)=    24.41 kcal/mol
 sn=12  qrot/sn=   20732.3331 T*S(rot)=     6.78 kcal/mol T*S(tot)=    24.36 kcal/mol

-------------------
GIBBS FREE ENTHALPY
-------------------

The Gibbs free enthalpy is G = H - T*S

Total enthalpy                    ...   -325.81749301 Eh
Total entropy correction          ...     -0.04013109 Eh    -25.18 kcal/mol
-----------------------------------------------------------------------
Final Gibbs free enthalpy         ...   -325.85762410 Eh

For completeness - the Gibbs free enthalpy minus the electronic energy
G-E(el)                           ...      0.12022493 Eh     75.44 kcal/mol

                             ****ORCA TERMINATED NORMALLY****
TOTAL RUN TIME: 0 days 0 hours 42 minutes 23 seconds 614 msec
