                         Program Version 3.0.3 - RELEASE   -
|  1> ! NORI PBE0 def2-TZVP UseSym TightOPT Freq TightSCF Grid3 FinalGrid5 XYZFile
|  2> % pal
|  3>     nprocs 8
|  4> end
|  5> %method
|  6>     SymThresh 5.0e-2
|  7> end
|  8> % geom
|  9>     MaxIter 10
| 10> end
| 11> % maxcore 2000
| 12> % output
| 13>     printlevel mini
| 14>     print[ P_Basis ] 0
| 15>     print[ P_SCFInfo ] 1
| 16>     print[ P_SCFIterInfo ] 1
| 17>     print[ P_OrbEn ] 0
| 18>     print[ P_Cartesian ] 0
| 19> end
| 20> % elprop
| 21>     Dipole false
| 22> end
| 23> *xyz 1 1
| 24>  C        3.6253382715     0.3098156410    -2.1169516460
| 25>  N        3.1142344288     1.2454723435    -1.0728682613
| 26>  C        3.9531697746     1.3112635499     0.1416268367
| 27>  C        5.1689650067     2.1828588225     0.1278971477
| 28>  C        4.0045938236     2.5722106875     0.9677071221
| 29>  O        4.1429536146     2.4478657033     2.3160838588
| 30>  C        2.9147518948     2.4405173292     3.0243862016
| 31>  H        2.9576508137     0.3338856036    -2.9767108942
| 32>  H        3.6599161776    -0.6914460121    -1.6926836143
| 33>  H        4.6257804009     0.6279685050    -2.4003003041
| 34>  H        2.1629755628     0.9762295438    -0.8112670207
| 35>  H        3.0384469739     2.1830557316    -1.4727148351
| 36>  H        3.9953582432     0.3575999439     0.6525010137
| 37>  H        5.3769005798     2.7876031852    -0.7482959151
| 38>  H        6.0454235075     1.7929595562     0.6298603620
| 39>  H        3.4045466974     3.4179875727     0.6218006402
| 40>  H        3.1639187146     2.3683264997     4.0808193498
| 41>  H        2.2973853499     1.5793663898     2.7414094714
| 42>  H        2.3541301641     3.3651694037     2.8485904867
| 43> *
| 44>
| 45>                          ****END OF INPUT****
 Total Charge           Charge          ....    1
 Multiplicity           Mult            ....    1
 Number of Electrons    NEL             ....   56
FINAL SINGLE POINT ENERGY      -327.175323576646
FINAL SINGLE POINT ENERGY      -327.175324772657

CARTESIAN COORDINATES (ANGSTROEM)
---------------------------------
  C     -0.339834    0.466092   -2.934239
  N      0.417384   -0.001157   -1.736151
  C     -0.241758    0.304300   -0.449359
  C     -1.328939   -0.602325    0.034170
  C     -0.025195   -0.583798    0.749880
  O     -0.000761   -0.002013    1.980298
  C      1.298624    0.349666    2.425833
  H      0.207913    0.189426   -3.833612
  H     -0.444966    1.547168   -2.873531
  H     -1.320495   -0.004072   -2.922677
  H      1.352580    0.412587   -1.741658
  H      0.559543   -1.011136   -1.803631
  H     -0.337149    1.370999   -0.290519
  H     -1.571759   -1.490239   -0.539365
  H     -2.174040   -0.125792    0.514518
  H      0.627817   -1.450353    0.615261
  H      1.184533    0.768136    3.423092
  H      1.752500    1.102246    1.770298
  H      1.947485   -0.531124    2.476113

FINAL SINGLE POINT ENERGY      -327.175325428760
                    ***********************HURRAY********************
 Multiplicity           Mult            ....    1
 Number of Electrons    NEL             ....   56
 Basis Dimension        Dim             ....  289
FINAL SINGLE POINT ENERGY      -327.175325542824

VIBRATIONAL FREQUENCIES
-----------------------

   0:         0.00 cm**-1
   1:         0.00 cm**-1
   2:         0.00 cm**-1
   3:         0.00 cm**-1
   4:         0.00 cm**-1
   5:         0.00 cm**-1
   6:        70.58 cm**-1
   7:       108.15 cm**-1
   8:       150.33 cm**-1
   9:       167.64 cm**-1
  10:       211.03 cm**-1
  11:       242.79 cm**-1
  12:       347.30 cm**-1
  13:       408.12 cm**-1
  14:       427.25 cm**-1
  15:       496.93 cm**-1
  16:       799.81 cm**-1
  17:       832.13 cm**-1
  18:       839.88 cm**-1
  19:       938.38 cm**-1
  20:       949.66 cm**-1
  21:       988.79 cm**-1
  22:      1030.61 cm**-1
  23:      1064.39 cm**-1
  24:      1083.02 cm**-1
  25:      1098.11 cm**-1
  26:      1128.13 cm**-1
  27:      1171.30 cm**-1
  28:      1176.09 cm**-1
  29:      1196.55 cm**-1
  30:      1205.94 cm**-1
  31:      1247.53 cm**-1
  32:      1282.86 cm**-1
  33:      1330.77 cm**-1
  34:      1385.98 cm**-1
  35:      1410.51 cm**-1
  36:      1429.14 cm**-1
  37:      1455.26 cm**-1
  38:      1468.67 cm**-1
  39:      1487.42 cm**-1
  40:      1490.17 cm**-1
  41:      1490.40 cm**-1
  42:      1494.58 cm**-1
  43:      1511.32 cm**-1
  44:      1647.94 cm**-1
  45:      3019.09 cm**-1
  46:      3079.93 cm**-1
  47:      3088.12 cm**-1
  48:      3093.46 cm**-1
  49:      3155.31 cm**-1
  50:      3176.34 cm**-1
  51:      3194.20 cm**-1
  52:      3201.78 cm**-1
  53:      3213.26 cm**-1
  54:      3250.48 cm**-1
  55:      3434.42 cm**-1
  56:      3483.84 cm**-1

IR SPECTRUM
-----------

 Mode    freq (cm**-1)   T**2         TX         TY         TZ
-------------------------------------------------------------------
   6:        70.58    0.787035  (  0.519460   0.593620   0.405971)
   7:       108.15    4.686129  ( -0.460223  -2.114071  -0.070895)
   8:       150.33    0.419630  ( -0.337967   0.035498  -0.551497)
   9:       167.64    0.407288  ( -0.533934  -0.338825   0.086026)
  10:       211.03    2.399483  (  0.287331  -1.423476  -0.539110)
  11:       242.79    2.483275  (  1.198794  -0.966530   0.334646)
  12:       347.30    2.422753  ( -0.597518  -0.538350   1.332630)
  13:       408.12    9.021616  (  0.574278  -0.095330   2.946648)
  14:       427.25    3.796560  (  0.125228  -1.651927   1.025677)
  15:       496.93    1.242480  (  0.488910   0.496371  -0.870094)
  16:       799.81   20.624569  ( -1.878738  -2.868122   2.978051)
  17:       832.13    8.647817  (  1.921202   1.594854   1.553462)
  18:       839.88    2.559784  ( -1.004017   1.207072  -0.307750)
  19:       938.38   29.490760  (  2.455088   2.365056  -4.227271)
  20:       949.66    8.528546  (  1.637251  -2.237264   0.917934)
  21:       988.79   13.417806  ( -3.583513   0.420938  -0.631707)
  22:      1030.61   10.644260  ( -3.043102   0.652220  -0.978978)
  23:      1064.39    4.544297  (  0.029386  -0.534723   2.063372)
  24:      1083.02    4.114499  ( -0.439391   0.196187   1.970519)
  25:      1098.11   16.143745  (  2.835774   2.599919  -1.158685)
  26:      1128.13   55.022995  (  4.845355   1.699742   5.353168)
  27:      1171.30   20.185309  ( -2.377798  -0.711065  -3.745100)
  28:      1176.09    2.800497  ( -0.411192   1.492869  -0.634634)
  29:      1196.55    6.228898  ( -2.423201  -0.565947  -0.191570)
  30:      1205.94    0.670887  ( -0.342894  -0.458362  -0.585845)
  31:      1247.53    3.509479  (  0.399709  -0.844955   1.623503)
  32:      1282.86  109.914920  (  3.905095   2.916021   9.282347)
  33:      1330.77    5.626360  (  0.791519  -0.805378   2.085959)
  34:      1385.98    8.570829  (  1.219345   0.287452   2.646016)
  35:      1410.51   77.557520  ( -0.902997  -0.604475  -8.739378)
  36:      1429.14    0.312135  (  0.166014   0.039054   0.532024)
  37:      1455.26   12.462170  (  2.591252   0.251637   2.384169)
  38:      1468.67    0.936156  ( -0.919762  -0.300176   0.009450)
  39:      1487.42   15.139302  (  1.055826  -2.606769   2.688734)
  40:      1490.17   42.183597  (  2.176043   4.800384   3.795358)
  41:      1490.40   10.446119  (  0.159880   1.390283  -2.913361)
  42:      1494.58   18.123692  ( -2.896776   0.663513   3.048300)
  43:      1511.32   31.033790  ( -4.524612  -1.446533  -2.910192)
  44:      1647.94   50.794271  (  5.784888  -4.042481  -0.993826)
  45:      3019.09   33.212858  (  5.420392   1.947830   0.195355)
  46:      3079.93   23.369090  (  1.446481  -4.084829  -2.142651)
  47:      3088.12   26.459040  ( -0.534826   4.168701  -2.965626)
  48:      3093.46    0.175536  (  0.044188   0.062270  -0.411953)
  49:      3155.31    3.893391  (  1.462549  -0.362195  -1.274032)
  50:      3176.34    3.857888  (  0.253254  -0.683613  -1.823848)
  51:      3194.20    0.273568  ( -0.284161   0.328846  -0.291001)
  52:      3201.78    0.126460  (  0.261154   0.222193  -0.094279)
  53:      3213.26    1.589419  (  0.512592  -1.143531   0.137861)
  54:      3250.48    3.085110  (  1.376344  -0.942304  -0.550320)
  55:      3434.42   40.626551  (  6.052932  -1.910121  -0.583097)
  56:      3483.84   65.510636  (  3.508368   7.270986   0.578569)

--------------------------
THERMOCHEMISTRY AT 298.15K
--------------------------

Temperature         ... 298.15 K
Pressure            ... 1.00 atm
Total Mass          ... 102.16 AMU

Throughout the following assumptions are being made:
  (1) The electronic state is orbitally nondegenerate
  (2) There are no thermally accessible electronically excited states
  (3) Hindered rotations indicated by low frequency modes) are not
      treated as such but are treated as vibrations and this may
      case some error
  (4) All equations used are the standard statistical mechanics
      equations for an ideal gas
  (5) All vibrations are strinctly harmonic

------------
INNER ENERGY
------------

The inner energy is: U= E(el) + E(ZPE) + E(vib) + E(rot) + E(trans)
    E(el)   - is the total energy from the electronic structure calculation
              = E(kin-el) + E(nuc-el) + E(el-el) + E(nuc-nuc)
    E(ZPE)  - the the zero temperature vibrational energy from the frequency calculation
    E(vib)  - the the finite temperature correction to E(ZPE) due to population
              of excietd vibrational states
    E(rot)  - is the rotational thermal energy
    E(trans)- is the translational thermal energy

Summary of contributions to the inner energy U:
Electronic energy                ...   -327.17532554 Eh
Zero point energy                ...      0.17463453 Eh     109.58 kcal/mol
Thermal vibrational correction   ...      0.00563246 Eh       3.53 kcal/mol
Thermal rotational correction    ...      0.00141627 Eh       0.89 kcal/mol
Thermal translational correction ...      0.00141627 Eh       0.89 kcal/mol
-----------------------------------------------------------------------
Total thermal energy                   -326.99222600 Eh

Summary of corrections to the electronic energy:
(perhaps to be used in another calculation)
Total thermal correction                  0.00846500 Eh       5.31 kcal/mol
Non-thermal (ZPE) correction              0.17463453 Eh     109.58 kcal/mol
-----------------------------------------------------------------------
Total correction                          0.18309954 Eh     114.90 kcal/mol

--------
ENTHALPY
--------

The enthalpy is H = U + kB*T
                kB is Boltzmann's constant
Total free energy                 ...   -326.99222600 Eh
Thermal Enthalpy correction       ...      0.00094421 Eh       0.59 kcal/mol
-----------------------------------------------------------------------
Total Enthalpy                    ...   -326.99128179 Eh

-------
ENTROPY
-------

The entropy contributions are T*S = T*(S(el)+S(vib)+S(rot)+S(trans)
     S(el)   - electronic entropy
     S(vib)  - vibrational entropy
     S(rot)  - rotational entropy
     S(trans)- translational entropy
The entropies will be listed as mutliplied by the temperature to get
units of energy

Electronic entropy                ...      0.00000000 Eh      0.00 kcal/mol
Vibrational entropy               ...      0.01030038 Eh      6.46 kcal/mol
Rotational entropy                ...      0.01220602 Eh      7.66 kcal/mol
Translational entropy             ...      0.01890147 Eh     11.86 kcal/mol
-----------------------------------------------------------------------
Final entropy term                ...      0.04140786 Eh     25.98 kcal/mol

CAUTION: The rotational entropy is not quite correctly treated here
         because it includes a symmetry number that is not yet correctly
         implemented in ORCA!
For a nonlinear molecule the correct rotational entropy is:
    S(rot) = R*(ln(qrot/sn)+1.5)
    R    = 8.31441 J/mol/K = 1.987191683e-3 kcal/mol/K
    qrot = 275472.3097501
    sn is the rotational symmetry number. We have assumed 3 here
       if it is different for your molecule then you should correct
       the printed rotational entropy by manually evaluating the equation
       as given above

For convenience we print out the resulting values for sn=1 - 12:
 sn= 1  qrot/sn=  275472.3098 T*S(rot)=     8.31 kcal/mol T*S(tot)=    26.63 kcal/mol
 sn= 2  qrot/sn=  137736.1549 T*S(rot)=     7.90 kcal/mol T*S(tot)=    26.22 kcal/mol
 sn= 3  qrot/sn=   91824.1033 T*S(rot)=     7.66 kcal/mol T*S(tot)=    25.98 kcal/mol
 sn= 4  qrot/sn=   68868.0774 T*S(rot)=     7.49 kcal/mol T*S(tot)=    25.81 kcal/mol
 sn= 5  qrot/sn=   55094.4620 T*S(rot)=     7.36 kcal/mol T*S(tot)=    25.68 kcal/mol
 sn= 6  qrot/sn=   45912.0516 T*S(rot)=     7.25 kcal/mol T*S(tot)=    25.57 kcal/mol
 sn= 7  qrot/sn=   39353.1871 T*S(rot)=     7.16 kcal/mol T*S(tot)=    25.48 kcal/mol
 sn= 8  qrot/sn=   34434.0387 T*S(rot)=     7.08 kcal/mol T*S(tot)=    25.40 kcal/mol
 sn= 9  qrot/sn=   30608.0344 T*S(rot)=     7.01 kcal/mol T*S(tot)=    25.33 kcal/mol
 sn=10  qrot/sn=   27547.2310 T*S(rot)=     6.95 kcal/mol T*S(tot)=    25.27 kcal/mol
 sn=11  qrot/sn=   25042.9373 T*S(rot)=     6.89 kcal/mol T*S(tot)=    25.21 kcal/mol
 sn=12  qrot/sn=   22956.0258 T*S(rot)=     6.84 kcal/mol T*S(tot)=    25.16 kcal/mol

-------------------
GIBBS FREE ENTHALPY
-------------------

The Gibbs free enthalpy is G = H - T*S

Total enthalpy                    ...   -326.99128179 Eh
Total entropy correction          ...     -0.04140786 Eh    -25.98 kcal/mol
-----------------------------------------------------------------------
Final Gibbs free enthalpy         ...   -327.03268966 Eh

For completeness - the Gibbs free enthalpy minus the electronic energy
G-E(el)                           ...      0.14263588 Eh     89.51 kcal/mol

                             ****ORCA TERMINATED NORMALLY****
TOTAL RUN TIME: 0 days 0 hours 49 minutes 4 seconds 401 msec
