                         Program Version 3.0.3 - RELEASE   -
|  1> ! NORI PBE0 def2-TZVP UseSym TightOPT Freq TightSCF Grid3 FinalGrid5 XYZFile
|  2> % pal
|  3>     nprocs 8
|  4> end
|  5> %method
|  6>     SymThresh 5.0e-2
|  7> end
|  8> % geom
|  9>     MaxIter 10
| 10> end
| 11> % maxcore 2000
| 12> % output
| 13>     printlevel mini
| 14>     print[ P_Basis ] 0
| 15>     print[ P_SCFInfo ] 1
| 16>     print[ P_SCFIterInfo ] 1
| 17>     print[ P_OrbEn ] 0
| 18>     print[ P_Cartesian ] 0
| 19> end
| 20> % elprop
| 21>     Dipole false
| 22> end
| 23> *xyz 1 1
| 24>  C        3.1699397549    -0.3568300601    -1.0270182011
| 25>  N        2.2983182438     0.0152802051     0.1253940288
| 26>  C        2.8070517848    -0.4803406209     1.4412178197
| 27>  C        1.9529251776    -0.2859759296     2.6955404594
| 28>  C        2.4740520309    -1.6642333948     3.1639106061
| 29>  C        2.7564930378    -1.9967330524     1.6883908438
| 30>  O        3.8018845691    -2.8011413737     1.2779343358
| 31>  H        2.6969616333    -0.0311826139    -1.9516593501
| 32>  H        3.3059843902    -1.4360644926    -1.0194984423
| 33>  H        4.1320295920     0.1355269092    -0.9036339581
| 34>  H        1.3619524868    -0.3678373364    -0.0216506075
| 35>  H        2.1856138025     1.0306961947     0.1594886762
| 36>  H        3.8185080998    -0.0861374608     1.5577082903
| 37>  H        0.8827339761    -0.3245782271     2.4756172426
| 38>  H        2.1600802937     0.5837880552     3.3153639535
| 39>  H        3.4026230583    -1.5581744177     3.7303386721
| 40>  H        1.7930279052    -2.3154645741     3.7069552485
| 41>  H        1.8422917001    -2.4010441245     1.2334357691
| 42>  H        4.5145484632    -2.7837036858     1.9240046131
| 43> *
| 44>
| 45>                          ****END OF INPUT****
 Total Charge           Charge          ....    1
 Multiplicity           Mult            ....    1
 Number of Electrons    NEL             ....   56
FINAL SINGLE POINT ENERGY      -327.205971242710
FINAL SINGLE POINT ENERGY      -327.205972709444

CARTESIAN COORDINATES (ANGSTROEM)
---------------------------------
  C      2.400858    0.389994   -0.409841
  N      1.188281    0.000534   -1.186314
  C     -0.094969    0.362052   -0.509277
  C     -1.419132   -0.093032   -1.126082
  C     -1.930413   -0.291364    0.318960
  C     -0.462637   -0.419274    0.762745
  O     -0.001775    0.003772    1.994527
  H      3.287367    0.027054   -0.926514
  H      2.326384   -0.045238    0.584577
  H      2.426855    1.475194   -0.334755
  H      1.195067   -1.009937   -1.340523
  H      1.221034    0.427619   -2.114485
  H     -0.064028    1.437972   -0.328001
  H     -1.324913   -1.050666   -1.644489
  H     -1.942143    0.611648   -1.768685
  H     -2.381547    0.627043    0.702878
  H     -2.593393   -1.129060    0.520495
  H     -0.144202   -1.463453    0.643073
  H     -0.560727    0.705748    2.341378

FINAL SINGLE POINT ENERGY      -327.205973543389
                    ***********************HURRAY********************
 Multiplicity           Mult            ....    1
 Number of Electrons    NEL             ....   56
 Basis Dimension        Dim             ....  289
FINAL SINGLE POINT ENERGY      -327.205973789736

VIBRATIONAL FREQUENCIES
-----------------------

   0:         0.00 cm**-1
   1:         0.00 cm**-1
   2:         0.00 cm**-1
   3:         0.00 cm**-1
   4:         0.00 cm**-1
   5:         0.00 cm**-1
   6:        90.22 cm**-1
   7:       137.15 cm**-1
   8:       181.38 cm**-1
   9:       233.22 cm**-1
  10:       257.32 cm**-1
  11:       320.15 cm**-1
  12:       345.97 cm**-1
  13:       418.72 cm**-1
  14:       510.81 cm**-1
  15:       612.88 cm**-1
  16:       775.71 cm**-1
  17:       812.80 cm**-1
  18:       848.12 cm**-1
  19:       936.55 cm**-1
  20:       953.68 cm**-1
  21:       989.16 cm**-1
  22:      1007.27 cm**-1
  23:      1034.42 cm**-1
  24:      1045.84 cm**-1
  25:      1106.98 cm**-1
  26:      1143.43 cm**-1
  27:      1186.82 cm**-1
  28:      1200.10 cm**-1
  29:      1214.94 cm**-1
  30:      1244.18 cm**-1
  31:      1262.04 cm**-1
  32:      1265.73 cm**-1
  33:      1299.69 cm**-1
  34:      1339.38 cm**-1
  35:      1358.71 cm**-1
  36:      1398.39 cm**-1
  37:      1419.05 cm**-1
  38:      1431.51 cm**-1
  39:      1462.49 cm**-1
  40:      1478.66 cm**-1
  41:      1491.51 cm**-1
  42:      1496.19 cm**-1
  43:      1500.72 cm**-1
  44:      1649.84 cm**-1
  45:      3033.74 cm**-1
  46:      3082.22 cm**-1
  47:      3088.88 cm**-1
  48:      3093.12 cm**-1
  49:      3117.79 cm**-1
  50:      3165.47 cm**-1
  51:      3174.43 cm**-1
  52:      3194.82 cm**-1
  53:      3198.82 cm**-1
  54:      3435.42 cm**-1
  55:      3485.53 cm**-1
  56:      3850.15 cm**-1

IR SPECTRUM
-----------

 Mode    freq (cm**-1)   T**2         TX         TY         TZ
-------------------------------------------------------------------
   6:        90.22    1.014042  ( -0.701464   0.537842  -0.482407)
   7:       137.15    2.752832  (  0.107152  -0.800674  -1.449232)
   8:       181.38    5.999548  ( -1.454291  -1.396873   1.390443)
   9:       233.22   19.450397  (  1.927307   3.509724  -1.848707)
  10:       257.32   89.951927  ( -6.493029  -5.429991   4.278749)
  11:       320.15    7.068054  (  0.699037  -0.134245  -2.561519)
  12:       345.97    2.049076  (  0.137591   0.171056  -1.414526)
  13:       418.72    6.042537  (  2.408504  -0.044565  -0.489549)
  14:       510.81    0.586753  ( -0.472107   0.350121   0.491205)
  15:       612.88    2.611951  (  0.519271  -0.997986   1.160316)
  16:       775.71   10.083685  ( -1.888265  -2.466749   0.658247)
  17:       812.80    3.047693  ( -0.513685   0.980687   1.349842)
  18:       848.12   13.565739  ( -0.569100  -2.686853   2.454115)
  19:       936.55    8.373360  ( -1.116057   0.097405   2.668012)
  20:       953.68    3.943056  ( -1.533108  -0.395847   1.198308)
  21:       989.16    1.955252  (  0.244598  -1.343875  -0.299040)
  22:      1007.27   15.782546  (  2.643029   0.521384   2.919777)
  23:      1034.42   27.686723  (  5.237050   0.199768  -0.469174)
  24:      1045.84   33.518476  (  0.732583  -1.238199  -5.607911)
  25:      1106.98    0.766418  (  0.323581   0.708561   0.399568)
  26:      1143.43   37.746275  (  4.069078   0.745664   4.542342)
  27:      1186.82   57.307811  (  3.252628   1.380506   6.694955)
  28:      1200.10   14.207813  (  0.411181  -1.045207  -3.598095)
  29:      1214.94   33.041415  ( -1.355203  -1.182834  -5.459464)
  30:      1244.18   11.441846  (  2.503025   0.706372   2.162811)
  31:      1262.04    4.229391  ( -1.150057  -0.042383  -1.704395)
  32:      1265.73    2.089469  ( -0.056309  -0.144535   1.437153)
  33:      1299.69   10.557588  ( -0.328972   0.235980  -3.223923)
  34:      1339.38    6.771336  (  0.427090  -1.458608   2.112201)
  35:      1358.71    2.465745  (  0.202636   0.455139  -1.489138)
  36:      1398.39   32.861609  (  5.227053   0.302293   2.334127)
  37:      1419.05   34.038040  ( -3.601567   1.086978   4.459287)
  38:      1431.51   27.500275  (  3.549213   1.180267   3.675640)
  39:      1462.49    6.770121  ( -2.400290  -0.479328  -0.882595)
  40:      1478.66   13.645746  (  1.599441  -1.590019  -2.925641)
  41:      1491.51   24.744392  ( -2.517795   4.132977  -1.150479)
  42:      1496.19   24.695843  ( -3.949929  -0.632885   2.948451)
  43:      1500.72   16.466239  (  1.794960   1.654060   3.241673)
  44:      1649.84   56.008280  (  0.615645  -3.912188  -6.350122)
  45:      3033.74   14.722231  ( -1.567980   2.804344   2.097457)
  46:      3082.22    1.862114  ( -0.265253   0.643667   1.173647)
  47:      3088.88   12.635505  (  1.503759  -1.902287  -2.599138)
  48:      3093.12    0.743367  ( -0.541648  -0.121336   0.659744)
  49:      3117.79    3.584917  (  0.146587   1.383898   1.283844)
  50:      3165.47    2.622395  ( -1.284275   0.622839  -0.764922)
  51:      3174.43    2.617626  ( -0.479751  -1.535538   0.172009)
  52:      3194.82    0.122584  ( -0.294547  -0.182323  -0.050832)
  53:      3198.82    1.205030  ( -0.251609  -0.126085   1.061049)
  54:      3435.42   39.562104  ( -0.774741   2.225193   5.831843)
  55:      3485.53   63.836235  (  0.185193   6.876918  -4.063243)
  56:      3850.15   71.446511  (  3.158934  -4.977049  -6.057774)

--------------------------
THERMOCHEMISTRY AT 298.15K
--------------------------

Temperature         ... 298.15 K
Pressure            ... 1.00 atm
Total Mass          ... 102.16 AMU

Throughout the following assumptions are being made:
  (1) The electronic state is orbitally nondegenerate
  (2) There are no thermally accessible electronically excited states
  (3) Hindered rotations indicated by low frequency modes) are not
      treated as such but are treated as vibrations and this may
      case some error
  (4) All equations used are the standard statistical mechanics
      equations for an ideal gas
  (5) All vibrations are strinctly harmonic

------------
INNER ENERGY
------------

The inner energy is: U= E(el) + E(ZPE) + E(vib) + E(rot) + E(trans)
    E(el)   - is the total energy from the electronic structure calculation
              = E(kin-el) + E(nuc-el) + E(el-el) + E(nuc-nuc)
    E(ZPE)  - the the zero temperature vibrational energy from the frequency calculation
    E(vib)  - the the finite temperature correction to E(ZPE) due to population
              of excietd vibrational states
    E(rot)  - is the rotational thermal energy
    E(trans)- is the translational thermal energy

Summary of contributions to the inner energy U:
Electronic energy                ...   -327.20597379 Eh
Zero point energy                ...      0.17628948 Eh     110.62 kcal/mol
Thermal vibrational correction   ...      0.00508818 Eh       3.19 kcal/mol
Thermal rotational correction    ...      0.00141627 Eh       0.89 kcal/mol
Thermal translational correction ...      0.00141627 Eh       0.89 kcal/mol
-----------------------------------------------------------------------
Total thermal energy                   -327.02176359 Eh

Summary of corrections to the electronic energy:
(perhaps to be used in another calculation)
Total thermal correction                  0.00792072 Eh       4.97 kcal/mol
Non-thermal (ZPE) correction              0.17628948 Eh     110.62 kcal/mol
-----------------------------------------------------------------------
Total correction                          0.18421020 Eh     115.59 kcal/mol

--------
ENTHALPY
--------

The enthalpy is H = U + kB*T
                kB is Boltzmann's constant
Total free energy                 ...   -327.02176359 Eh
Thermal Enthalpy correction       ...      0.00094421 Eh       0.59 kcal/mol
-----------------------------------------------------------------------
Total Enthalpy                    ...   -327.02081938 Eh

-------
ENTROPY
-------

The entropy contributions are T*S = T*(S(el)+S(vib)+S(rot)+S(trans)
     S(el)   - electronic entropy
     S(vib)  - vibrational entropy
     S(rot)  - rotational entropy
     S(trans)- translational entropy
The entropies will be listed as mutliplied by the temperature to get
units of energy

Electronic entropy                ...      0.00000000 Eh      0.00 kcal/mol
Vibrational entropy               ...      0.00879011 Eh      5.52 kcal/mol
Rotational entropy                ...      0.01211780 Eh      7.60 kcal/mol
Translational entropy             ...      0.01890147 Eh     11.86 kcal/mol
-----------------------------------------------------------------------
Final entropy term                ...      0.03980938 Eh     24.98 kcal/mol

CAUTION: The rotational entropy is not quite correctly treated here
         because it includes a symmetry number that is not yet correctly
         implemented in ORCA!
For a nonlinear molecule the correct rotational entropy is:
    S(rot) = R*(ln(qrot/sn)+1.5)
    R    = 8.31441 J/mol/K = 1.987191683e-3 kcal/mol/K
    qrot = 250897.8618969
    sn is the rotational symmetry number. We have assumed 3 here
       if it is different for your molecule then you should correct
       the printed rotational entropy by manually evaluating the equation
       as given above

For convenience we print out the resulting values for sn=1 - 12:
 sn= 1  qrot/sn=  250897.8619 T*S(rot)=     8.25 kcal/mol T*S(tot)=    25.63 kcal/mol
 sn= 2  qrot/sn=  125448.9309 T*S(rot)=     7.84 kcal/mol T*S(tot)=    25.22 kcal/mol
 sn= 3  qrot/sn=   83632.6206 T*S(rot)=     7.60 kcal/mol T*S(tot)=    24.98 kcal/mol
 sn= 4  qrot/sn=   62724.4655 T*S(rot)=     7.43 kcal/mol T*S(tot)=    24.81 kcal/mol
 sn= 5  qrot/sn=   50179.5724 T*S(rot)=     7.30 kcal/mol T*S(tot)=    24.68 kcal/mol
 sn= 6  qrot/sn=   41816.3103 T*S(rot)=     7.19 kcal/mol T*S(tot)=    24.57 kcal/mol
 sn= 7  qrot/sn=   35842.5517 T*S(rot)=     7.10 kcal/mol T*S(tot)=    24.48 kcal/mol
 sn= 8  qrot/sn=   31362.2327 T*S(rot)=     7.02 kcal/mol T*S(tot)=    24.40 kcal/mol
 sn= 9  qrot/sn=   27877.5402 T*S(rot)=     6.95 kcal/mol T*S(tot)=    24.33 kcal/mol
 sn=10  qrot/sn=   25089.7862 T*S(rot)=     6.89 kcal/mol T*S(tot)=    24.27 kcal/mol
 sn=11  qrot/sn=   22808.8965 T*S(rot)=     6.83 kcal/mol T*S(tot)=    24.21 kcal/mol
 sn=12  qrot/sn=   20908.1552 T*S(rot)=     6.78 kcal/mol T*S(tot)=    24.16 kcal/mol

-------------------
GIBBS FREE ENTHALPY
-------------------

The Gibbs free enthalpy is G = H - T*S

Total enthalpy                    ...   -327.02081938 Eh
Total entropy correction          ...     -0.03980938 Eh    -24.98 kcal/mol
-----------------------------------------------------------------------
Final Gibbs free enthalpy         ...   -327.06062876 Eh

For completeness - the Gibbs free enthalpy minus the electronic energy
G-E(el)                           ...      0.14534503 Eh     91.21 kcal/mol

                             ****ORCA TERMINATED NORMALLY****
TOTAL RUN TIME: 0 days 0 hours 53 minutes 58 seconds 635 msec
