                         Program Version 3.0.3 - RELEASE   -
|  1> ! NORI PBE0 def2-TZVP UseSym TightOPT Freq TightSCF Grid3 FinalGrid5 XYZFile
|  2> % pal
|  3>     nprocs 8
|  4> end
|  5> %method
|  6>     SymThresh 5.0e-2
|  7> end
|  8> % geom
|  9>     MaxIter 10
| 10> end
| 11> % maxcore 2000
| 12> % output
| 13>     printlevel mini
| 14>     print[ P_Basis ] 0
| 15>     print[ P_SCFInfo ] 1
| 16>     print[ P_SCFIterInfo ] 1
| 17>     print[ P_OrbEn ] 0
| 18>     print[ P_Cartesian ] 0
| 19> end
| 20> % elprop
| 21>     Dipole false
| 22> end
| 23> *xyz 1 1
| 24>  C        1.3456370437     0.6009849396     0.0257366555
| 25>  N        2.0971977293     0.3124805121    -1.2261552941
| 26>  C        2.9105858700    -0.9319593767    -1.2179379995
| 27>  C        3.7798807042    -1.1247523069    -0.0155234612
| 28>  C        3.3472793580    -1.3868288816    -2.5808109571
| 29>  C        2.1932431562    -2.0573949863    -1.8975002674
| 30>  O        0.9137236914    -1.7136868774    -2.3214844314
| 31>  H        0.7194709755     1.4754255387    -0.1436497928
| 32>  H        2.0460073515     0.7969256932     0.8328698810
| 33>  H        0.7259839137    -0.2627133908     0.2571983128
| 34>  H        1.4081833105     0.1740239781    -1.9785330925
| 35>  H        2.6854464386     1.1098046348    -1.4727483387
| 36>  H        4.3528566377    -2.0440040683    -0.1384059265
| 37>  H        3.2042212521    -1.2217500855     0.9062150511
| 38>  H        4.4999068179    -0.3090202227     0.0963626240
| 39>  H        3.1047297174    -0.7709123053    -3.4404445735
| 40>  H        4.3004696076    -1.8957762722    -2.6430827265
| 41>  H        2.3074349899    -3.0544433790    -1.4835774853
| 42>  H        0.6787514347    -2.2135031439    -3.1106281781
| 43> *
| 44>
| 45>                          ****END OF INPUT****
 Total Charge           Charge          ....    1
 Multiplicity           Mult            ....    1
 Number of Electrons    NEL             ....   56
FINAL SINGLE POINT ENERGY      -327.205360507945
FINAL SINGLE POINT ENERGY      -327.205362318902

CARTESIAN COORDINATES (ANGSTROEM)
---------------------------------
  C      1.626525   -1.393560   -0.626491
  N      1.152352   -0.000425   -0.402176
  C     -0.319944    0.199835   -0.465193
  C     -1.004927   -0.411205   -1.646868
  C     -0.785148    1.501746    0.121661
  C     -0.925284    0.230281    0.904366
  O     -0.000041   -0.000186    1.917371
  H      2.700799   -1.422187   -0.452685
  H      1.408299   -1.691874   -1.648219
  H      1.116564   -2.044777    0.080139
  H      1.414504    0.267413    0.556679
  H      1.617545    0.636126   -1.050944
  H     -2.066328   -0.165703   -1.604818
  H     -0.924375   -1.499452   -1.662248
  H     -0.619085   -0.009802   -2.588164
  H     -0.044104    2.207951    0.481274
  H     -1.661683    1.953389   -0.324944
  H     -1.901926   -0.224976    1.037005
  H     -0.259096    0.468514    2.717936

FINAL SINGLE POINT ENERGY      -327.205362657178
                    ***********************HURRAY********************
 Multiplicity           Mult            ....    1
 Number of Electrons    NEL             ....   56
 Basis Dimension        Dim             ....  289
FINAL SINGLE POINT ENERGY      -327.205362813137

VIBRATIONAL FREQUENCIES
-----------------------

   0:         0.00 cm**-1
   1:         0.00 cm**-1
   2:         0.00 cm**-1
   3:         0.00 cm**-1
   4:         0.00 cm**-1
   5:         0.00 cm**-1
   6:        89.84 cm**-1
   7:       190.29 cm**-1
   8:       215.33 cm**-1
   9:       231.52 cm**-1
  10:       288.31 cm**-1
  11:       308.02 cm**-1
  12:       342.32 cm**-1
  13:       370.08 cm**-1
  14:       441.32 cm**-1
  15:       479.86 cm**-1
  16:       557.25 cm**-1
  17:       705.64 cm**-1
  18:       825.88 cm**-1
  19:       852.91 cm**-1
  20:       878.60 cm**-1
  21:       937.70 cm**-1
  22:       956.45 cm**-1
  23:      1026.59 cm**-1
  24:      1050.75 cm**-1
  25:      1056.42 cm**-1
  26:      1109.91 cm**-1
  27:      1117.34 cm**-1
  28:      1144.04 cm**-1
  29:      1189.22 cm**-1
  30:      1203.57 cm**-1
  31:      1252.29 cm**-1
  32:      1300.43 cm**-1
  33:      1316.51 cm**-1
  34:      1388.75 cm**-1
  35:      1415.54 cm**-1
  36:      1422.02 cm**-1
  37:      1452.58 cm**-1
  38:      1461.99 cm**-1
  39:      1479.96 cm**-1
  40:      1480.81 cm**-1
  41:      1496.16 cm**-1
  42:      1503.57 cm**-1
  43:      1520.70 cm**-1
  44:      1611.75 cm**-1
  45:      3059.27 cm**-1
  46:      3097.59 cm**-1
  47:      3135.06 cm**-1
  48:      3151.21 cm**-1
  49:      3154.86 cm**-1
  50:      3172.68 cm**-1
  51:      3193.70 cm**-1
  52:      3208.21 cm**-1
  53:      3247.36 cm**-1
  54:      3341.28 cm**-1
  55:      3477.20 cm**-1
  56:      3837.39 cm**-1

IR SPECTRUM
-----------

 Mode    freq (cm**-1)   T**2         TX         TY         TZ
-------------------------------------------------------------------
   6:        89.84    0.309275  ( -0.386825  -0.034103  -0.398093)
   7:       190.29    1.513375  (  0.767890   0.307077  -0.910727)
   8:       215.33    0.902434  (  0.867536   0.237389  -0.305715)
   9:       231.52    2.760308  ( -0.516567   0.100217   1.575888)
  10:       288.31   12.441168  (  1.122560  -1.203849  -3.119580)
  11:       308.02   13.914382  (  1.382381   0.615619  -3.409460)
  12:       342.32   16.924679  (  0.247316   2.974432  -2.831301)
  13:       370.08  106.153184  ( -4.353442  -8.519782   3.822832)
  14:       441.32    4.473440  ( -2.110114  -0.131245   0.060270)
  15:       479.86   16.228391  ( -3.286064  -2.064386   1.080963)
  16:       557.25    3.523676  ( -1.628345  -0.932702  -0.047280)
  17:       705.64    4.081078  (  0.062140   1.452763   1.402389)
  18:       825.88    8.248805  ( -0.053206   0.058834   2.870978)
  19:       852.91   37.096116  ( -0.572188   0.545268   6.039156)
  20:       878.60    1.101735  (  0.101345   1.040405   0.094988)
  21:       937.70    1.253332  ( -0.601588  -0.705558  -0.627384)
  22:       956.45    3.369290  (  0.883390   1.298610   0.950013)
  23:      1026.59    6.062516  ( -1.608010  -1.692176  -0.783173)
  24:      1050.75   24.565112  (  4.572342  -1.687828   0.900019)
  25:      1056.42    8.706692  (  2.212281  -0.650097  -1.841163)
  26:      1109.91   18.011436  ( -2.156839   2.270673  -2.864180)
  27:      1117.34    0.174012  (  0.195810  -0.366632  -0.035370)
  28:      1144.04   21.618828  ( -4.311120   1.589131   0.712556)
  29:      1189.22   53.343624  (  2.688568  -1.382508   6.648601)
  30:      1203.57    2.719090  (  0.046631  -1.594493   0.417742)
  31:      1252.29   72.939151  ( -5.569274   2.717049  -5.877073)
  32:      1300.43    2.418950  ( -0.377982   0.377809  -1.460596)
  33:      1316.51    1.508315  (  0.718638  -0.572088   0.815223)
  34:      1388.75    6.324463  ( -1.103751   1.589144  -1.606492)
  35:      1415.54   17.011601  (  0.880149  -3.522474  -1.956813)
  36:      1422.02   39.224962  ( -6.113207   1.359926  -0.065243)
  37:      1452.58    5.359687  (  0.707133   2.052529  -0.804222)
  38:      1461.99   22.684249  (  3.630485  -1.021408  -2.908703)
  39:      1479.96    6.533963  (  0.243241   2.419243  -0.788708)
  40:      1480.81   19.411803  (  4.082544  -0.325901  -1.624324)
  41:      1496.16   25.161613  (  3.842627  -0.919882   3.090251)
  42:      1503.57   10.620865  (  2.972577   0.338652  -1.292271)
  43:      1520.70   12.765373  ( -0.973749   3.240606  -1.147021)
  44:      1611.75   52.578962  (  5.357851   4.860859  -0.494414)
  45:      3059.27    4.282603  (  0.855624  -0.825959  -1.693606)
  46:      3097.59    0.477002  (  0.216136  -0.148716  -0.638882)
  47:      3135.06    3.419888  ( -0.287546  -1.522909   1.008937)
  48:      3151.21    2.434863  (  0.954918  -1.233609   0.034700)
  49:      3154.86    1.556627  ( -0.135603  -0.845111  -0.907759)
  50:      3172.68    2.265690  ( -1.221826  -0.247658  -0.843503)
  51:      3193.70    0.279183  ( -0.078131  -0.211899   0.477679)
  52:      3208.21    0.202968  (  0.020777   0.421766   0.157003)
  53:      3247.36    0.431768  ( -0.648092   0.063047  -0.088143)
  54:      3341.28  107.719416  (  0.613658   3.683403   9.683769)
  55:      3477.20   66.827094  ( -3.431580  -3.706595   6.427480)
  56:      3837.39  125.003253  (  1.375216  -3.470430 -10.538887)

--------------------------
THERMOCHEMISTRY AT 298.15K
--------------------------

Temperature         ... 298.15 K
Pressure            ... 1.00 atm
Total Mass          ... 102.16 AMU

Throughout the following assumptions are being made:
  (1) The electronic state is orbitally nondegenerate
  (2) There are no thermally accessible electronically excited states
  (3) Hindered rotations indicated by low frequency modes) are not
      treated as such but are treated as vibrations and this may
      case some error
  (4) All equations used are the standard statistical mechanics
      equations for an ideal gas
  (5) All vibrations are strinctly harmonic

------------
INNER ENERGY
------------

The inner energy is: U= E(el) + E(ZPE) + E(vib) + E(rot) + E(trans)
    E(el)   - is the total energy from the electronic structure calculation
              = E(kin-el) + E(nuc-el) + E(el-el) + E(nuc-nuc)
    E(ZPE)  - the the zero temperature vibrational energy from the frequency calculation
    E(vib)  - the the finite temperature correction to E(ZPE) due to population
              of excietd vibrational states
    E(rot)  - is the rotational thermal energy
    E(trans)- is the translational thermal energy

Summary of contributions to the inner energy U:
Electronic energy                ...   -327.20536281 Eh
Zero point energy                ...      0.17484487 Eh     109.72 kcal/mol
Thermal vibrational correction   ...      0.00531810 Eh       3.34 kcal/mol
Thermal rotational correction    ...      0.00141627 Eh       0.89 kcal/mol
Thermal translational correction ...      0.00141627 Eh       0.89 kcal/mol
-----------------------------------------------------------------------
Total thermal energy                   -327.02236730 Eh

Summary of corrections to the electronic energy:
(perhaps to be used in another calculation)
Total thermal correction                  0.00815065 Eh       5.11 kcal/mol
Non-thermal (ZPE) correction              0.17484487 Eh     109.72 kcal/mol
-----------------------------------------------------------------------
Total correction                          0.18299552 Eh     114.83 kcal/mol

--------
ENTHALPY
--------

The enthalpy is H = U + kB*T
                kB is Boltzmann's constant
Total free energy                 ...   -327.02236730 Eh
Thermal Enthalpy correction       ...      0.00094421 Eh       0.59 kcal/mol
-----------------------------------------------------------------------
Total Enthalpy                    ...   -327.02142309 Eh

-------
ENTROPY
-------

The entropy contributions are T*S = T*(S(el)+S(vib)+S(rot)+S(trans)
     S(el)   - electronic entropy
     S(vib)  - vibrational entropy
     S(rot)  - rotational entropy
     S(trans)- translational entropy
The entropies will be listed as mutliplied by the temperature to get
units of energy

Electronic entropy                ...      0.00000000 Eh      0.00 kcal/mol
Vibrational entropy               ...      0.00889202 Eh      5.58 kcal/mol
Rotational entropy                ...      0.01202289 Eh      7.54 kcal/mol
Translational entropy             ...      0.01890147 Eh     11.86 kcal/mol
-----------------------------------------------------------------------
Final entropy term                ...      0.03981637 Eh     24.99 kcal/mol

CAUTION: The rotational entropy is not quite correctly treated here
         because it includes a symmetry number that is not yet correctly
         implemented in ORCA!
For a nonlinear molecule the correct rotational entropy is:
    S(rot) = R*(ln(qrot/sn)+1.5)
    R    = 8.31441 J/mol/K = 1.987191683e-3 kcal/mol/K
    qrot = 226903.7246553
    sn is the rotational symmetry number. We have assumed 3 here
       if it is different for your molecule then you should correct
       the printed rotational entropy by manually evaluating the equation
       as given above

For convenience we print out the resulting values for sn=1 - 12:
 sn= 1  qrot/sn=  226903.7247 T*S(rot)=     8.20 kcal/mol T*S(tot)=    25.64 kcal/mol
 sn= 2  qrot/sn=  113451.8623 T*S(rot)=     7.78 kcal/mol T*S(tot)=    25.23 kcal/mol
 sn= 3  qrot/sn=   75634.5749 T*S(rot)=     7.54 kcal/mol T*S(tot)=    24.99 kcal/mol
 sn= 4  qrot/sn=   56725.9312 T*S(rot)=     7.37 kcal/mol T*S(tot)=    24.81 kcal/mol
 sn= 5  qrot/sn=   45380.7449 T*S(rot)=     7.24 kcal/mol T*S(tot)=    24.68 kcal/mol
 sn= 6  qrot/sn=   37817.2874 T*S(rot)=     7.13 kcal/mol T*S(tot)=    24.57 kcal/mol
 sn= 7  qrot/sn=   32414.8178 T*S(rot)=     7.04 kcal/mol T*S(tot)=    24.48 kcal/mol
 sn= 8  qrot/sn=   28362.9656 T*S(rot)=     6.96 kcal/mol T*S(tot)=    24.40 kcal/mol
 sn= 9  qrot/sn=   25211.5250 T*S(rot)=     6.89 kcal/mol T*S(tot)=    24.33 kcal/mol
 sn=10  qrot/sn=   22690.3725 T*S(rot)=     6.83 kcal/mol T*S(tot)=    24.27 kcal/mol
 sn=11  qrot/sn=   20627.6113 T*S(rot)=     6.77 kcal/mol T*S(tot)=    24.22 kcal/mol
 sn=12  qrot/sn=   18908.6437 T*S(rot)=     6.72 kcal/mol T*S(tot)=    24.16 kcal/mol

-------------------
GIBBS FREE ENTHALPY
-------------------

The Gibbs free enthalpy is G = H - T*S

Total enthalpy                    ...   -327.02142309 Eh
Total entropy correction          ...     -0.03981637 Eh    -24.99 kcal/mol
-----------------------------------------------------------------------
Final Gibbs free enthalpy         ...   -327.06123946 Eh

For completeness - the Gibbs free enthalpy minus the electronic energy
G-E(el)                           ...      0.14412335 Eh     90.44 kcal/mol

                             ****ORCA TERMINATED NORMALLY****
TOTAL RUN TIME: 0 days 0 hours 57 minutes 5 seconds 557 msec
