                         Program Version 3.0.3 - RELEASE   -
|  1> ! NORI PBE0 def2-TZVP UseSym TightOPT Freq TightSCF Grid3 FinalGrid5 XYZFile
|  2> % pal
|  3>     nprocs 8
|  4> end
|  5> %method
|  6>     SymThresh 5.0e-2
|  7> end
|  8> % geom
|  9>     MaxIter 10
| 10> end
| 11> % maxcore 2000
| 12> % output
| 13>     printlevel mini
| 14>     print[ P_Basis ] 0
| 15>     print[ P_SCFInfo ] 1
| 16>     print[ P_SCFIterInfo ] 1
| 17>     print[ P_OrbEn ] 0
| 18>     print[ P_Cartesian ] 0
| 19> end
| 20> % elprop
| 21>     Dipole false
| 22> end
| 23> *xyz 1 1
| 24>  C        0.9667030412     0.1083358395     0.0393265249
| 25>  N        2.4376386343    -0.1517283639     0.1041253417
| 26>  C        2.9320051521    -1.0103622851    -1.0048638721
| 27>  C        4.4168427161    -1.4208397319    -1.0716311289
| 28>  C        3.9795078647    -2.8758440148    -1.4050219506
| 29>  C        2.6252585070    -2.5108747433    -0.8433029802
| 30>  O        1.7616314868    -3.0581461688    -0.2373198175
| 31>  H        0.6775353371     0.7043459302     0.9032305442
| 32>  H        0.4574605060    -0.8525434685     0.0473218960
| 33>  H        0.7536638712     0.6500650019    -0.8802931648
| 34>  H        2.9471041305     0.7343453684     0.1131369145
| 35>  H        2.6476326038    -0.6164730859     0.9915786982
| 36>  H        2.5638348423    -0.5957434210    -1.9451336758
| 37>  H        5.0220202863    -0.8986905568    -1.8089977463
| 38>  H        4.9062410278    -1.3708765360    -0.0963083575
| 39>  H        4.4969663739    -3.7034263109    -0.9224603008
| 40>  H        3.9330236188    -3.0589434530    -2.4816469249
| 41> *
| 42>
| 43>                          ****END OF INPUT****
 Total Charge           Charge          ....    1
 Multiplicity           Mult            ....    1
 Number of Electrons    NEL             ....   54
FINAL SINGLE POINT ENERGY      -325.991632286035

CARTESIAN COORDINATES (ANGSTROEM)
---------------------------------
  C      2.185079    1.082963   -0.356584
  N      1.295381   -0.000220   -0.877247
  C     -0.148911    0.255767   -0.630270
  C     -1.209100   -0.778523   -1.059000
  C     -1.913184   -0.598466    0.316131
  C     -0.612646   -0.011934    0.813801
  O     -0.000919    0.001121    1.832634
  H      3.221163    0.802768   -0.537709
  H      1.995614    1.186863    0.709402
  H      1.946921    2.005501   -0.882172
  H      1.460068   -0.134079   -1.877251
  H      1.551124   -0.879810   -0.420578
  H     -0.378264    1.265759   -0.974736
  H     -1.781235   -0.531958   -1.950274
  H     -0.792401   -1.783133   -1.159156
  H     -2.277954   -1.481415    0.838947
  H     -2.706665    0.152585    0.281167

FINAL SINGLE POINT ENERGY      -325.991632964879
                    ***********************HURRAY********************
 Multiplicity           Mult            ....    1
 Number of Electrons    NEL             ....   54
 Basis Dimension        Dim             ....  277
FINAL SINGLE POINT ENERGY      -325.991633251909

VIBRATIONAL FREQUENCIES
-----------------------

   0:         0.00 cm**-1
   1:         0.00 cm**-1
   2:         0.00 cm**-1
   3:         0.00 cm**-1
   4:         0.00 cm**-1
   5:         0.00 cm**-1
   6:        75.61 cm**-1
   7:       125.52 cm**-1
   8:       167.97 cm**-1
   9:       242.33 cm**-1
  10:       248.64 cm**-1
  11:       390.44 cm**-1
  12:       435.20 cm**-1
  13:       576.33 cm**-1
  14:       688.06 cm**-1
  15:       733.48 cm**-1
  16:       754.34 cm**-1
  17:       851.17 cm**-1
  18:       920.59 cm**-1
  19:       931.47 cm**-1
  20:       983.68 cm**-1
  21:      1009.37 cm**-1
  22:      1044.96 cm**-1
  23:      1078.66 cm**-1
  24:      1104.80 cm**-1
  25:      1154.59 cm**-1
  26:      1184.81 cm**-1
  27:      1204.81 cm**-1
  28:      1240.28 cm**-1
  29:      1254.80 cm**-1
  30:      1274.75 cm**-1
  31:      1344.65 cm**-1
  32:      1397.33 cm**-1
  33:      1421.24 cm**-1
  34:      1437.17 cm**-1
  35:      1456.46 cm**-1
  36:      1484.31 cm**-1
  37:      1490.83 cm**-1
  38:      1501.40 cm**-1
  39:      1641.73 cm**-1
  40:      1913.07 cm**-1
  41:      3090.15 cm**-1
  42:      3093.23 cm**-1
  43:      3093.83 cm**-1
  44:      3121.23 cm**-1
  45:      3163.03 cm**-1
  46:      3176.10 cm**-1
  47:      3195.60 cm**-1
  48:      3203.90 cm**-1
  49:      3427.25 cm**-1
  50:      3479.42 cm**-1

IR SPECTRUM
-----------

 Mode    freq (cm**-1)   T**2         TX         TY         TZ
-------------------------------------------------------------------
   6:        75.61    2.330776  (  0.219236   1.111039   1.023867)
   7:       125.52    3.035989  (  1.297001  -1.148316  -0.187481)
   8:       167.97   12.055614  (  2.053132   1.143920  -2.555721)
   9:       242.33    2.450255  ( -1.020742   1.114433  -0.407899)
  10:       248.64    3.749185  (  0.965708   0.342528  -1.642945)
  11:       390.44    3.027553  ( -1.635627  -0.573324  -0.153549)
  12:       435.20    6.500939  (  2.320236   0.500905  -0.930880)
  13:       576.33    1.076080  (  0.528255   0.531139   0.717578)
  14:       688.06    8.920619  (  0.198480   1.481557  -2.585771)
  15:       733.48    7.358641  (  2.430182   0.633812  -1.025251)
  16:       754.34    6.249240  (  0.187428  -1.399506   2.062885)
  17:       851.17   11.635031  ( -0.844999  -1.623441   2.878445)
  18:       920.59    1.084100  (  0.275990  -0.681223   0.737471)
  19:       931.47    8.083208  (  2.415830  -0.463006  -1.425693)
  20:       983.68    5.579433  ( -1.361010  -1.921866  -0.183071)
  21:      1009.37   16.596116  (  3.582222   1.837842  -0.621399)
  22:      1044.96   12.642906  (  3.331557   0.546932   1.115569)
  23:      1078.66   28.827950  ( -4.657910  -1.744985   2.021596)
  24:      1104.80   26.108254  ( -3.536954  -2.077149   3.046910)
  25:      1154.59    8.756153  (  1.718301   0.219842   2.399013)
  26:      1184.81    8.750106  (  2.624143   1.363799  -0.063513)
  27:      1204.81    4.395963  ( -1.783602  -1.044553  -0.351616)
  28:      1240.28    6.504761  ( -1.567359  -1.095089  -1.687876)
  29:      1254.80    6.392978  ( -0.207950  -0.358576  -2.494225)
  30:      1274.75    1.716413  (  1.067611   0.700766  -0.292485)
  31:      1344.65    0.679790  (  0.396109  -0.347658   0.634051)
  32:      1397.33   22.256610  (  4.467974   1.316799   0.748234)
  33:      1421.24    9.936252  ( -2.795023  -1.334196  -0.586531)
  34:      1437.17   32.979761  (  5.569680   0.494212  -1.309267)
  35:      1456.46   10.903104  (  2.487473   1.676912   1.379690)
  36:      1484.31    6.697783  ( -0.069683  -1.963733  -1.684245)
  37:      1490.83   21.389703  ( -1.693242  -1.168018   4.142266)
  38:      1501.40   23.384473  (  4.068554  -2.321011   1.201768)
  39:      1641.73   51.437906  ( -3.337563   5.885009   2.380178)
  40:      1913.07  228.804646  ( -6.421253  -1.909825 -13.561885)
  41:      3090.15    5.428295  ( -2.328968   0.064528   0.006263)
  42:      3093.23    1.031406  (  0.214421   0.905306  -0.407249)
  43:      3093.83    2.814077  (  0.462516  -0.989350  -1.273319)
  44:      3121.23    1.285126  (  0.030174  -0.434383   1.046674)
  45:      3163.03    1.056937  (  0.216069  -0.947919   0.334216)
  46:      3176.10    0.301010  ( -0.365670  -0.290966  -0.287462)
  47:      3195.60    0.154161  (  0.148341  -0.278995  -0.233061)
  48:      3203.90    3.071008  ( -0.813031  -0.016274   1.552329)
  49:      3427.25   43.939024  ( -2.837973   5.527099   2.310002)
  50:      3479.42   81.267814  ( -0.332182  -3.238406   8.406557)

--------------------------
THERMOCHEMISTRY AT 298.15K
--------------------------

Temperature         ... 298.15 K
Pressure            ... 1.00 atm
Total Mass          ... 100.14 AMU

Throughout the following assumptions are being made:
  (1) The electronic state is orbitally nondegenerate
  (2) There are no thermally accessible electronically excited states
  (3) Hindered rotations indicated by low frequency modes) are not
      treated as such but are treated as vibrations and this may
      case some error
  (4) All equations used are the standard statistical mechanics
      equations for an ideal gas
  (5) All vibrations are strinctly harmonic

------------
INNER ENERGY
------------

The inner energy is: U= E(el) + E(ZPE) + E(vib) + E(rot) + E(trans)
    E(el)   - is the total energy from the electronic structure calculation
              = E(kin-el) + E(nuc-el) + E(el-el) + E(nuc-nuc)
    E(ZPE)  - the the zero temperature vibrational energy from the frequency calculation
    E(vib)  - the the finite temperature correction to E(ZPE) due to population
              of excietd vibrational states
    E(rot)  - is the rotational thermal energy
    E(trans)- is the translational thermal energy

Summary of contributions to the inner energy U:
Electronic energy                ...   -325.99163325 Eh
Zero point energy                ...      0.15220119 Eh      95.51 kcal/mol
Thermal vibrational correction   ...      0.00461612 Eh       2.90 kcal/mol
Thermal rotational correction    ...      0.00141627 Eh       0.89 kcal/mol
Thermal translational correction ...      0.00141627 Eh       0.89 kcal/mol
-----------------------------------------------------------------------
Total thermal energy                   -325.83198339 Eh

Summary of corrections to the electronic energy:
(perhaps to be used in another calculation)
Total thermal correction                  0.00744867 Eh       4.67 kcal/mol
Non-thermal (ZPE) correction              0.15220119 Eh      95.51 kcal/mol
-----------------------------------------------------------------------
Total correction                          0.15964986 Eh     100.18 kcal/mol

--------
ENTHALPY
--------

The enthalpy is H = U + kB*T
                kB is Boltzmann's constant
Total free energy                 ...   -325.83198339 Eh
Thermal Enthalpy correction       ...      0.00094421 Eh       0.59 kcal/mol
-----------------------------------------------------------------------
Total Enthalpy                    ...   -325.83103918 Eh

-------
ENTROPY
-------

The entropy contributions are T*S = T*(S(el)+S(vib)+S(rot)+S(trans)
     S(el)   - electronic entropy
     S(vib)  - vibrational entropy
     S(rot)  - rotational entropy
     S(trans)- translational entropy
The entropies will be listed as mutliplied by the temperature to get
units of energy

Electronic entropy                ...      0.00000000 Eh      0.00 kcal/mol
Vibrational entropy               ...      0.00824459 Eh      5.17 kcal/mol
Rotational entropy                ...      0.01200951 Eh      7.54 kcal/mol
Translational entropy             ...      0.01887324 Eh     11.84 kcal/mol
-----------------------------------------------------------------------
Final entropy term                ...      0.03912734 Eh     24.55 kcal/mol

CAUTION: The rotational entropy is not quite correctly treated here
         because it includes a symmetry number that is not yet correctly
         implemented in ORCA!
For a nonlinear molecule the correct rotational entropy is:
    S(rot) = R*(ln(qrot/sn)+1.5)
    R    = 8.31441 J/mol/K = 1.987191683e-3 kcal/mol/K
    qrot = 223711.9517536
    sn is the rotational symmetry number. We have assumed 3 here
       if it is different for your molecule then you should correct
       the printed rotational entropy by manually evaluating the equation
       as given above

For convenience we print out the resulting values for sn=1 - 12:
 sn= 1  qrot/sn=  223711.9518 T*S(rot)=     8.19 kcal/mol T*S(tot)=    25.20 kcal/mol
 sn= 2  qrot/sn=  111855.9759 T*S(rot)=     7.78 kcal/mol T*S(tot)=    24.79 kcal/mol
 sn= 3  qrot/sn=   74570.6506 T*S(rot)=     7.54 kcal/mol T*S(tot)=    24.55 kcal/mol
 sn= 4  qrot/sn=   55927.9879 T*S(rot)=     7.37 kcal/mol T*S(tot)=    24.38 kcal/mol
 sn= 5  qrot/sn=   44742.3904 T*S(rot)=     7.23 kcal/mol T*S(tot)=    24.25 kcal/mol
 sn= 6  qrot/sn=   37285.3253 T*S(rot)=     7.13 kcal/mol T*S(tot)=    24.14 kcal/mol
 sn= 7  qrot/sn=   31958.8503 T*S(rot)=     7.03 kcal/mol T*S(tot)=    24.05 kcal/mol
 sn= 8  qrot/sn=   27963.9940 T*S(rot)=     6.95 kcal/mol T*S(tot)=    23.97 kcal/mol
 sn= 9  qrot/sn=   24856.8835 T*S(rot)=     6.89 kcal/mol T*S(tot)=    23.90 kcal/mol
 sn=10  qrot/sn=   22371.1952 T*S(rot)=     6.82 kcal/mol T*S(tot)=    23.84 kcal/mol
 sn=11  qrot/sn=   20337.4502 T*S(rot)=     6.77 kcal/mol T*S(tot)=    23.78 kcal/mol
 sn=12  qrot/sn=   18642.6626 T*S(rot)=     6.71 kcal/mol T*S(tot)=    23.73 kcal/mol

-------------------
GIBBS FREE ENTHALPY
-------------------

The Gibbs free enthalpy is G = H - T*S

Total enthalpy                    ...   -325.83103918 Eh
Total entropy correction          ...     -0.03912734 Eh    -24.55 kcal/mol
-----------------------------------------------------------------------
Final Gibbs free enthalpy         ...   -325.87016652 Eh

For completeness - the Gibbs free enthalpy minus the electronic energy
G-E(el)                           ...      0.12146673 Eh     76.22 kcal/mol

                             ****ORCA TERMINATED NORMALLY****
TOTAL RUN TIME: 0 days 0 hours 44 minutes 23 seconds 191 msec
