                         Program Version 3.0.3 - RELEASE   -
|  1> ! NORI PBE0 def2-TZVP UseSym TightOPT Freq TightSCF Grid3 FinalGrid5 XYZFile
|  2> % pal
|  3>     nprocs 8
|  4> end
|  5> %method
|  6>     SymThresh 5.0e-2
|  7> end
|  8> % geom
|  9>     MaxIter 10
| 10> end
| 11> % maxcore 2000
| 12> % output
| 13>     printlevel mini
| 14>     print[ P_Basis ] 0
| 15>     print[ P_SCFInfo ] 1
| 16>     print[ P_SCFIterInfo ] 1
| 17>     print[ P_OrbEn ] 0
| 18>     print[ P_Cartesian ] 0
| 19> end
| 20> % elprop
| 21>     Dipole false
| 22> end
| 23> *xyz 1 1
| 24>  C        1.0862406792    -0.0512514065     0.3616444270
| 25>  N        2.5308293704    -0.1446247178     0.0169314946
| 26>  C        2.8140974891    -0.5647304185    -1.4027095557
| 27>  C        4.3128188307    -0.5309793556    -1.7087117531
| 28>  C        4.6867264556    -2.0100659734    -1.7071871531
| 29>  O        3.5378091932    -2.6409082510    -2.2291142633
| 30>  C        2.4330698183    -2.0465334682    -1.6202354990
| 31>  H        0.9863099669     0.2585786935     1.4004035831
| 32>  H        0.6241945836    -1.0257878158     0.2191669589
| 33>  H        0.6218026043     0.6820262883    -0.2949901239
| 34>  H        2.9720362925     0.7618581711     0.1820109939
| 35>  H        2.9902027309    -0.8048187667     0.6490015054
| 36>  H        2.2368459461     0.1214922181    -2.0215667845
| 37>  H        4.4606407527    -0.1093607151    -2.7032941929
| 38>  H        4.8913588214     0.0756965922    -1.0068745395
| 39>  H        5.5329477085    -2.2498641639    -2.3478011281
| 40>  H        4.9036160109    -2.3763711157    -0.6918503693
| 41>  H        2.2180666675    -2.5245605286    -0.6467184294
| 42>  H        1.5628060782    -2.1814152662    -2.2625051711
| 43> *
| 44>
| 45>                          ****END OF INPUT****
 Total Charge           Charge          ....    1
 Multiplicity           Mult            ....    1
 Number of Electrons    NEL             ....   56
FINAL SINGLE POINT ENERGY      -327.213132146527
FINAL SINGLE POINT ENERGY      -327.213133465567

CARTESIAN COORDINATES (ANGSTROEM)
---------------------------------
  C      0.958628    1.217322   -2.210806
  N      0.388573   -0.000333   -1.572322
  C     -0.481718    0.268304   -0.370978
  C     -1.109898   -1.019261    0.165991
  C     -0.292236   -1.288772    1.425810
  O     -0.000713    0.002949    1.912386
  C      0.368129    0.778879    0.814145
  H      1.566071    0.921556   -3.064421
  H      1.571488    1.744228   -1.483071
  H      0.136999    1.852310   -2.536553
  H     -0.160636   -0.513909   -2.263611
  H      1.148419   -0.624843   -1.290422
  H     -1.220351    0.993028   -0.712753
  H     -2.148803   -0.821537    0.430487
  H     -1.106336   -1.843580   -0.552538
  H     -0.836539   -1.832950    2.195318
  H      0.635211   -1.837821    1.201300
  H      1.442090    0.650032    0.585807
  H      0.196167    1.828554    1.051538

FINAL SINGLE POINT ENERGY      -327.213134227418
                    ***********************HURRAY********************
 Multiplicity           Mult            ....    1
 Number of Electrons    NEL             ....   56
 Basis Dimension        Dim             ....  289
FINAL SINGLE POINT ENERGY      -327.213134722097

VIBRATIONAL FREQUENCIES
-----------------------

   0:         0.00 cm**-1
   1:         0.00 cm**-1
   2:         0.00 cm**-1
   3:         0.00 cm**-1
   4:         0.00 cm**-1
   5:         0.00 cm**-1
   6:        53.54 cm**-1
   7:       119.68 cm**-1
   8:       207.42 cm**-1
   9:       241.18 cm**-1
  10:       285.29 cm**-1
  11:       390.72 cm**-1
  12:       426.18 cm**-1
  13:       624.85 cm**-1
  14:       665.61 cm**-1
  15:       798.88 cm**-1
  16:       835.13 cm**-1
  17:       880.47 cm**-1
  18:       942.35 cm**-1
  19:       964.07 cm**-1
  20:       993.87 cm**-1
  21:      1014.18 cm**-1
  22:      1037.16 cm**-1
  23:      1054.63 cm**-1
  24:      1077.69 cm**-1
  25:      1163.14 cm**-1
  26:      1177.86 cm**-1
  27:      1181.06 cm**-1
  28:      1233.82 cm**-1
  29:      1244.84 cm**-1
  30:      1275.48 cm**-1
  31:      1308.70 cm**-1
  32:      1330.07 cm**-1
  33:      1351.38 cm**-1
  34:      1362.56 cm**-1
  35:      1403.40 cm**-1
  36:      1407.50 cm**-1
  37:      1432.39 cm**-1
  38:      1458.82 cm**-1
  39:      1475.86 cm**-1
  40:      1493.14 cm**-1
  41:      1495.83 cm**-1
  42:      1499.24 cm**-1
  43:      1516.07 cm**-1
  44:      1643.42 cm**-1
  45:      2944.28 cm**-1
  46:      2993.60 cm**-1
  47:      3080.99 cm**-1
  48:      3093.95 cm**-1
  49:      3127.42 cm**-1
  50:      3139.11 cm**-1
  51:      3142.61 cm**-1
  52:      3159.56 cm**-1
  53:      3192.61 cm**-1
  54:      3199.76 cm**-1
  55:      3431.94 cm**-1
  56:      3489.11 cm**-1

IR SPECTRUM
-----------

 Mode    freq (cm**-1)   T**2         TX         TY         TZ
-------------------------------------------------------------------
   6:        53.54    1.560195  ( -0.583026   0.259854   1.073663)
   7:       119.68    1.869615  (  1.275440   0.380557   0.313120)
   8:       207.42    0.816533  ( -0.751327  -0.323008   0.384326)
   9:       241.18    0.043387  (  0.112714   0.113156  -0.133710)
  10:       285.29    7.678060  ( -2.338598   0.894402  -1.187040)
  11:       390.72    9.165613  ( -0.774362  -0.634808   2.857096)
  12:       426.18    3.424855  (  0.754240   0.419446   1.637083)
  13:       624.85    5.027633  ( -0.370020  -0.020040  -2.211406)
  14:       665.61    0.916735  ( -0.561614  -0.372436   0.680159)
  15:       798.88   23.899278  ( -1.901892  -0.223470  -4.498016)
  16:       835.13    4.320684  ( -1.848239   0.562730  -0.766831)
  17:       880.47    5.514730  ( -1.934964  -1.212280   0.548654)
  18:       942.35    2.398304  (  0.692735  -0.560841   1.266443)
  19:       964.07    6.935389  ( -1.169894  -0.964636  -2.153187)
  20:       993.87   12.143730  (  0.144023   2.685068   2.216619)
  21:      1014.18   26.405045  ( -1.130275   0.961948   4.919571)
  22:      1037.16   10.452727  ( -1.871844  -2.267782   1.343911)
  23:      1054.63    1.894484  ( -1.251999   0.347292  -0.454281)
  24:      1077.69   19.077527  ( -2.670527   0.043675   3.455996)
  25:      1163.14   32.870624  ( -1.369638  -5.164505   2.079088)
  26:      1177.86    8.397815  ( -1.060747  -2.681431   0.287328)
  27:      1181.06   51.949775  ( -2.787001  -6.155224   2.509108)
  28:      1233.82    9.632074  ( -0.422497   2.278810  -2.064121)
  29:      1244.84    3.041242  ( -1.167383  -1.161032   0.574859)
  30:      1275.48    2.442727  ( -0.020534  -1.270482  -0.910045)
  31:      1308.70    7.192213  (  1.697290   1.551130  -1.380368)
  32:      1330.07    1.933990  ( -1.027480   0.358334  -0.865952)
  33:      1351.38    1.284368  (  0.695799  -0.156219   0.880811)
  34:      1362.56    0.973900  ( -0.210533  -0.314207   0.911510)
  35:      1403.40    2.831771  ( -0.518076  -0.220022  -1.585862)
  36:      1407.50   42.137181  (  4.241880   1.514748  -4.674310)
  37:      1432.39   15.732963  (  0.930648   1.072130  -3.703700)
  38:      1458.82    7.305361  (  0.617692   1.950486  -1.766189)
  39:      1475.86   11.408145  (  2.661835   1.930347   0.772358)
  40:      1493.14   24.803287  (  1.535691   1.081975   4.612404)
  41:      1495.83   18.792283  ( -4.141827   0.671820   1.089134)
  42:      1499.24    4.723505  ( -1.258889   1.662952   0.610977)
  43:      1516.07    5.354502  (  1.847095  -1.367282   0.270710)
  44:      1643.42   52.570076  ( -2.052284   6.381752   2.762507)
  45:      2944.28   56.707661  ( -5.973139  -1.858778   4.192161)
  46:      2993.60   43.509805  ( -4.638079   4.611666   0.854730)
  47:      3080.99    8.153017  ( -0.198151  -1.319563  -2.524382)
  48:      3093.95    0.032252  ( -0.012338   0.155895   0.088299)
  49:      3127.42    1.379002  ( -0.139571  -0.506393  -1.050280)
  50:      3139.11    1.601194  (  0.195312   0.826760  -0.937825)
  51:      3142.61    3.763588  ( -0.269685   1.886272  -0.364465)
  52:      3159.56    1.761827  (  0.949238   0.611451  -0.697783)
  53:      3192.61    0.237534  ( -0.198568   0.442322   0.049552)
  54:      3199.76    0.076209  (  0.158566   0.105655   0.199758)
  55:      3431.94   33.855376  ( -1.952969   5.294486   1.417642)
  56:      3489.11   66.827421  ( -5.823068  -0.795616  -5.682103)

--------------------------
THERMOCHEMISTRY AT 298.15K
--------------------------

Temperature         ... 298.15 K
Pressure            ... 1.00 atm
Total Mass          ... 102.16 AMU

Throughout the following assumptions are being made:
  (1) The electronic state is orbitally nondegenerate
  (2) There are no thermally accessible electronically excited states
  (3) Hindered rotations indicated by low frequency modes) are not
      treated as such but are treated as vibrations and this may
      case some error
  (4) All equations used are the standard statistical mechanics
      equations for an ideal gas
  (5) All vibrations are strinctly harmonic

------------
INNER ENERGY
------------

The inner energy is: U= E(el) + E(ZPE) + E(vib) + E(rot) + E(trans)
    E(el)   - is the total energy from the electronic structure calculation
              = E(kin-el) + E(nuc-el) + E(el-el) + E(nuc-nuc)
    E(ZPE)  - the the zero temperature vibrational energy from the frequency calculation
    E(vib)  - the the finite temperature correction to E(ZPE) due to population
              of excietd vibrational states
    E(rot)  - is the rotational thermal energy
    E(trans)- is the translational thermal energy

Summary of contributions to the inner energy U:
Electronic energy                ...   -327.21313472 Eh
Zero point energy                ...      0.17783933 Eh     111.60 kcal/mol
Thermal vibrational correction   ...      0.00453504 Eh       2.85 kcal/mol
Thermal rotational correction    ...      0.00141627 Eh       0.89 kcal/mol
Thermal translational correction ...      0.00141627 Eh       0.89 kcal/mol
-----------------------------------------------------------------------
Total thermal energy                   -327.02792781 Eh

Summary of corrections to the electronic energy:
(perhaps to be used in another calculation)
Total thermal correction                  0.00736758 Eh       4.62 kcal/mol
Non-thermal (ZPE) correction              0.17783933 Eh     111.60 kcal/mol
-----------------------------------------------------------------------
Total correction                          0.18520691 Eh     116.22 kcal/mol

--------
ENTHALPY
--------

The enthalpy is H = U + kB*T
                kB is Boltzmann's constant
Total free energy                 ...   -327.02792781 Eh
Thermal Enthalpy correction       ...      0.00094421 Eh       0.59 kcal/mol
-----------------------------------------------------------------------
Total Enthalpy                    ...   -327.02698360 Eh

-------
ENTROPY
-------

The entropy contributions are T*S = T*(S(el)+S(vib)+S(rot)+S(trans)
     S(el)   - electronic entropy
     S(vib)  - vibrational entropy
     S(rot)  - rotational entropy
     S(trans)- translational entropy
The entropies will be listed as mutliplied by the temperature to get
units of energy

Electronic entropy                ...      0.00000000 Eh      0.00 kcal/mol
Vibrational entropy               ...      0.00827412 Eh      5.19 kcal/mol
Rotational entropy                ...      0.01201498 Eh      7.54 kcal/mol
Translational entropy             ...      0.01890147 Eh     11.86 kcal/mol
-----------------------------------------------------------------------
Final entropy term                ...      0.03919057 Eh     24.59 kcal/mol

CAUTION: The rotational entropy is not quite correctly treated here
         because it includes a symmetry number that is not yet correctly
         implemented in ORCA!
For a nonlinear molecule the correct rotational entropy is:
    S(rot) = R*(ln(qrot/sn)+1.5)
    R    = 8.31441 J/mol/K = 1.987191683e-3 kcal/mol/K
    qrot = 225011.4948860
    sn is the rotational symmetry number. We have assumed 3 here
       if it is different for your molecule then you should correct
       the printed rotational entropy by manually evaluating the equation
       as given above

For convenience we print out the resulting values for sn=1 - 12:
 sn= 1  qrot/sn=  225011.4949 T*S(rot)=     8.19 kcal/mol T*S(tot)=    25.24 kcal/mol
 sn= 2  qrot/sn=  112505.7474 T*S(rot)=     7.78 kcal/mol T*S(tot)=    24.83 kcal/mol
 sn= 3  qrot/sn=   75003.8316 T*S(rot)=     7.54 kcal/mol T*S(tot)=    24.59 kcal/mol
 sn= 4  qrot/sn=   56252.8737 T*S(rot)=     7.37 kcal/mol T*S(tot)=    24.42 kcal/mol
 sn= 5  qrot/sn=   45002.2990 T*S(rot)=     7.24 kcal/mol T*S(tot)=    24.29 kcal/mol
 sn= 6  qrot/sn=   37501.9158 T*S(rot)=     7.13 kcal/mol T*S(tot)=    24.18 kcal/mol
 sn= 7  qrot/sn=   32144.4993 T*S(rot)=     7.04 kcal/mol T*S(tot)=    24.09 kcal/mol
 sn= 8  qrot/sn=   28126.4369 T*S(rot)=     6.96 kcal/mol T*S(tot)=    24.01 kcal/mol
 sn= 9  qrot/sn=   25001.2772 T*S(rot)=     6.89 kcal/mol T*S(tot)=    23.94 kcal/mol
 sn=10  qrot/sn=   22501.1495 T*S(rot)=     6.83 kcal/mol T*S(tot)=    23.88 kcal/mol
 sn=11  qrot/sn=   20455.5904 T*S(rot)=     6.77 kcal/mol T*S(tot)=    23.82 kcal/mol
 sn=12  qrot/sn=   18750.9579 T*S(rot)=     6.72 kcal/mol T*S(tot)=    23.77 kcal/mol

-------------------
GIBBS FREE ENTHALPY
-------------------

The Gibbs free enthalpy is G = H - T*S

Total enthalpy                    ...   -327.02698360 Eh
Total entropy correction          ...     -0.03919057 Eh    -24.59 kcal/mol
-----------------------------------------------------------------------
Final Gibbs free enthalpy         ...   -327.06617418 Eh

For completeness - the Gibbs free enthalpy minus the electronic energy
G-E(el)                           ...      0.14696055 Eh     92.22 kcal/mol

                             ****ORCA TERMINATED NORMALLY****
TOTAL RUN TIME: 0 days 0 hours 55 minutes 31 seconds 226 msec
