                         Program Version 3.0.3 - RELEASE   -
|  1> ! NORI PBE0 def2-TZVP UseSym TightOPT Freq TightSCF Grid3 FinalGrid5 XYZFile
|  2> % pal
|  3>     nprocs 8
|  4> end
|  5> %method
|  6>     SymThresh 5.0e-2
|  7> end
|  8> % geom
|  9>     MaxIter 10
| 10> end
| 11> % maxcore 2000
| 12> % output
| 13>     printlevel mini
| 14>     print[ P_Basis ] 0
| 15>     print[ P_SCFInfo ] 1
| 16>     print[ P_SCFIterInfo ] 1
| 17>     print[ P_OrbEn ] 0
| 18>     print[ P_Cartesian ] 0
| 19> end
| 20> % elprop
| 21>     Dipole false
| 22> end
| 23> *xyz 1 1
| 24>  C        2.7327998707    -1.2280923106     0.0346446734
| 25>  N        2.3646118530     0.2149551875     0.0638577813
| 26>  C        2.8070133502     0.9905881803    -1.1366772134
| 27>  C        2.5172970955     2.5034267142    -1.0812942888
| 28>  C        4.0016895601     2.7278253516    -1.3988407656
| 29>  O        4.6429657086     3.6777156016    -1.6852023379
| 30>  C        4.3251412849     1.2355274050    -1.2429607738
| 31>  H        2.3789907010    -1.7045467796     0.9474483451
| 32>  H        3.8155891687    -1.3087772180    -0.0366268100
| 33>  H        2.2656308866    -1.6872924338    -0.8341689054
| 34>  H        1.3498591747     0.3027919190     0.1561268938
| 35>  H        2.7601470734     0.6484814669     0.9015529150
| 36>  H        2.3756468370     0.4861563293    -2.0007827988
| 37>  H        1.8009274597     2.8958351165    -1.8035214056
| 38>  H        2.2541958305     2.8844883414    -0.0882684758
| 39>  H        4.8875773636     1.0420112886    -0.3226161178
| 40>  H        4.8482567819     0.7623958399    -2.0741907158
| 41> *
| 42>
| 43>                          ****END OF INPUT****
 Total Charge           Charge          ....    1
 Multiplicity           Mult            ....    1
 Number of Electrons    NEL             ....   54
FINAL SINGLE POINT ENERGY      -325.988548068580
FINAL SINGLE POINT ENERGY      -325.988549012931

CARTESIAN COORDINATES (ANGSTROEM)
---------------------------------
  C     -0.234497    0.786591   -2.735163
  N      0.530235   -0.000080   -1.727186
  C     -0.265323   -0.399297   -0.524672
  C      0.529420   -1.132775    0.574074
  C     -0.018426   -0.095814    1.563748
  O     -0.004960   -0.000823    2.741050
  C     -0.628505    0.749222    0.436679
  H      0.424453    1.041097   -3.563281
  H     -0.607671    1.690638   -2.258879
  H     -1.066039    0.180133   -3.088708
  H      0.903687   -0.843069   -2.169367
  H      1.343545    0.539631   -1.421425
  H     -1.124473   -0.954992   -0.898850
  H      0.264869   -2.173364    0.763752
  H      1.618616   -1.062891    0.477073
  H     -0.062870    1.674237    0.279477
  H     -1.684510    1.001179    0.534977

FINAL SINGLE POINT ENERGY      -325.988549725586
                    ***********************HURRAY********************
 Multiplicity           Mult            ....    1
 Number of Electrons    NEL             ....   54
 Basis Dimension        Dim             ....  277
FINAL SINGLE POINT ENERGY      -325.988550087905

VIBRATIONAL FREQUENCIES
-----------------------

   0:         0.00 cm**-1
   1:         0.00 cm**-1
   2:         0.00 cm**-1
   3:         0.00 cm**-1
   4:         0.00 cm**-1
   5:         0.00 cm**-1
   6:        42.49 cm**-1
   7:       108.27 cm**-1
   8:       196.03 cm**-1
   9:       235.35 cm**-1
  10:       369.70 cm**-1
  11:       390.31 cm**-1
  12:       408.75 cm**-1
  13:       496.16 cm**-1
  14:       624.83 cm**-1
  15:       651.29 cm**-1
  16:       760.89 cm**-1
  17:       834.43 cm**-1
  18:       901.59 cm**-1
  19:       950.43 cm**-1
  20:       996.04 cm**-1
  21:      1005.99 cm**-1
  22:      1027.36 cm**-1
  23:      1073.76 cm**-1
  24:      1086.28 cm**-1
  25:      1132.34 cm**-1
  26:      1182.81 cm**-1
  27:      1195.82 cm**-1
  28:      1240.98 cm**-1
  29:      1251.57 cm**-1
  30:      1278.51 cm**-1
  31:      1351.41 cm**-1
  32:      1404.24 cm**-1
  33:      1412.34 cm**-1
  34:      1427.46 cm**-1
  35:      1439.48 cm**-1
  36:      1460.79 cm**-1
  37:      1492.37 cm**-1
  38:      1494.86 cm**-1
  39:      1649.89 cm**-1
  40:      1949.92 cm**-1
  41:      3064.81 cm**-1
  42:      3068.48 cm**-1
  43:      3093.27 cm**-1
  44:      3134.33 cm**-1
  45:      3150.14 cm**-1
  46:      3152.45 cm**-1
  47:      3194.52 cm**-1
  48:      3198.24 cm**-1
  49:      3431.78 cm**-1
  50:      3482.10 cm**-1

IR SPECTRUM
-----------

 Mode    freq (cm**-1)   T**2         TX         TY         TZ
-------------------------------------------------------------------
   6:        42.49    3.935414  (  1.476643   0.728913  -1.106176)
   7:       108.27    3.247147  ( -0.043086   1.776335   0.299871)
   8:       196.03    0.515954  (  0.592126  -0.277627   0.297094)
   9:       235.35    0.653090  ( -0.553245  -0.584649  -0.072083)
  10:       369.70    7.108945  (  0.223157   0.578869   2.593079)
  11:       390.31    0.985894  ( -0.513614  -0.528669  -0.665285)
  12:       408.75    1.593540  (  0.128751  -0.269546  -1.226503)
  13:       496.16    2.500368  (  0.428621  -1.446673   0.473062)
  14:       624.83    1.658729  ( -0.027701   1.225705  -0.394473)
  15:       651.29    0.457948  (  0.672721  -0.065887  -0.032451)
  16:       760.89    0.840846  ( -0.569361  -0.718734  -0.009760)
  17:       834.43   12.499275  (  0.336935   2.603792   2.367702)
  18:       901.59   16.846397  (  0.791718   0.111297  -4.025816)
  19:       950.43    3.833586  (  1.061641  -1.257374   1.060902)
  20:       996.04   14.291778  (  2.115809  -2.004475   2.407740)
  21:      1005.99   16.796447  (  2.119277  -3.308416   1.165973)
  22:      1027.36   13.091150  (  0.215810   3.233522  -1.609010)
  23:      1073.76   16.706692  ( -1.763252  -0.168660   3.683638)
  24:      1086.28   45.338483  ( -3.703274   5.599531   0.519133)
  25:      1132.34    1.668122  (  0.387606   0.853156   0.888824)
  26:      1182.81   12.431544  ( -0.708551   2.583656  -2.292209)
  27:      1195.82    3.880301  ( -0.992036   1.701095  -0.049408)
  28:      1240.98   12.295879  (  0.052949  -0.186871  -3.501165)
  29:      1251.57    0.488231  ( -0.196694   0.531355   0.408907)
  30:      1278.51    3.494981  ( -1.095419   1.448106   0.445001)
  31:      1351.41    3.310043  ( -0.561365  -0.580098  -1.630460)
  32:      1404.24   31.437235  ( -1.374840   4.714548  -2.705565)
  33:      1412.34   24.315038  ( -2.777126   4.052314  -0.425865)
  34:      1427.46   42.238685  (  1.382321   1.263154  -6.223529)
  35:      1439.48    3.171214  (  0.844350   1.341367   0.811802)
  36:      1460.79   10.444571  (  1.277131  -1.094483   2.759640)
  37:      1492.37   21.638268  ( -1.084734  -3.883251  -2.319911)
  38:      1494.86   25.882938  (  3.252502   1.310073  -3.686174)
  39:      1649.89   51.705218  ( -7.027273   1.117579   1.036180)
  40:      1949.92  290.948768  (  0.229973   1.288501  17.006929)
  41:      3064.81    2.123782  ( -0.738962   1.255632   0.033235)
  42:      3068.48    1.491338  ( -0.899099  -0.547202   0.619296)
  43:      3093.27    0.026069  ( -0.094394   0.014446   0.130192)
  44:      3134.33    1.417420  (  0.467411   0.407504   1.016311)
  45:      3150.14    0.801907  (  0.060461  -0.891944   0.051841)
  46:      3152.45    0.993254  (  0.970705   0.193322   0.116670)
  47:      3194.52    0.386328  ( -0.620092  -0.042543   0.001953)
  48:      3198.24    0.133125  (  0.062964  -0.273139  -0.233573)
  49:      3431.78   44.221567  (  6.201309  -1.746293  -1.647968)
  50:      3482.10   71.622104  (  1.557079   7.264865   4.052079)

--------------------------
THERMOCHEMISTRY AT 298.15K
--------------------------

Temperature         ... 298.15 K
Pressure            ... 1.00 atm
Total Mass          ... 100.14 AMU

Throughout the following assumptions are being made:
  (1) The electronic state is orbitally nondegenerate
  (2) There are no thermally accessible electronically excited states
  (3) Hindered rotations indicated by low frequency modes) are not
      treated as such but are treated as vibrations and this may
      case some error
  (4) All equations used are the standard statistical mechanics
      equations for an ideal gas
  (5) All vibrations are strinctly harmonic

------------
INNER ENERGY
------------

The inner energy is: U= E(el) + E(ZPE) + E(vib) + E(rot) + E(trans)
    E(el)   - is the total energy from the electronic structure calculation
              = E(kin-el) + E(nuc-el) + E(el-el) + E(nuc-nuc)
    E(ZPE)  - the the zero temperature vibrational energy from the frequency calculation
    E(vib)  - the the finite temperature correction to E(ZPE) due to population
              of excietd vibrational states
    E(rot)  - is the rotational thermal energy
    E(trans)- is the translational thermal energy

Summary of contributions to the inner energy U:
Electronic energy                ...   -325.98855009 Eh
Zero point energy                ...      0.15148647 Eh      95.06 kcal/mol
Thermal vibrational correction   ...      0.00468258 Eh       2.94 kcal/mol
Thermal rotational correction    ...      0.00141627 Eh       0.89 kcal/mol
Thermal translational correction ...      0.00141627 Eh       0.89 kcal/mol
-----------------------------------------------------------------------
Total thermal energy                   -325.82954850 Eh

Summary of corrections to the electronic energy:
(perhaps to be used in another calculation)
Total thermal correction                  0.00751512 Eh       4.72 kcal/mol
Non-thermal (ZPE) correction              0.15148647 Eh      95.06 kcal/mol
-----------------------------------------------------------------------
Total correction                          0.15900159 Eh      99.77 kcal/mol

--------
ENTHALPY
--------

The enthalpy is H = U + kB*T
                kB is Boltzmann's constant
Total free energy                 ...   -325.82954850 Eh
Thermal Enthalpy correction       ...      0.00094421 Eh       0.59 kcal/mol
-----------------------------------------------------------------------
Total Enthalpy                    ...   -325.82860429 Eh

-------
ENTROPY
-------

The entropy contributions are T*S = T*(S(el)+S(vib)+S(rot)+S(trans)
     S(el)   - electronic entropy
     S(vib)  - vibrational entropy
     S(rot)  - rotational entropy
     S(trans)- translational entropy
The entropies will be listed as mutliplied by the temperature to get
units of energy

Electronic entropy                ...      0.00000000 Eh      0.00 kcal/mol
Vibrational entropy               ...      0.00872289 Eh      5.47 kcal/mol
Rotational entropy                ...      0.01203069 Eh      7.55 kcal/mol
Translational entropy             ...      0.01887324 Eh     11.84 kcal/mol
-----------------------------------------------------------------------
Final entropy term                ...      0.03962681 Eh     24.87 kcal/mol

CAUTION: The rotational entropy is not quite correctly treated here
         because it includes a symmetry number that is not yet correctly
         implemented in ORCA!
For a nonlinear molecule the correct rotational entropy is:
    S(rot) = R*(ln(qrot/sn)+1.5)
    R    = 8.31441 J/mol/K = 1.987191683e-3 kcal/mol/K
    qrot = 228785.7461015
    sn is the rotational symmetry number. We have assumed 3 here
       if it is different for your molecule then you should correct
       the printed rotational entropy by manually evaluating the equation
       as given above

For convenience we print out the resulting values for sn=1 - 12:
 sn= 1  qrot/sn=  228785.7461 T*S(rot)=     8.20 kcal/mol T*S(tot)=    25.52 kcal/mol
 sn= 2  qrot/sn=  114392.8731 T*S(rot)=     7.79 kcal/mol T*S(tot)=    25.11 kcal/mol
 sn= 3  qrot/sn=   76261.9154 T*S(rot)=     7.55 kcal/mol T*S(tot)=    24.87 kcal/mol
 sn= 4  qrot/sn=   57196.4365 T*S(rot)=     7.38 kcal/mol T*S(tot)=    24.70 kcal/mol
 sn= 5  qrot/sn=   45757.1492 T*S(rot)=     7.25 kcal/mol T*S(tot)=    24.56 kcal/mol
 sn= 6  qrot/sn=   38130.9577 T*S(rot)=     7.14 kcal/mol T*S(tot)=    24.46 kcal/mol
 sn= 7  qrot/sn=   32683.6780 T*S(rot)=     7.05 kcal/mol T*S(tot)=    24.36 kcal/mol
 sn= 8  qrot/sn=   28598.2183 T*S(rot)=     6.97 kcal/mol T*S(tot)=    24.29 kcal/mol
 sn= 9  qrot/sn=   25420.6385 T*S(rot)=     6.90 kcal/mol T*S(tot)=    24.22 kcal/mol
 sn=10  qrot/sn=   22878.5746 T*S(rot)=     6.84 kcal/mol T*S(tot)=    24.15 kcal/mol
 sn=11  qrot/sn=   20798.7042 T*S(rot)=     6.78 kcal/mol T*S(tot)=    24.10 kcal/mol
 sn=12  qrot/sn=   19065.4788 T*S(rot)=     6.73 kcal/mol T*S(tot)=    24.04 kcal/mol

-------------------
GIBBS FREE ENTHALPY
-------------------

The Gibbs free enthalpy is G = H - T*S

Total enthalpy                    ...   -325.82860429 Eh
Total entropy correction          ...     -0.03962681 Eh    -24.87 kcal/mol
-----------------------------------------------------------------------
Final Gibbs free enthalpy         ...   -325.86823110 Eh

For completeness - the Gibbs free enthalpy minus the electronic energy
G-E(el)                           ...      0.12031899 Eh     75.50 kcal/mol

                             ****ORCA TERMINATED NORMALLY****
TOTAL RUN TIME: 0 days 0 hours 44 minutes 46 seconds 26 msec
