                         Program Version 3.0.3 - RELEASE   -
|  1> ! NORI PBE0 def2-TZVP UseSym TightOPT Freq TightSCF Grid3 FinalGrid5 XYZFile
|  2> % pal
|  3>     nprocs 8
|  4> end
|  5> %method
|  6>     SymThresh 5.0e-2
|  7> end
|  8> % geom
|  9>     MaxIter 10
| 10> end
| 11> % maxcore 2000
| 12> % output
| 13>     printlevel mini
| 14>     print[ P_Basis ] 0
| 15>     print[ P_SCFInfo ] 1
| 16>     print[ P_SCFIterInfo ] 1
| 17>     print[ P_OrbEn ] 0
| 18>     print[ P_Cartesian ] 0
| 19> end
| 20> % elprop
| 21>     Dipole false
| 22> end
| 23> *xyz 1 1
| 24>  C        2.9149813812     0.1915659477    -1.2795593153
| 25>  N        2.1420014921     0.0510651912    -0.0156768401
| 26>  C        2.8567555883    -0.7009986537     1.0655908850
| 27>  C        2.0535211238    -0.9734567225     2.3427717296
| 28>  C        2.5497710127    -2.4467738501     2.2967177862
| 29>  O        3.5153236677    -2.8090338043     3.2232160929
| 30>  C        3.0349913205    -2.2065469797     0.8385482746
| 31>  H        2.3082105536     0.7164430308    -2.0154738275
| 32>  H        3.1685903667    -0.8025004938    -1.6411355405
| 33>  H        3.8219924508     0.7552665537    -1.0708609705
| 34>  H        1.2585033359    -0.4260750210    -0.2089641612
| 35>  H        1.8896078447     0.9771906309     0.3360435405
| 36>  H        3.7896859730    -0.1599856813     1.2315432827
| 37>  H        0.9715359298    -0.9005198797     2.1971933366
| 38>  H        2.3237513319    -0.3960489402     3.2268663234
| 39>  H        1.7597783043    -3.1902325278     2.3909099881
| 40>  H        4.2708079230    -2.2141188198     3.2019822970
| 41>  H        4.0371299450    -2.5585855589     0.5954431099
| 42>  H        2.3343904550    -2.6162544216     0.1049640085
| 43> *
| 44>
| 45>                          ****END OF INPUT****
 Total Charge           Charge          ....    1
 Multiplicity           Mult            ....    1
 Number of Electrons    NEL             ....   56
FINAL SINGLE POINT ENERGY      -327.196746479598
FINAL SINGLE POINT ENERGY      -327.196748215965
FINAL SINGLE POINT ENERGY      -327.196750791073
FINAL SINGLE POINT ENERGY      -327.196752341283
FINAL SINGLE POINT ENERGY      -327.196753751326

CARTESIAN COORDINATES (ANGSTROEM)
---------------------------------
  C     -0.520783   -0.935160   -2.675782
  N      0.305659   -0.002603   -1.862244
  C      0.311496   -0.302303   -0.394023
  C      1.048460    0.703689    0.497881
  C     -0.167180    0.676217    1.467446
  O      0.000256   -0.015445    2.657041
  C     -0.996575   -0.031965    0.358296
  H     -0.485769   -0.628798   -3.719772
  H     -1.543938   -0.900419   -2.307696
  H     -0.118819   -1.940327   -2.565860
  H     -0.032236    0.953509   -1.993159
  H      1.268524   -0.009859   -2.206069
  H      0.674114   -1.327484   -0.305718
  H      1.172166    1.683620    0.027809
  H      2.008299    0.390774    0.908513
  H     -0.541252    1.658959    1.748997
  H      0.345398   -0.900923    2.509177
  H     -1.583916   -0.896950    0.664992
  H     -1.653608    0.669172   -0.165254

FINAL SINGLE POINT ENERGY      -327.196754402370
                    ***********************HURRAY********************
 Multiplicity           Mult            ....    1
 Number of Electrons    NEL             ....   56
 Basis Dimension        Dim             ....  289
FINAL SINGLE POINT ENERGY      -327.196754708847

VIBRATIONAL FREQUENCIES
-----------------------

   0:         0.00 cm**-1
   1:         0.00 cm**-1
   2:         0.00 cm**-1
   3:         0.00 cm**-1
   4:         0.00 cm**-1
   5:         0.00 cm**-1
   6:        53.93 cm**-1
   7:       110.00 cm**-1
   8:       180.90 cm**-1
   9:       226.18 cm**-1
  10:       244.19 cm**-1
  11:       330.26 cm**-1
  12:       370.42 cm**-1
  13:       434.68 cm**-1
  14:       449.44 cm**-1
  15:       652.69 cm**-1
  16:       780.42 cm**-1
  17:       830.79 cm**-1
  18:       831.72 cm**-1
  19:       900.34 cm**-1
  20:       946.54 cm**-1
  21:       976.66 cm**-1
  22:      1001.97 cm**-1
  23:      1009.80 cm**-1
  24:      1065.07 cm**-1
  25:      1068.49 cm**-1
  26:      1106.03 cm**-1
  27:      1171.90 cm**-1
  28:      1181.42 cm**-1
  29:      1218.94 cm**-1
  30:      1247.00 cm**-1
  31:      1267.11 cm**-1
  32:      1276.69 cm**-1
  33:      1295.76 cm**-1
  34:      1330.30 cm**-1
  35:      1356.85 cm**-1
  36:      1405.81 cm**-1
  37:      1427.69 cm**-1
  38:      1436.01 cm**-1
  39:      1451.43 cm**-1
  40:      1458.30 cm**-1
  41:      1478.36 cm**-1
  42:      1493.11 cm**-1
  43:      1495.70 cm**-1
  44:      1648.24 cm**-1
  45:      3069.03 cm**-1
  46:      3073.82 cm**-1
  47:      3093.23 cm**-1
  48:      3113.11 cm**-1
  49:      3137.29 cm**-1
  50:      3149.68 cm**-1
  51:      3152.26 cm**-1
  52:      3193.20 cm**-1
  53:      3197.90 cm**-1
  54:      3433.46 cm**-1
  55:      3484.32 cm**-1
  56:      3845.40 cm**-1

IR SPECTRUM
-----------

 Mode    freq (cm**-1)   T**2         TX         TY         TZ
-------------------------------------------------------------------
   6:        53.93    0.419215  ( -0.031310  -0.462729   0.451793)
   7:       110.00    3.396056  ( -1.774094   0.443398  -0.228134)
   8:       180.90    0.424393  (  0.500582  -0.411401  -0.067525)
   9:       226.18    7.629648  (  2.641245   0.309563   0.746756)
  10:       244.19  101.506397  (  9.350734   3.701772   0.605849)
  11:       330.26    5.175542  (  1.069238  -1.357892  -1.479325)
  12:       370.42    2.203452  ( -1.162201  -0.923429  -0.004340)
  13:       434.68    5.843869  (  2.238505   0.591052  -0.695428)
  14:       449.44    7.408387  ( -1.408904   0.072965  -2.327671)
  15:       652.69    9.089147  ( -0.651947   1.884011  -2.261551)
  16:       780.42    0.958579  (  0.890818   0.011273  -0.406072)
  17:       830.79   18.380605  (  0.531695   0.206592  -4.249144)
  18:       831.72    9.900763  (  2.274640  -1.965991  -0.928252)
  19:       900.34    7.666174  (  0.323422  -0.021215   2.749749)
  20:       946.54   16.921643  (  3.912395   1.229335   0.321784)
  21:       976.66    1.571136  ( -0.990649   0.612760   0.462899)
  22:      1001.97    7.460083  ( -1.208433  -1.772805  -1.690247)
  23:      1009.80    4.638464  ( -0.005849  -2.139539   0.246582)
  24:      1065.07   21.767431  (  1.277267  -0.166166   4.484240)
  25:      1068.49   28.048226  ( -0.188202   0.360736  -5.280405)
  26:      1106.03    2.664169  (  0.566034  -1.323337   0.769776)
  27:      1171.90  116.195683  (  0.686319  -4.756056   9.649071)
  28:      1181.42   31.089817  (  1.282198  -0.980540   5.337071)
  29:      1218.94    2.943029  (  1.498765   0.381553   0.742395)
  30:      1247.00    3.286762  (  0.346579   1.039975  -1.443987)
  31:      1267.11    0.260406  ( -0.271191  -0.142925  -0.407963)
  32:      1276.69   40.753428  (  0.689900  -1.014076  -6.264911)
  33:      1295.76    0.373831  (  0.270403   0.130805   0.532544)
  34:      1330.30    1.806530  (  0.322654  -0.050865  -1.303778)
  35:      1356.85    1.819236  ( -0.563433   1.182497   0.321682)
  36:      1405.81   28.370812  ( -2.594964  -0.607417  -4.611726)
  37:      1427.69   57.444627  ( -0.055468  -0.453694  -7.565429)
  38:      1436.01   18.184030  ( -0.203500  -1.588683   3.952051)
  39:      1451.43   16.964892  (  3.871163   1.393644   0.191696)
  40:      1458.30    7.752205  ( -1.102482  -1.044835  -2.333465)
  41:      1478.36    7.217368  (  0.133905  -1.898628   1.895956)
  42:      1493.11   22.061693  ( -3.699972   2.504509   1.448908)
  43:      1495.70   23.341226  ( -0.404558   2.125246  -4.319825)
  44:      1648.24   50.793801  ( -3.058669  -5.654699   3.076154)
  45:      3069.03    4.303027  (  1.691180   0.283735   1.167233)
  46:      3073.82    6.771466  (  0.404684   1.194221  -2.276298)
  47:      3093.23    0.028976  ( -0.090630  -0.131872  -0.058072)
  48:      3113.11    2.561987  ( -0.540551   1.250192   0.840720)
  49:      3137.29    5.129392  (  0.730651  -2.061000  -0.589763)
  50:      3149.68    1.637653  ( -1.090383   0.445554  -0.500199)
  51:      3152.26    4.458143  ( -0.218673   1.771162  -1.128411)
  52:      3193.20    0.166821  (  0.162296   0.364453  -0.087494)
  53:      3197.90    0.064914  ( -0.205487   0.042964   0.144371)
  54:      3433.46   40.083614  (  3.481865   4.335269  -3.027487)
  55:      3484.32   65.000990  (  6.629621  -4.389030  -1.336238)
  56:      3845.40   36.448299  ( -1.794216   5.041329  -2.795370)

--------------------------
THERMOCHEMISTRY AT 298.15K
--------------------------

Temperature         ... 298.15 K
Pressure            ... 1.00 atm
Total Mass          ... 102.16 AMU

Throughout the following assumptions are being made:
  (1) The electronic state is orbitally nondegenerate
  (2) There are no thermally accessible electronically excited states
  (3) Hindered rotations indicated by low frequency modes) are not
      treated as such but are treated as vibrations and this may
      case some error
  (4) All equations used are the standard statistical mechanics
      equations for an ideal gas
  (5) All vibrations are strinctly harmonic

------------
INNER ENERGY
------------

The inner energy is: U= E(el) + E(ZPE) + E(vib) + E(rot) + E(trans)
    E(el)   - is the total energy from the electronic structure calculation
              = E(kin-el) + E(nuc-el) + E(el-el) + E(nuc-nuc)
    E(ZPE)  - the the zero temperature vibrational energy from the frequency calculation
    E(vib)  - the the finite temperature correction to E(ZPE) due to population
              of excietd vibrational states
    E(rot)  - is the rotational thermal energy
    E(trans)- is the translational thermal energy

Summary of contributions to the inner energy U:
Electronic energy                ...   -327.19675471 Eh
Zero point energy                ...      0.17576937 Eh     110.30 kcal/mol
Thermal vibrational correction   ...      0.00523525 Eh       3.29 kcal/mol
Thermal rotational correction    ...      0.00141627 Eh       0.89 kcal/mol
Thermal translational correction ...      0.00141627 Eh       0.89 kcal/mol
-----------------------------------------------------------------------
Total thermal energy                   -327.01291754 Eh

Summary of corrections to the electronic energy:
(perhaps to be used in another calculation)
Total thermal correction                  0.00806779 Eh       5.06 kcal/mol
Non-thermal (ZPE) correction              0.17576937 Eh     110.30 kcal/mol
-----------------------------------------------------------------------
Total correction                          0.18383716 Eh     115.36 kcal/mol

--------
ENTHALPY
--------

The enthalpy is H = U + kB*T
                kB is Boltzmann's constant
Total free energy                 ...   -327.01291754 Eh
Thermal Enthalpy correction       ...      0.00094421 Eh       0.59 kcal/mol
-----------------------------------------------------------------------
Total Enthalpy                    ...   -327.01197334 Eh

-------
ENTROPY
-------

The entropy contributions are T*S = T*(S(el)+S(vib)+S(rot)+S(trans)
     S(el)   - electronic entropy
     S(vib)  - vibrational entropy
     S(rot)  - rotational entropy
     S(trans)- translational entropy
The entropies will be listed as mutliplied by the temperature to get
units of energy

Electronic entropy                ...      0.00000000 Eh      0.00 kcal/mol
Vibrational entropy               ...      0.00951998 Eh      5.97 kcal/mol
Rotational entropy                ...      0.01210246 Eh      7.59 kcal/mol
Translational entropy             ...      0.01890147 Eh     11.86 kcal/mol
-----------------------------------------------------------------------
Final entropy term                ...      0.04052391 Eh     25.43 kcal/mol

CAUTION: The rotational entropy is not quite correctly treated here
         because it includes a symmetry number that is not yet correctly
         implemented in ORCA!
For a nonlinear molecule the correct rotational entropy is:
    S(rot) = R*(ln(qrot/sn)+1.5)
    R    = 8.31441 J/mol/K = 1.987191683e-3 kcal/mol/K
    qrot = 246856.2467564
    sn is the rotational symmetry number. We have assumed 3 here
       if it is different for your molecule then you should correct
       the printed rotational entropy by manually evaluating the equation
       as given above

For convenience we print out the resulting values for sn=1 - 12:
 sn= 1  qrot/sn=  246856.2468 T*S(rot)=     8.25 kcal/mol T*S(tot)=    26.08 kcal/mol
 sn= 2  qrot/sn=  123428.1234 T*S(rot)=     7.83 kcal/mol T*S(tot)=    25.67 kcal/mol
 sn= 3  qrot/sn=   82285.4156 T*S(rot)=     7.59 kcal/mol T*S(tot)=    25.43 kcal/mol
 sn= 4  qrot/sn=   61714.0617 T*S(rot)=     7.42 kcal/mol T*S(tot)=    25.26 kcal/mol
 sn= 5  qrot/sn=   49371.2494 T*S(rot)=     7.29 kcal/mol T*S(tot)=    25.13 kcal/mol
 sn= 6  qrot/sn=   41142.7078 T*S(rot)=     7.18 kcal/mol T*S(tot)=    25.02 kcal/mol
 sn= 7  qrot/sn=   35265.1781 T*S(rot)=     7.09 kcal/mol T*S(tot)=    24.93 kcal/mol
 sn= 8  qrot/sn=   30857.0308 T*S(rot)=     7.01 kcal/mol T*S(tot)=    24.85 kcal/mol
 sn= 9  qrot/sn=   27428.4719 T*S(rot)=     6.94 kcal/mol T*S(tot)=    24.78 kcal/mol
 sn=10  qrot/sn=   24685.6247 T*S(rot)=     6.88 kcal/mol T*S(tot)=    24.72 kcal/mol
 sn=11  qrot/sn=   22441.4770 T*S(rot)=     6.82 kcal/mol T*S(tot)=    24.66 kcal/mol
 sn=12  qrot/sn=   20571.3539 T*S(rot)=     6.77 kcal/mol T*S(tot)=    24.61 kcal/mol

-------------------
GIBBS FREE ENTHALPY
-------------------

The Gibbs free enthalpy is G = H - T*S

Total enthalpy                    ...   -327.01197334 Eh
Total entropy correction          ...     -0.04052391 Eh    -25.43 kcal/mol
-----------------------------------------------------------------------
Final Gibbs free enthalpy         ...   -327.05249725 Eh

For completeness - the Gibbs free enthalpy minus the electronic energy
G-E(el)                           ...      0.14425746 Eh     90.52 kcal/mol

                             ****ORCA TERMINATED NORMALLY****
TOTAL RUN TIME: 0 days 0 hours 59 minutes 30 seconds 65 msec
