                         Program Version 3.0.3 - RELEASE   -
|  1> ! NORI PBE0 def2-TZVP UseSym TightOPT Freq TightSCF Grid3 FinalGrid5 XYZFile
|  2> % pal
|  3>     nprocs 8
|  4> end
|  5> %method
|  6>     SymThresh 5.0e-2
|  7> end
|  8> % geom
|  9>     MaxIter 10
| 10> end
| 11> % maxcore 2000
| 12> % output
| 13>     printlevel mini
| 14>     print[ P_Basis ] 0
| 15>     print[ P_SCFInfo ] 1
| 16>     print[ P_SCFIterInfo ] 1
| 17>     print[ P_OrbEn ] 0
| 18>     print[ P_Cartesian ] 0
| 19> end
| 20> % elprop
| 21>     Dipole false
| 22> end
| 23> *xyz 1 1
| 24>  C        2.5092421261     0.7146395837    -0.8574218425
| 25>  N        2.1515688293    -0.0051767771     0.4070970608
| 26>  C        2.9968461955    -1.2048797562     0.6416076745
| 27>  C        2.5943550152    -2.1635013355     1.7787051344
| 28>  N        2.4061452257    -3.1809745644     0.7509017283
| 29>  C        2.6619511011    -2.3839210378    -0.3144998630
| 30>  O        2.6137412989    -2.4929264834    -1.5006419659
| 31>  H        1.8126009679     1.5388601244    -0.9966782560
| 32>  H        2.4456933081     0.0025900199    -1.6783326508
| 33>  H        3.5257255132     1.0902725363    -0.7596602872
| 34>  H        1.1702978555    -0.2907504882     0.3589023769
| 35>  H        2.2254534392     0.6378811454     1.1985728777
| 36>  H        4.0400660444    -0.8920341137     0.6357311084
| 37>  H        1.6778662976    -1.8962320471     2.3147926602
| 38>  H        3.3888016753    -2.3737082169     2.4958814025
| 39>  H        2.1609651070    -4.1590585895     0.8091628418
| 40> *
| 41>
| 42>                          ****END OF INPUT****
 Total Charge           Charge          ....    1
 Multiplicity           Mult            ....    1
 Number of Electrons    NEL             ....   54
FINAL SINGLE POINT ENERGY      -342.045773567512

CARTESIAN COORDINATES (ANGSTROEM)
---------------------------------
  C      2.285771    0.706695   -0.333296
  N      1.173095   -0.000016   -1.045593
  C     -0.170243    0.440015   -0.586186
  C     -1.397397   -0.359212   -1.064471
  N     -1.635151   -0.685582    0.337044
  C     -0.529630   -0.080066    0.833890
  O      0.001295    0.000569    1.898165
  H      3.233303    0.291131   -0.670656
  H      2.148499    0.556413    0.735894
  H      2.228129    1.765545   -0.577428
  H      1.267466   -1.006769   -0.889875
  H      1.266102    0.145132   -2.053360
  H     -0.234305    1.520301   -0.708487
  H     -1.175250   -1.227441   -1.692850
  H     -2.174235    0.243866   -1.535880
  H     -2.377291   -1.197589    0.792245

FINAL SINGLE POINT ENERGY      -342.045774328044
                    ***********************HURRAY********************
 Multiplicity           Mult            ....    1
 Number of Electrons    NEL             ....   54
 Basis Dimension        Dim             ....  271
FINAL SINGLE POINT ENERGY      -342.045774659583

VIBRATIONAL FREQUENCIES
-----------------------

   0:         0.00 cm**-1
   1:         0.00 cm**-1
   2:         0.00 cm**-1
   3:         0.00 cm**-1
   4:         0.00 cm**-1
   5:         0.00 cm**-1
   6:        96.96 cm**-1
   7:       131.41 cm**-1
   8:       175.44 cm**-1
   9:       246.16 cm**-1
  10:       283.70 cm**-1
  11:       378.23 cm**-1
  12:       494.00 cm**-1
  13:       542.89 cm**-1
  14:       703.74 cm**-1
  15:       763.40 cm**-1
  16:       795.57 cm**-1
  17:       868.24 cm**-1
  18:       931.55 cm**-1
  19:       978.43 cm**-1
  20:      1018.68 cm**-1
  21:      1048.20 cm**-1
  22:      1103.01 cm**-1
  23:      1126.36 cm**-1
  24:      1157.33 cm**-1
  25:      1212.52 cm**-1
  26:      1213.77 cm**-1
  27:      1227.33 cm**-1
  28:      1319.96 cm**-1
  29:      1340.09 cm**-1
  30:      1396.82 cm**-1
  31:      1420.18 cm**-1
  32:      1434.03 cm**-1
  33:      1460.04 cm**-1
  34:      1490.41 cm**-1
  35:      1500.51 cm**-1
  36:      1521.92 cm**-1
  37:      1651.53 cm**-1
  38:      1928.35 cm**-1
  39:      3063.87 cm**-1
  40:      3090.62 cm**-1
  41:      3133.71 cm**-1
  42:      3151.56 cm**-1
  43:      3196.40 cm**-1
  44:      3199.01 cm**-1
  45:      3429.78 cm**-1
  46:      3480.18 cm**-1
  47:      3620.29 cm**-1

IR SPECTRUM
-----------

 Mode    freq (cm**-1)   T**2         TX         TY         TZ
-------------------------------------------------------------------
   6:        96.96    1.130530  ( -0.795275  -0.138451  -0.692025)
   7:       131.41    1.007532  (  0.849968  -0.039801  -0.532450)
   8:       175.44   11.307692  (  2.154897   1.152322  -2.310036)
   9:       246.16    2.053855  (  0.553286   0.337363  -1.278247)
  10:       283.70   10.080180  ( -0.411866   2.836055  -1.366505)
  11:       378.23    6.636165  ( -0.285938   2.198476   1.311910)
  12:       494.00   27.118543  ( -4.262014   2.835004   0.957360)
  13:       542.89  101.061638  (  5.020966  -8.635697  -1.129720)
  14:       703.74    6.534964  ( -1.718708   1.780800   0.640125)
  15:       763.40    4.334994  (  0.194437   0.097543   2.070670)
  16:       795.57   24.347351  (  2.650140   2.462138  -3.355888)
  17:       868.24    8.155447  ( -0.675658   2.372741  -1.438414)
  18:       931.55    0.763513  (  0.539313   0.684248   0.066775)
  19:       978.43   10.576936  ( -2.566688  -1.974676  -0.299503)
  20:      1018.68    5.469712  (  0.475435   0.482606  -2.238474)
  21:      1048.20   14.656347  ( -3.769335   0.006309  -0.669644)
  22:      1103.01    3.705110  ( -1.237859   1.048555  -1.036024)
  23:      1126.36    4.810996  ( -1.667181   0.162708  -1.415991)
  24:      1157.33    4.094260  ( -1.856285  -0.448462  -0.668841)
  25:      1212.52   59.857659  (  6.570053   4.043074  -0.587896)
  26:      1213.77    4.117195  (  1.791528   0.896275  -0.322977)
  27:      1227.33    4.425494  ( -2.021630  -0.509513   0.280897)
  28:      1319.96   34.208781  ( -1.235186  -0.092231  -5.716169)
  29:      1340.09    2.097399  ( -0.541530  -1.149956   0.694079)
  30:      1396.82    3.570398  ( -1.605381   0.839761   0.536609)
  31:      1420.18   67.995054  ( -7.878241  -2.122537  -1.192981)
  32:      1434.03    5.627235  (  0.636931   0.658347   2.188180)
  33:      1460.04   10.480293  (  2.706021   0.974940   1.485677)
  34:      1490.41   21.862373  (  0.426555   2.580756  -3.875580)
  35:      1500.51   24.479191  (  4.221197  -2.428200  -0.874371)
  36:      1521.92    2.654993  (  0.377190   1.580626  -0.119765)
  37:      1651.53   46.363244  ( -1.918551   5.004540   4.199641)
  38:      1928.35  515.027307  (-11.943440  -4.156461 -18.844240)
  39:      3063.87   18.862263  ( -0.664773   1.173993   4.128205)
  40:      3090.62    2.272606  (  0.633746   0.380598  -1.313817)
  41:      3133.71    3.377263  ( -1.057376   1.266213  -0.809892)
  42:      3151.56    0.579307  ( -0.137781   0.607021  -0.438006)
  43:      3196.40    0.430376  (  0.280771   0.452458  -0.383178)
  44:      3199.01    5.449110  ( -1.161493  -0.219092   2.012969)
  45:      3429.78   45.805667  (  1.718029  -4.513878  -4.741197)
  46:      3480.18   79.897350  ( -0.158837  -5.981555   6.640265)
  47:      3620.29  116.049669  ( -8.722512  -5.460502   3.185963)

--------------------------
THERMOCHEMISTRY AT 298.15K
--------------------------

Temperature         ... 298.15 K
Pressure            ... 1.00 atm
Total Mass          ... 101.13 AMU

Throughout the following assumptions are being made:
  (1) The electronic state is orbitally nondegenerate
  (2) There are no thermally accessible electronically excited states
  (3) Hindered rotations indicated by low frequency modes) are not
      treated as such but are treated as vibrations and this may
      case some error
  (4) All equations used are the standard statistical mechanics
      equations for an ideal gas
  (5) All vibrations are strinctly harmonic

------------
INNER ENERGY
------------

The inner energy is: U= E(el) + E(ZPE) + E(vib) + E(rot) + E(trans)
    E(el)   - is the total energy from the electronic structure calculation
              = E(kin-el) + E(nuc-el) + E(el-el) + E(nuc-nuc)
    E(ZPE)  - the the zero temperature vibrational energy from the frequency calculation
    E(vib)  - the the finite temperature correction to E(ZPE) due to population
              of excietd vibrational states
    E(rot)  - is the rotational thermal energy
    E(trans)- is the translational thermal energy

Summary of contributions to the inner energy U:
Electronic energy                ...   -342.04577466 Eh
Zero point energy                ...      0.14198949 Eh      89.10 kcal/mol
Thermal vibrational correction   ...      0.00437629 Eh       2.75 kcal/mol
Thermal rotational correction    ...      0.00141627 Eh       0.89 kcal/mol
Thermal translational correction ...      0.00141627 Eh       0.89 kcal/mol
-----------------------------------------------------------------------
Total thermal energy                   -341.89657634 Eh

Summary of corrections to the electronic energy:
(perhaps to be used in another calculation)
Total thermal correction                  0.00720883 Eh       4.52 kcal/mol
Non-thermal (ZPE) correction              0.14198949 Eh      89.10 kcal/mol
-----------------------------------------------------------------------
Total correction                          0.14919832 Eh      93.62 kcal/mol

--------
ENTHALPY
--------

The enthalpy is H = U + kB*T
                kB is Boltzmann's constant
Total free energy                 ...   -341.89657634 Eh
Thermal Enthalpy correction       ...      0.00094421 Eh       0.59 kcal/mol
-----------------------------------------------------------------------
Total Enthalpy                    ...   -341.89563213 Eh

-------
ENTROPY
-------

The entropy contributions are T*S = T*(S(el)+S(vib)+S(rot)+S(trans)
     S(el)   - electronic entropy
     S(vib)  - vibrational entropy
     S(rot)  - rotational entropy
     S(trans)- translational entropy
The entropies will be listed as mutliplied by the temperature to get
units of energy

Electronic entropy                ...      0.00000000 Eh      0.00 kcal/mol
Vibrational entropy               ...      0.00765014 Eh      4.80 kcal/mol
Rotational entropy                ...      0.01198035 Eh      7.52 kcal/mol
Translational entropy             ...      0.01888714 Eh     11.85 kcal/mol
-----------------------------------------------------------------------
Final entropy term                ...      0.03851764 Eh     24.17 kcal/mol

CAUTION: The rotational entropy is not quite correctly treated here
         because it includes a symmetry number that is not yet correctly
         implemented in ORCA!
For a nonlinear molecule the correct rotational entropy is:
    S(rot) = R*(ln(qrot/sn)+1.5)
    R    = 8.31441 J/mol/K = 1.987191683e-3 kcal/mol/K
    qrot = 216908.1501692
    sn is the rotational symmetry number. We have assumed 3 here
       if it is different for your molecule then you should correct
       the printed rotational entropy by manually evaluating the equation
       as given above

For convenience we print out the resulting values for sn=1 - 12:
 sn= 1  qrot/sn=  216908.1502 T*S(rot)=     8.17 kcal/mol T*S(tot)=    24.82 kcal/mol
 sn= 2  qrot/sn=  108454.0751 T*S(rot)=     7.76 kcal/mol T*S(tot)=    24.41 kcal/mol
 sn= 3  qrot/sn=   72302.7167 T*S(rot)=     7.52 kcal/mol T*S(tot)=    24.17 kcal/mol
 sn= 4  qrot/sn=   54227.0375 T*S(rot)=     7.35 kcal/mol T*S(tot)=    24.00 kcal/mol
 sn= 5  qrot/sn=   43381.6300 T*S(rot)=     7.22 kcal/mol T*S(tot)=    23.87 kcal/mol
 sn= 6  qrot/sn=   36151.3584 T*S(rot)=     7.11 kcal/mol T*S(tot)=    23.76 kcal/mol
 sn= 7  qrot/sn=   30986.8786 T*S(rot)=     7.02 kcal/mol T*S(tot)=    23.67 kcal/mol
 sn= 8  qrot/sn=   27113.5188 T*S(rot)=     6.94 kcal/mol T*S(tot)=    23.59 kcal/mol
 sn= 9  qrot/sn=   24100.9056 T*S(rot)=     6.87 kcal/mol T*S(tot)=    23.52 kcal/mol
 sn=10  qrot/sn=   21690.8150 T*S(rot)=     6.80 kcal/mol T*S(tot)=    23.46 kcal/mol
 sn=11  qrot/sn=   19718.9227 T*S(rot)=     6.75 kcal/mol T*S(tot)=    23.40 kcal/mol
 sn=12  qrot/sn=   18075.6792 T*S(rot)=     6.70 kcal/mol T*S(tot)=    23.35 kcal/mol

-------------------
GIBBS FREE ENTHALPY
-------------------

The Gibbs free enthalpy is G = H - T*S

Total enthalpy                    ...   -341.89563213 Eh
Total entropy correction          ...     -0.03851764 Eh    -24.17 kcal/mol
-----------------------------------------------------------------------
Final Gibbs free enthalpy         ...   -341.93414977 Eh

For completeness - the Gibbs free enthalpy minus the electronic energy
G-E(el)                           ...      0.11162489 Eh     70.05 kcal/mol

                             ****ORCA TERMINATED NORMALLY****
TOTAL RUN TIME: 0 days 0 hours 37 minutes 6 seconds 329 msec
