                         Program Version 3.0.3 - RELEASE   -
|  1> ! NORI PBE0 def2-TZVP UseSym TightOPT Freq TightSCF Grid3 FinalGrid5 XYZFile
|  2> % pal
|  3>     nprocs 8
|  4> end
|  5> %method
|  6>     SymThresh 5.0e-2
|  7> end
|  8> % geom
|  9>     MaxIter 10
| 10> end
| 11> % maxcore 2000
| 12> % output
| 13>     printlevel mini
| 14>     print[ P_Basis ] 0
| 15>     print[ P_SCFInfo ] 1
| 16>     print[ P_SCFIterInfo ] 1
| 17>     print[ P_OrbEn ] 0
| 18>     print[ P_Cartesian ] 0
| 19> end
| 20> % elprop
| 21>     Dipole false
| 22> end
| 23> *xyz 1 1
| 24>  C        2.1680106639    -1.4197611351     0.1680940147
| 25>  N        2.3306086617     0.0368777668    -0.0982538219
| 26>  C        2.9399635704     0.8034320750     1.0284015313
| 27>  C        2.9443327658     2.3219884101     0.8682445300
| 28>  O        2.2201946764     2.4782176631     2.0844228462
| 29>  C        2.0213195718     1.0640180103     2.2343145107
| 30>  C        2.4299787130     0.5484249004     3.5827681855
| 31>  H        1.7123236757    -1.8920393147    -0.7004538281
| 32>  H        1.5295470119    -1.5436224819     1.0402235930
| 33>  H        3.1496668272    -1.8486696869     0.3585267868
| 34>  H        1.4185977691     0.4478125003    -0.3138310595
| 35>  H        2.9019514292     0.1654500683    -0.9368139953
| 36>  H        3.8977938922     0.3363234741     1.2550296651
| 37>  H        2.3861122291     2.6920786049    -0.0032488134
| 38>  H        3.9225726925     2.8052098690     0.8946983157
| 39>  H        0.9726749687     0.8016083990     2.0197962266
| 40>  H        3.4776448139     0.7756230144     3.7875315113
| 41>  H        2.2768060955    -0.5318086543     3.6536433998
| 42>  H        1.8212599719     1.0257365169     4.3518664015
| 43> *
| 44>
| 45>                          ****END OF INPUT****
 Total Charge           Charge          ....    1
 Multiplicity           Mult            ....    1
 Number of Electrons    NEL             ....   56
FINAL SINGLE POINT ENERGY      -327.187306137131
FINAL SINGLE POINT ENERGY      -327.187308159896
FINAL SINGLE POINT ENERGY      -327.187309729109

CARTESIAN COORDINATES (ANGSTROEM)
---------------------------------
  C      0.383061    0.480419   -2.482356
  N      1.104146   -0.003597   -1.271860
  C      0.214095   -0.555743   -0.208055
  C      0.892075   -0.868011    1.124553
  O      0.003270    0.006814    1.811343
  C     -0.588234    0.483043    0.593181
  C     -2.086429    0.400858    0.589292
  H      1.106183    0.872969   -3.194919
  H     -0.310344    1.263301   -2.182982
  H     -0.160676   -0.354813   -2.919193
  H      1.649077    0.764081   -0.870954
  H      1.783337   -0.717811   -1.544704
  H     -0.367599   -1.359429   -0.658496
  H      1.939342   -0.541522    1.192910
  H      0.819050   -1.901107    1.469601
  H     -0.255016    1.512974    0.384150
  H     -2.423121   -0.622051    0.767328
  H     -2.496425    0.752190   -0.361131
  H     -2.486097    1.034290    1.382908

FINAL SINGLE POINT ENERGY      -327.187310263755
                    ***********************HURRAY********************
 Multiplicity           Mult            ....    1
 Number of Electrons    NEL             ....   56
 Basis Dimension        Dim             ....  289
FINAL SINGLE POINT ENERGY      -327.187311013187

VIBRATIONAL FREQUENCIES
-----------------------

   0:         0.00 cm**-1
   1:         0.00 cm**-1
   2:         0.00 cm**-1
   3:         0.00 cm**-1
   4:         0.00 cm**-1
   5:         0.00 cm**-1
   6:        24.86 cm**-1
   7:        98.68 cm**-1
   8:       179.85 cm**-1
   9:       222.24 cm**-1
  10:       230.68 cm**-1
  11:       286.39 cm**-1
  12:       350.87 cm**-1
  13:       413.47 cm**-1
  14:       493.37 cm**-1
  15:       701.94 cm**-1
  16:       793.21 cm**-1
  17:       855.20 cm**-1
  18:       908.80 cm**-1
  19:       924.56 cm**-1
  20:       993.63 cm**-1
  21:      1029.32 cm**-1
  22:      1050.47 cm**-1
  23:      1064.05 cm**-1
  24:      1093.86 cm**-1
  25:      1120.96 cm**-1
  26:      1150.07 cm**-1
  27:      1163.20 cm**-1
  28:      1185.44 cm**-1
  29:      1219.12 cm**-1
  30:      1266.45 cm**-1
  31:      1291.13 cm**-1
  32:      1337.54 cm**-1
  33:      1364.34 cm**-1
  34:      1380.79 cm**-1
  35:      1411.65 cm**-1
  36:      1415.11 cm**-1
  37:      1434.09 cm**-1
  38:      1459.59 cm**-1
  39:      1473.06 cm**-1
  40:      1484.90 cm**-1
  41:      1493.25 cm**-1
  42:      1494.99 cm**-1
  43:      1517.50 cm**-1
  44:      1647.37 cm**-1
  45:      2978.13 cm**-1
  46:      3016.19 cm**-1
  47:      3058.84 cm**-1
  48:      3093.74 cm**-1
  49:      3115.62 cm**-1
  50:      3137.81 cm**-1
  51:      3138.77 cm**-1
  52:      3152.52 cm**-1
  53:      3194.31 cm**-1
  54:      3198.70 cm**-1
  55:      3427.58 cm**-1
  56:      3477.66 cm**-1

IR SPECTRUM
-----------

 Mode    freq (cm**-1)   T**2         TX         TY         TZ
-------------------------------------------------------------------
   7:        98.68    3.852480  (  0.012610  -1.962344  -0.039063)
   8:       179.85    1.051911  ( -0.644655   0.027479   0.797230)
   9:       222.24    1.101135  ( -0.246322   0.849980  -0.563910)
  10:       230.68    0.388148  ( -0.149063   0.525266  -0.300040)
  11:       286.39    4.119414  ( -0.102492  -0.489837  -1.966970)
  12:       350.87    6.360230  (  2.492170   0.010679  -0.386270)
  13:       413.47    2.669121  ( -0.829946  -0.059864   1.405962)
  14:       493.37    2.976093  (  0.451388   0.524818   1.580161)
  15:       701.94    0.446090  (  0.626902  -0.230329   0.005628)
  16:       793.21   11.480710  ( -1.266599   2.038908   2.391504)
  17:       855.20    4.330337  ( -0.718702  -1.915780  -0.378932)
  18:       908.80   21.428557  ( -1.744583   0.973449  -4.175809)
  19:       924.56    6.073293  ( -0.692575   1.913749   1.389675)
  20:       993.63    2.477750  (  1.037404   0.804251   0.868748)
  21:      1029.32   25.128272  ( -0.520640   2.595078  -4.257085)
  22:      1050.47   16.147789  ( -3.013168   2.646500   0.254248)
  23:      1064.05   15.471673  ( -2.439172   2.256292   2.105055)
  24:      1093.86   56.031420  (  6.238025  -4.123519  -0.339199)
  25:      1120.96   29.367847  (  2.131092  -2.591316   4.255746)
  26:      1150.07    7.257509  (  0.417392  -1.170198   2.390383)
  27:      1163.20    3.215666  (  0.063895  -1.386652   1.135245)
  28:      1185.44    6.989058  ( -1.339055   1.553692  -1.667941)
  29:      1219.12    1.509024  ( -0.838952  -0.062155  -0.895165)
  30:      1266.45    5.855855  (  1.445178  -1.683883   0.965326)
  31:      1291.13    2.141207  ( -0.558901   0.826574   1.070332)
  32:      1337.54    4.190380  ( -1.107908   1.567224   0.711849)
  33:      1364.34    2.019226  ( -0.365989   0.896007  -1.040409)
  34:      1380.79    4.301948  ( -1.609563   1.235992  -0.428464)
  35:      1411.65   31.164836  (  0.577521  -2.190130   5.102415)
  36:      1415.11   27.562420  ( -4.919218  -0.385763   1.793015)
  37:      1434.09   11.378398  (  0.198759   1.363021  -3.079134)
  38:      1459.59    7.804130  ( -1.178270   1.387449  -2.119150)
  39:      1473.06    8.912034  (  0.566863   2.412680   1.664235)
  40:      1484.90    8.111746  (  0.090924  -0.931737   2.689860)
  41:      1493.25   21.196705  (  1.932343  -2.786732  -3.113981)
  42:      1494.99   28.266755  ( -2.410425  -4.029686   2.493640)
  43:      1517.50    5.794069  (  2.296015   0.580968   0.429951)
  44:      1647.37   58.155421  ( -7.555812  -0.889080  -0.524084)
  45:      2978.13   38.632146  (  1.447145   5.037198  -3.341340)
  46:      3016.19   38.790187  ( -6.089319   0.296796   1.273693)
  47:      3058.84    2.708784  ( -0.723703  -0.293440  -1.448769)
  48:      3093.74    0.075041  (  0.243403  -0.037536  -0.119944)
  49:      3115.62    5.725991  (  0.239481  -2.275058   0.701962)
  50:      3137.81    1.366907  ( -0.160792  -0.605004  -0.987433)
  51:      3138.77    6.982379  ( -0.015510   1.773920  -1.958404)
  52:      3152.52    2.271235  ( -0.378317  -1.454318  -0.114324)
  53:      3194.31    0.254802  (  0.439733   0.227965   0.097309)
  54:      3198.70    0.056049  ( -0.031525   0.146326   0.183423)
  55:      3427.58   43.019907  (  6.534952   0.388031   0.404645)
  56:      3477.66   71.320672  (  1.558925  -7.468906  -3.620202)

--------------------------
THERMOCHEMISTRY AT 298.15K
--------------------------

Temperature         ... 298.15 K
Pressure            ... 1.00 atm
Total Mass          ... 102.16 AMU

Throughout the following assumptions are being made:
  (1) The electronic state is orbitally nondegenerate
  (2) There are no thermally accessible electronically excited states
  (3) Hindered rotations indicated by low frequency modes) are not
      treated as such but are treated as vibrations and this may
      case some error
  (4) All equations used are the standard statistical mechanics
      equations for an ideal gas
  (5) All vibrations are strinctly harmonic

------------
INNER ENERGY
------------

The inner energy is: U= E(el) + E(ZPE) + E(vib) + E(rot) + E(trans)
    E(el)   - is the total energy from the electronic structure calculation
              = E(kin-el) + E(nuc-el) + E(el-el) + E(nuc-nuc)
    E(ZPE)  - the the zero temperature vibrational energy from the frequency calculation
    E(vib)  - the the finite temperature correction to E(ZPE) due to population
              of excietd vibrational states
    E(rot)  - is the rotational thermal energy
    E(trans)- is the translational thermal energy

Summary of contributions to the inner energy U:
Electronic energy                ...   -327.18731101 Eh
Zero point energy                ...      0.17539851 Eh     110.06 kcal/mol
Thermal vibrational correction   ...      0.00440855 Eh       2.77 kcal/mol
Thermal rotational correction    ...      0.00141627 Eh       0.89 kcal/mol
Thermal translational correction ...      0.00141627 Eh       0.89 kcal/mol
-----------------------------------------------------------------------
Total thermal energy                   -327.00467141 Eh

Summary of corrections to the electronic energy:
(perhaps to be used in another calculation)
Total thermal correction                  0.00724109 Eh       4.54 kcal/mol
Non-thermal (ZPE) correction              0.17539851 Eh     110.06 kcal/mol
-----------------------------------------------------------------------
Total correction                          0.18263960 Eh     114.61 kcal/mol

--------
ENTHALPY
--------

The enthalpy is H = U + kB*T
                kB is Boltzmann's constant
Total free energy                 ...   -327.00467141 Eh
Thermal Enthalpy correction       ...      0.00094421 Eh       0.59 kcal/mol
-----------------------------------------------------------------------
Total Enthalpy                    ...   -327.00372721 Eh

-------
ENTROPY
-------

The entropy contributions are T*S = T*(S(el)+S(vib)+S(rot)+S(trans)
     S(el)   - electronic entropy
     S(vib)  - vibrational entropy
     S(rot)  - rotational entropy
     S(trans)- translational entropy
The entropies will be listed as mutliplied by the temperature to get
units of energy

Electronic entropy                ...      0.00000000 Eh      0.00 kcal/mol
Vibrational entropy               ...      0.00745988 Eh      4.68 kcal/mol
Rotational entropy                ...      0.01211785 Eh      7.60 kcal/mol
Translational entropy             ...      0.01890147 Eh     11.86 kcal/mol
-----------------------------------------------------------------------
Final entropy term                ...      0.03847919 Eh     24.15 kcal/mol

CAUTION: The rotational entropy is not quite correctly treated here
         because it includes a symmetry number that is not yet correctly
         implemented in ORCA!
For a nonlinear molecule the correct rotational entropy is:
    S(rot) = R*(ln(qrot/sn)+1.5)
    R    = 8.31441 J/mol/K = 1.987191683e-3 kcal/mol/K
    qrot = 250912.0078273
    sn is the rotational symmetry number. We have assumed 3 here
       if it is different for your molecule then you should correct
       the printed rotational entropy by manually evaluating the equation
       as given above

For convenience we print out the resulting values for sn=1 - 12:
 sn= 1  qrot/sn=  250912.0078 T*S(rot)=     8.25 kcal/mol T*S(tot)=    24.80 kcal/mol
 sn= 2  qrot/sn=  125456.0039 T*S(rot)=     7.84 kcal/mol T*S(tot)=    24.39 kcal/mol
 sn= 3  qrot/sn=   83637.3359 T*S(rot)=     7.60 kcal/mol T*S(tot)=    24.15 kcal/mol
 sn= 4  qrot/sn=   62728.0020 T*S(rot)=     7.43 kcal/mol T*S(tot)=    23.98 kcal/mol
 sn= 5  qrot/sn=   50182.4016 T*S(rot)=     7.30 kcal/mol T*S(tot)=    23.84 kcal/mol
 sn= 6  qrot/sn=   41818.6680 T*S(rot)=     7.19 kcal/mol T*S(tot)=    23.74 kcal/mol
 sn= 7  qrot/sn=   35844.5725 T*S(rot)=     7.10 kcal/mol T*S(tot)=    23.64 kcal/mol
 sn= 8  qrot/sn=   31364.0010 T*S(rot)=     7.02 kcal/mol T*S(tot)=    23.56 kcal/mol
 sn= 9  qrot/sn=   27879.1120 T*S(rot)=     6.95 kcal/mol T*S(tot)=    23.50 kcal/mol
 sn=10  qrot/sn=   25091.2008 T*S(rot)=     6.89 kcal/mol T*S(tot)=    23.43 kcal/mol
 sn=11  qrot/sn=   22810.1825 T*S(rot)=     6.83 kcal/mol T*S(tot)=    23.38 kcal/mol
 sn=12  qrot/sn=   20909.3340 T*S(rot)=     6.78 kcal/mol T*S(tot)=    23.32 kcal/mol

-------------------
GIBBS FREE ENTHALPY
-------------------

The Gibbs free enthalpy is G = H - T*S

Total enthalpy                    ...   -327.00372721 Eh
Total entropy correction          ...     -0.03847919 Eh    -24.15 kcal/mol
-----------------------------------------------------------------------
Final Gibbs free enthalpy         ...   -327.04220640 Eh

For completeness - the Gibbs free enthalpy minus the electronic energy
G-E(el)                           ...      0.14510462 Eh     91.05 kcal/mol

                             ****ORCA TERMINATED NORMALLY****
TOTAL RUN TIME: 0 days 0 hours 56 minutes 26 seconds 267 msec
