                         Program Version 3.0.3 - RELEASE   -
|  1> ! NORI PBE0 def2-TZVP UseSym TightOPT Freq TightSCF Grid3 FinalGrid5 XYZFile
|  2> % pal
|  3>     nprocs 8
|  4> end
|  5> %method
|  6>     SymThresh 5.0e-2
|  7> end
|  8> % geom
|  9>     MaxIter 10
| 10> end
| 11> % maxcore 2000
| 12> % output
| 13>     printlevel mini
| 14>     print[ P_Basis ] 0
| 15>     print[ P_SCFInfo ] 1
| 16>     print[ P_SCFIterInfo ] 1
| 17>     print[ P_OrbEn ] 0
| 18>     print[ P_Cartesian ] 0
| 19> end
| 20> % elprop
| 21>     Dipole false
| 22> end
| 23> *xyz 1 1
| 24>  C        3.1345333712     0.4772910438    -1.1176901325
| 25>  N        2.2280163061     0.2085008169     0.0465987101
| 26>  C        2.8081645741    -0.7473426217     1.0252771301
| 27>  C        1.9145404378    -1.3299187438     2.1183073240
| 28>  O        2.1388088870    -2.6628065093     1.5828085213
| 29>  C        2.8469911137    -2.2035713366     0.5308620394
| 30>  O        3.2695673380    -2.7606040599    -0.4169231642
| 31>  H        2.6210205980     1.1461395647    -1.8060048335
| 32>  H        3.3643893202    -0.4727182782    -1.5956984363
| 33>  H        4.0429631437     0.9436112038    -0.7422249202
| 34>  H        1.3388216396    -0.1578563381    -0.3031735225
| 35>  H        2.0084064561     1.0910108841     0.5149473546
| 36>  H        3.7701983205    -0.3580106174     1.3563538971
| 37>  H        0.8552215826    -1.0690068243     2.0736116348
| 38>  H        2.2934269116    -1.2414481840     3.1345483978
| 39> *
| 40>
| 41>                          ****END OF INPUT****
 Total Charge           Charge          ....    1
 Multiplicity           Mult            ....    1
 Number of Electrons    NEL             ....   54
FINAL SINGLE POINT ENERGY      -361.891941947204

CARTESIAN COORDINATES (ANGSTROEM)
---------------------------------
  C      0.161199   -0.206668   -2.433301
  N     -0.801296   -0.447554   -1.308543
  C     -0.580837    0.459856   -0.152603
  C     -1.289717    0.170177    1.169150
  O      0.000694   -0.000773    1.816709
  C      0.684005    0.138720    0.662306
  O      1.828495   -0.000095    0.421630
  H     -0.034847   -0.936729   -3.216241
  H      1.171614   -0.314052   -2.043946
  H      0.003190    0.802805   -2.807605
  H     -0.715048   -1.419951   -1.000863
  H     -1.758552   -0.341178   -1.653297
  H     -0.639499    1.488266   -0.507450
  H     -1.872017   -0.752109    1.219025
  H     -1.843163    1.002125    1.600182

FINAL SINGLE POINT ENERGY      -361.891942892267
                    ***********************HURRAY********************
 Multiplicity           Mult            ....    1
 Number of Electrons    NEL             ....   54
 Basis Dimension        Dim             ....  265
FINAL SINGLE POINT ENERGY      -361.891943219584

VIBRATIONAL FREQUENCIES
-----------------------

   0:         0.00 cm**-1
   1:         0.00 cm**-1
   2:         0.00 cm**-1
   3:         0.00 cm**-1
   4:         0.00 cm**-1
   5:         0.00 cm**-1
   6:        97.21 cm**-1
   7:       133.06 cm**-1
   8:       172.72 cm**-1
   9:       244.12 cm**-1
  10:       302.47 cm**-1
  11:       387.71 cm**-1
  12:       516.78 cm**-1
  13:       694.43 cm**-1
  14:       756.46 cm**-1
  15:       800.03 cm**-1
  16:       863.78 cm**-1
  17:       938.26 cm**-1
  18:       975.46 cm**-1
  19:      1001.69 cm**-1
  20:      1049.18 cm**-1
  21:      1111.36 cm**-1
  22:      1135.09 cm**-1
  23:      1158.12 cm**-1
  24:      1162.40 cm**-1
  25:      1216.00 cm**-1
  26:      1243.39 cm**-1
  27:      1336.72 cm**-1
  28:      1360.42 cm**-1
  29:      1410.66 cm**-1
  30:      1432.07 cm**-1
  31:      1461.53 cm**-1
  32:      1490.24 cm**-1
  33:      1498.35 cm**-1
  34:      1510.75 cm**-1
  35:      1652.96 cm**-1
  36:      1973.42 cm**-1
  37:      3092.27 cm**-1
  38:      3096.25 cm**-1
  39:      3145.54 cm**-1
  40:      3176.36 cm**-1
  41:      3197.84 cm**-1
  42:      3201.53 cm**-1
  43:      3425.39 cm**-1
  44:      3474.58 cm**-1

IR SPECTRUM
-----------

 Mode    freq (cm**-1)   T**2         TX         TY         TZ
-------------------------------------------------------------------
   6:        97.21    3.174572  (  0.986475  -1.077663  -1.019844)
   7:       133.06    0.491057  ( -0.181040  -0.439488   0.514909)
   8:       172.72   11.723606  ( -1.317098  -0.964471  -3.009760)
   9:       244.12    2.291423  (  1.073436  -0.501464   0.942174)
  10:       302.47    6.318456  ( -1.666173  -1.130423  -1.504815)
  11:       387.71    1.959923  (  0.525229  -0.287626  -1.265436)
  12:       516.78    2.966022  (  1.116014  -0.788618   1.048149)
  13:       694.43    3.759900  ( -0.687832  -1.810897   0.086246)
  14:       756.46    2.910696  (  1.038984  -1.316405   0.313505)
  15:       800.03   17.701644  (  2.878151  -1.509208   2.672112)
  16:       863.78    4.193810  (  0.756940  -1.755652   0.733853)
  17:       938.26    6.051409  (  1.735764   0.066412   1.741874)
  18:       975.46    8.611059  (  0.234294  -0.848915   2.799198)
  19:      1001.69   69.577100  ( -8.258825   0.459103   1.076169)
  20:      1049.18   29.274302  ( -2.978318   1.179493   4.360358)
  21:      1111.36    5.526856  ( -0.600321  -1.680458   1.530533)
  22:      1135.09    9.668762  ( -2.797281   0.413185   1.293546)
  23:      1158.12  132.352840  ( -2.803095  -1.297094  11.082105)
  24:      1162.40    1.369830  (  0.483516  -0.918359  -0.540979)
  25:      1216.00    1.655630  ( -0.267712   0.079679  -1.256030)
  26:      1243.39    7.867490  ( -2.563234  -0.110453  -1.133632)
  27:      1336.72    4.849825  (  0.631187  -1.111726   1.793180)
  28:      1360.42    8.232457  ( -0.459905  -0.313886   2.814679)
  29:      1410.66   52.423615  (  2.878718  -1.411101  -6.491948)
  30:      1432.07    9.641799  ( -0.167844  -0.387627  -3.076260)
  31:      1461.53    7.884888  ( -1.764092  -0.085759   2.183005)
  32:      1490.24   23.080019  ( -3.431403   2.355070  -2.399820)
  33:      1498.35   25.138611  (  0.090895   3.787583   3.283986)
  34:      1510.75    3.410277  ( -0.829947  -1.604192   0.384750)
  35:      1652.96   50.085765  (  4.483064   5.448051   0.553752)
  36:      1973.42  396.166165  (-19.192959   1.001106   5.176317)
  37:      3092.27    0.981119  ( -0.915734   0.226219  -0.302282)
  38:      3096.25    6.920495  ( -2.178338  -0.992069  -1.091393)
  39:      3145.54    3.326685  ( -0.735052   1.602136  -0.468555)
  40:      3176.36    0.006532  (  0.009438   0.074940  -0.028753)
  41:      3197.84    0.477356  (  0.140840  -0.649659   0.188315)
  42:      3201.53    4.880979  (  1.651614   0.236130   1.448238)
  43:      3425.39   53.267428  ( -4.984740  -5.263663  -0.844775)
  44:      3474.58   87.219843  (  6.312179  -5.723177   3.823805)

--------------------------
THERMOCHEMISTRY AT 298.15K
--------------------------

Temperature         ... 298.15 K
Pressure            ... 1.00 atm
Total Mass          ... 102.11 AMU

Throughout the following assumptions are being made:
  (1) The electronic state is orbitally nondegenerate
  (2) There are no thermally accessible electronically excited states
  (3) Hindered rotations indicated by low frequency modes) are not
      treated as such but are treated as vibrations and this may
      case some error
  (4) All equations used are the standard statistical mechanics
      equations for an ideal gas
  (5) All vibrations are strinctly harmonic

------------
INNER ENERGY
------------

The inner energy is: U= E(el) + E(ZPE) + E(vib) + E(rot) + E(trans)
    E(el)   - is the total energy from the electronic structure calculation
              = E(kin-el) + E(nuc-el) + E(el-el) + E(nuc-nuc)
    E(ZPE)  - the the zero temperature vibrational energy from the frequency calculation
    E(vib)  - the the finite temperature correction to E(ZPE) due to population
              of excietd vibrational states
    E(rot)  - is the rotational thermal energy
    E(trans)- is the translational thermal energy

Summary of contributions to the inner energy U:
Electronic energy                ...   -361.89194322 Eh
Zero point energy                ...      0.12962000 Eh      81.34 kcal/mol
Thermal vibrational correction   ...      0.00413532 Eh       2.59 kcal/mol
Thermal rotational correction    ...      0.00141627 Eh       0.89 kcal/mol
Thermal translational correction ...      0.00141627 Eh       0.89 kcal/mol
-----------------------------------------------------------------------
Total thermal energy                   -361.75535535 Eh

Summary of corrections to the electronic energy:
(perhaps to be used in another calculation)
Total thermal correction                  0.00696787 Eh       4.37 kcal/mol
Non-thermal (ZPE) correction              0.12962000 Eh      81.34 kcal/mol
-----------------------------------------------------------------------
Total correction                          0.13658786 Eh      85.71 kcal/mol

--------
ENTHALPY
--------

The enthalpy is H = U + kB*T
                kB is Boltzmann's constant
Total free energy                 ...   -361.75535535 Eh
Thermal Enthalpy correction       ...      0.00094421 Eh       0.59 kcal/mol
-----------------------------------------------------------------------
Total Enthalpy                    ...   -361.75441115 Eh

-------
ENTROPY
-------

The entropy contributions are T*S = T*(S(el)+S(vib)+S(rot)+S(trans)
     S(el)   - electronic entropy
     S(vib)  - vibrational entropy
     S(rot)  - rotational entropy
     S(trans)- translational entropy
The entropies will be listed as mutliplied by the temperature to get
units of energy

Electronic entropy                ...      0.00000000 Eh      0.00 kcal/mol
Vibrational entropy               ...      0.00729681 Eh      4.58 kcal/mol
Rotational entropy                ...      0.01196815 Eh      7.51 kcal/mol
Translational entropy             ...      0.01890086 Eh     11.86 kcal/mol
-----------------------------------------------------------------------
Final entropy term                ...      0.03816582 Eh     23.95 kcal/mol

CAUTION: The rotational entropy is not quite correctly treated here
         because it includes a symmetry number that is not yet correctly
         implemented in ORCA!
For a nonlinear molecule the correct rotational entropy is:
    S(rot) = R*(ln(qrot/sn)+1.5)
    R    = 8.31441 J/mol/K = 1.987191683e-3 kcal/mol/K
    qrot = 214122.8000825
    sn is the rotational symmetry number. We have assumed 3 here
       if it is different for your molecule then you should correct
       the printed rotational entropy by manually evaluating the equation
       as given above

For convenience we print out the resulting values for sn=1 - 12:
 sn= 1  qrot/sn=  214122.8001 T*S(rot)=     8.16 kcal/mol T*S(tot)=    24.60 kcal/mol
 sn= 2  qrot/sn=  107061.4000 T*S(rot)=     7.75 kcal/mol T*S(tot)=    24.19 kcal/mol
 sn= 3  qrot/sn=   71374.2667 T*S(rot)=     7.51 kcal/mol T*S(tot)=    23.95 kcal/mol
 sn= 4  qrot/sn=   53530.7000 T*S(rot)=     7.34 kcal/mol T*S(tot)=    23.78 kcal/mol
 sn= 5  qrot/sn=   42824.5600 T*S(rot)=     7.21 kcal/mol T*S(tot)=    23.65 kcal/mol
 sn= 6  qrot/sn=   35687.1333 T*S(rot)=     7.10 kcal/mol T*S(tot)=    23.54 kcal/mol
 sn= 7  qrot/sn=   30588.9714 T*S(rot)=     7.01 kcal/mol T*S(tot)=    23.45 kcal/mol
 sn= 8  qrot/sn=   26765.3500 T*S(rot)=     6.93 kcal/mol T*S(tot)=    23.37 kcal/mol
 sn= 9  qrot/sn=   23791.4222 T*S(rot)=     6.86 kcal/mol T*S(tot)=    23.30 kcal/mol
 sn=10  qrot/sn=   21412.2800 T*S(rot)=     6.80 kcal/mol T*S(tot)=    23.24 kcal/mol
 sn=11  qrot/sn=   19465.7091 T*S(rot)=     6.74 kcal/mol T*S(tot)=    23.18 kcal/mol
 sn=12  qrot/sn=   17843.5667 T*S(rot)=     6.69 kcal/mol T*S(tot)=    23.13 kcal/mol

-------------------
GIBBS FREE ENTHALPY
-------------------

The Gibbs free enthalpy is G = H - T*S

Total enthalpy                    ...   -361.75441115 Eh
Total entropy correction          ...     -0.03816582 Eh    -23.95 kcal/mol
-----------------------------------------------------------------------
Final Gibbs free enthalpy         ...   -361.79257696 Eh

For completeness - the Gibbs free enthalpy minus the electronic energy
G-E(el)                           ...      0.09936626 Eh     62.35 kcal/mol

                             ****ORCA TERMINATED NORMALLY****
TOTAL RUN TIME: 0 days 0 hours 35 minutes 15 seconds 339 msec
