                         Program Version 3.0.3 - RELEASE   -
|  1> ! NORI PBE0 def2-TZVP UseSym TightOPT Freq TightSCF Grid3 FinalGrid5 XYZFile
|  2> % pal
|  3>     nprocs 8
|  4> end
|  5> %method
|  6>     SymThresh 5.0e-2
|  7> end
|  8> % geom
|  9>     MaxIter 10
| 10> end
| 11> % maxcore 2000
| 12> % output
| 13>     printlevel mini
| 14>     print[ P_Basis ] 0
| 15>     print[ P_SCFInfo ] 1
| 16>     print[ P_SCFIterInfo ] 1
| 17>     print[ P_OrbEn ] 0
| 18>     print[ P_Cartesian ] 0
| 19> end
| 20> % elprop
| 21>     Dipole false
| 22> end
| 23> *xyz 1 1
| 24>  C        1.0221502729    -0.2377801075    -0.0331436832
| 25>  N        2.4653205657    -0.3003404891     0.3184578341
| 26>  C        2.9001606385     0.5909935290     1.4251686752
| 27>  C        2.4774912058     0.0055728209     2.7435318816
| 28>  O        2.8195520680    -1.3619451187     2.6698788275
| 29>  C        4.2262902780     1.2549864257     1.2581193267
| 30>  C        2.9593026309     2.0552739874     1.1791620335
| 31>  H        0.8282979255    -0.9331109494    -0.8481595348
| 32>  H        0.7770430381     0.7777095727    -0.3349001828
| 33>  H        0.4366904447    -0.5210260737     0.8379234898
| 34>  H        3.0331049280    -0.1179498423    -0.5087560728
| 35>  H        2.6965428992    -1.2481505039     0.6490565680
| 36>  H        1.4012346601     0.1390642209     2.9116850207
| 37>  H        3.0112396929     0.5284889049     3.5431687341
| 38>  H        2.5697352673    -1.8234661165     3.4754452785
| 39>  H        4.8500247764     1.3364087759     2.1388977896
| 40>  H        4.7789037633     1.0989112254     0.3376543114
| 41>  H        2.6638296523     2.4337391735     0.2073565805
| 42>  H        2.6936652924     2.7049705648     2.0040731225
| 43> *
| 44>
| 45>                          ****END OF INPUT****
 Total Charge           Charge          ....    1
 Multiplicity           Mult            ....    1
 Number of Electrons    NEL             ....   56
FINAL SINGLE POINT ENERGY      -327.202456476269
FINAL SINGLE POINT ENERGY      -327.202457791039

CARTESIAN COORDINATES (ANGSTROEM)
---------------------------------
  C      1.619267   -1.365729   -0.652300
  N      1.163230    0.000616   -0.283337
  C     -0.308686    0.201880   -0.240844
  C     -0.867073   -0.412178    1.012728
  O      0.001965   -0.002521    2.046569
  C     -0.813732    1.506641   -0.759962
  C     -1.060708    0.237953   -1.522622
  H      2.707705   -1.386922   -0.645063
  H      1.241964   -1.607875   -1.643043
  H      1.233647   -2.072174    0.078491
  H      1.583377    0.688119   -0.908316
  H      1.477421    0.218713    0.673088
  H     -0.908553   -1.506282    0.936124
  H     -1.888795   -0.045539    1.153917
  H     -0.275647   -0.364022    2.892922
  H     -1.630713    1.967484   -0.220331
  H     -0.105119    2.213527   -1.177420
  H     -0.518226    0.096028   -2.450314
  H     -2.054814   -0.191537   -1.523622

FINAL SINGLE POINT ENERGY      -327.202458469526
                    ***********************HURRAY********************
 Multiplicity           Mult            ....    1
 Number of Electrons    NEL             ....   56
 Basis Dimension        Dim             ....  289
FINAL SINGLE POINT ENERGY      -327.202458743552

VIBRATIONAL FREQUENCIES
-----------------------

   0:         0.00 cm**-1
   1:         0.00 cm**-1
   2:         0.00 cm**-1
   3:         0.00 cm**-1
   4:         0.00 cm**-1
   5:         0.00 cm**-1
   6:        82.36 cm**-1
   7:       126.16 cm**-1
   8:       195.34 cm**-1
   9:       231.99 cm**-1
  10:       261.21 cm**-1
  11:       285.51 cm**-1
  12:       333.51 cm**-1
  13:       353.70 cm**-1
  14:       449.04 cm**-1
  15:       549.34 cm**-1
  16:       713.77 cm**-1
  17:       766.70 cm**-1
  18:       834.93 cm**-1
  19:       888.60 cm**-1
  20:       941.85 cm**-1
  21:       946.50 cm**-1
  22:       997.94 cm**-1
  23:      1031.07 cm**-1
  24:      1067.58 cm**-1
  25:      1074.60 cm**-1
  26:      1101.20 cm**-1
  27:      1106.90 cm**-1
  28:      1135.64 cm**-1
  29:      1176.77 cm**-1
  30:      1188.51 cm**-1
  31:      1210.38 cm**-1
  32:      1254.55 cm**-1
  33:      1309.43 cm**-1
  34:      1339.82 cm**-1
  35:      1409.00 cm**-1
  36:      1424.05 cm**-1
  37:      1453.77 cm**-1
  38:      1462.30 cm**-1
  39:      1471.44 cm**-1
  40:      1492.04 cm**-1
  41:      1495.98 cm**-1
  42:      1519.34 cm**-1
  43:      1523.90 cm**-1
  44:      1619.26 cm**-1
  45:      3028.35 cm**-1
  46:      3085.44 cm**-1
  47:      3097.87 cm**-1
  48:      3154.32 cm**-1
  49:      3157.47 cm**-1
  50:      3194.15 cm**-1
  51:      3204.94 cm**-1
  52:      3239.10 cm**-1
  53:      3250.47 cm**-1
  54:      3349.77 cm**-1
  55:      3496.38 cm**-1
  56:      3868.07 cm**-1

IR SPECTRUM
-----------

 Mode    freq (cm**-1)   T**2         TX         TY         TZ
-------------------------------------------------------------------
   6:        82.36    2.862685  (  0.587951  -1.495465   0.529702)
   7:       126.16    8.488231  (  1.663578  -1.661753  -1.720266)
   8:       195.34    0.829720  ( -0.021266  -0.245988   0.876788)
   9:       231.99    1.680575  (  0.656128   0.056640  -1.116630)
  10:       261.21   32.646617  ( -2.935867   2.368899   4.291342)
  11:       285.51  100.225319  (  4.786124  -8.763323  -0.722845)
  12:       333.51    6.257930  ( -0.730671   0.230078  -2.381410)
  13:       353.70   17.849706  ( -2.693630   1.842236   2.683324)
  14:       449.04    4.069515  ( -1.049174  -0.291203  -1.698220)
  15:       549.34    6.170219  ( -1.640006   1.625652  -0.915345)
  16:       713.77    1.461526  ( -0.677248  -0.830602  -0.559429)
  17:       766.70    0.996046  (  0.288297   0.491692  -0.819250)
  18:       834.93   32.165946  (  0.527747   0.941575  -5.567842)
  19:       888.60    0.980302  ( -0.869780   0.313032   0.354676)
  20:       941.85    9.491072  (  0.809818   1.496979   2.567941)
  21:       946.50   11.638225  ( -1.764848   0.584253  -2.860452)
  22:       997.94    6.888354  (  1.235240   2.314976  -0.058491)
  23:      1031.07    1.481422  ( -0.113499  -1.009983  -0.669682)
  24:      1067.58   33.916579  (  4.759752  -1.525079   2.989227)
  25:      1074.60    1.781548  ( -0.862097  -1.016785  -0.066968)
  26:      1101.20   58.784833  ( -3.861192  -1.817812  -6.369583)
  27:      1106.90    5.941991  (  1.476631  -0.801862   1.765948)
  28:      1135.64   14.321544  (  2.454924   0.064252   2.879368)
  29:      1176.77   12.363166  (  1.160613  -2.253210  -2.437045)
  30:      1188.51    3.595665  ( -0.660296   1.053593   1.431648)
  31:      1210.38   39.287480  ( -4.522735  -2.646085  -3.439561)
  32:      1254.55   13.594388  (  2.663345   0.498887   2.500419)
  33:      1309.43    3.645697  ( -0.175897   1.498453   1.170212)
  34:      1339.82    0.405788  ( -0.450749   0.425953  -0.145524)
  35:      1409.00   29.326952  (  4.228764  -3.280379  -0.826815)
  36:      1424.05   35.478331  ( -5.507616   1.081258   1.993835)
  37:      1453.77    5.925790  ( -1.555794   1.585587   0.995594)
  38:      1462.30   13.156539  (  0.947787   2.566401   2.381559)
  39:      1471.44    4.260809  (  1.023337   1.724637  -0.489099)
  40:      1492.04   18.038334  (  1.532061   1.501483  -3.665607)
  41:      1495.98   32.747713  (  5.649241   0.032854   0.912532)
  42:      1519.34    9.230230  ( -0.855179  -1.115960   2.693239)
  43:      1523.90    1.074834  (  1.017176   0.087710  -0.180262)
  44:      1619.26   68.462837  ( -6.212260  -5.360875   1.063806)
  45:      3028.35   22.769003  ( -1.847505  -4.184987  -1.357061)
  46:      3085.44   10.054312  ( -2.274395   2.068484  -0.776410)
  47:      3097.87    0.606620  ( -0.219081   0.700883   0.259590)
  48:      3154.32    0.471503  (  0.640478   0.247228   0.013014)
  49:      3157.47    2.213467  ( -1.414401   0.454592  -0.079263)
  50:      3194.15    0.062609  (  0.087806   0.036738  -0.231407)
  51:      3204.94    0.146010  ( -0.134781  -0.025584   0.356636)
  52:      3239.10    0.161793  (  0.160675   0.367786  -0.026638)
  53:      3250.47    0.153207  (  0.325052  -0.055792  -0.210798)
  54:      3349.77  110.979565  ( -1.493131  -2.737855 -10.062518)
  55:      3496.38   63.352963  (  3.333843   4.235906  -5.856240)
  56:      3868.07  127.573816  ( -1.253189  -2.591269  10.921935)

--------------------------
THERMOCHEMISTRY AT 298.15K
--------------------------

Temperature         ... 298.15 K
Pressure            ... 1.00 atm
Total Mass          ... 102.16 AMU

Throughout the following assumptions are being made:
  (1) The electronic state is orbitally nondegenerate
  (2) There are no thermally accessible electronically excited states
  (3) Hindered rotations indicated by low frequency modes) are not
      treated as such but are treated as vibrations and this may
      case some error
  (4) All equations used are the standard statistical mechanics
      equations for an ideal gas
  (5) All vibrations are strinctly harmonic

------------
INNER ENERGY
------------

The inner energy is: U= E(el) + E(ZPE) + E(vib) + E(rot) + E(trans)
    E(el)   - is the total energy from the electronic structure calculation
              = E(kin-el) + E(nuc-el) + E(el-el) + E(nuc-nuc)
    E(ZPE)  - the the zero temperature vibrational energy from the frequency calculation
    E(vib)  - the the finite temperature correction to E(ZPE) due to population
              of excietd vibrational states
    E(rot)  - is the rotational thermal energy
    E(trans)- is the translational thermal energy

Summary of contributions to the inner energy U:
Electronic energy                ...   -327.20245874 Eh
Zero point energy                ...      0.17531023 Eh     110.01 kcal/mol
Thermal vibrational correction   ...      0.00538447 Eh       3.38 kcal/mol
Thermal rotational correction    ...      0.00141627 Eh       0.89 kcal/mol
Thermal translational correction ...      0.00141627 Eh       0.89 kcal/mol
-----------------------------------------------------------------------
Total thermal energy                   -327.01893150 Eh

Summary of corrections to the electronic energy:
(perhaps to be used in another calculation)
Total thermal correction                  0.00821701 Eh       5.16 kcal/mol
Non-thermal (ZPE) correction              0.17531023 Eh     110.01 kcal/mol
-----------------------------------------------------------------------
Total correction                          0.18352725 Eh     115.16 kcal/mol

--------
ENTHALPY
--------

The enthalpy is H = U + kB*T
                kB is Boltzmann's constant
Total free energy                 ...   -327.01893150 Eh
Thermal Enthalpy correction       ...      0.00094421 Eh       0.59 kcal/mol
-----------------------------------------------------------------------
Total Enthalpy                    ...   -327.01798729 Eh

-------
ENTROPY
-------

The entropy contributions are T*S = T*(S(el)+S(vib)+S(rot)+S(trans)
     S(el)   - electronic entropy
     S(vib)  - vibrational entropy
     S(rot)  - rotational entropy
     S(trans)- translational entropy
The entropies will be listed as mutliplied by the temperature to get
units of energy

Electronic entropy                ...      0.00000000 Eh      0.00 kcal/mol
Vibrational entropy               ...      0.00935471 Eh      5.87 kcal/mol
Rotational entropy                ...      0.01206890 Eh      7.57 kcal/mol
Translational entropy             ...      0.01890147 Eh     11.86 kcal/mol
-----------------------------------------------------------------------
Final entropy term                ...      0.04032507 Eh     25.30 kcal/mol

CAUTION: The rotational entropy is not quite correctly treated here
         because it includes a symmetry number that is not yet correctly
         implemented in ORCA!
For a nonlinear molecule the correct rotational entropy is:
    S(rot) = R*(ln(qrot/sn)+1.5)
    R    = 8.31441 J/mol/K = 1.987191683e-3 kcal/mol/K
    qrot = 238235.8836375
    sn is the rotational symmetry number. We have assumed 3 here
       if it is different for your molecule then you should correct
       the printed rotational entropy by manually evaluating the equation
       as given above

For convenience we print out the resulting values for sn=1 - 12:
 sn= 1  qrot/sn=  238235.8836 T*S(rot)=     8.22 kcal/mol T*S(tot)=    25.96 kcal/mol
 sn= 2  qrot/sn=  119117.9418 T*S(rot)=     7.81 kcal/mol T*S(tot)=    25.54 kcal/mol
 sn= 3  qrot/sn=   79411.9612 T*S(rot)=     7.57 kcal/mol T*S(tot)=    25.30 kcal/mol
 sn= 4  qrot/sn=   59558.9709 T*S(rot)=     7.40 kcal/mol T*S(tot)=    25.13 kcal/mol
 sn= 5  qrot/sn=   47647.1767 T*S(rot)=     7.27 kcal/mol T*S(tot)=    25.00 kcal/mol
 sn= 6  qrot/sn=   39705.9806 T*S(rot)=     7.16 kcal/mol T*S(tot)=    24.89 kcal/mol
 sn= 7  qrot/sn=   34033.6977 T*S(rot)=     7.07 kcal/mol T*S(tot)=    24.80 kcal/mol
 sn= 8  qrot/sn=   29779.4855 T*S(rot)=     6.99 kcal/mol T*S(tot)=    24.72 kcal/mol
 sn= 9  qrot/sn=   26470.6537 T*S(rot)=     6.92 kcal/mol T*S(tot)=    24.65 kcal/mol
 sn=10  qrot/sn=   23823.5884 T*S(rot)=     6.86 kcal/mol T*S(tot)=    24.59 kcal/mol
 sn=11  qrot/sn=   21657.8076 T*S(rot)=     6.80 kcal/mol T*S(tot)=    24.53 kcal/mol
 sn=12  qrot/sn=   19852.9903 T*S(rot)=     6.75 kcal/mol T*S(tot)=    24.48 kcal/mol

-------------------
GIBBS FREE ENTHALPY
-------------------

The Gibbs free enthalpy is G = H - T*S

Total enthalpy                    ...   -327.01798729 Eh
Total entropy correction          ...     -0.04032507 Eh    -25.30 kcal/mol
-----------------------------------------------------------------------
Final Gibbs free enthalpy         ...   -327.05831236 Eh

For completeness - the Gibbs free enthalpy minus the electronic energy
G-E(el)                           ...      0.14414638 Eh     90.45 kcal/mol

                             ****ORCA TERMINATED NORMALLY****
TOTAL RUN TIME: 0 days 0 hours 56 minutes 20 seconds 270 msec
