                         Program Version 3.0.3 - RELEASE   -
|  1> ! NORI PBE0 def2-TZVP UseSym TightOPT Freq TightSCF Grid3 FinalGrid5 XYZFile
|  2> % pal
|  3>     nprocs 8
|  4> end
|  5> %method
|  6>     SymThresh 5.0e-2
|  7> end
|  8> % geom
|  9>     MaxIter 10
| 10> end
| 11> % maxcore 2000
| 12> % output
| 13>     printlevel mini
| 14>     print[ P_Basis ] 0
| 15>     print[ P_SCFInfo ] 1
| 16>     print[ P_SCFIterInfo ] 1
| 17>     print[ P_OrbEn ] 0
| 18>     print[ P_Cartesian ] 0
| 19> end
| 20> % elprop
| 21>     Dipole false
| 22> end
| 23> *xyz 1 1
| 24>  C        1.0164429919     0.5341210034     0.2255087558
| 25>  N        2.4082659783     0.0663221960     0.0002820542
| 26>  C        2.9671755996     0.3921171500    -1.3954227437
| 27>  C        4.3845078395    -0.1530162396    -1.5583765506
| 28>  O        5.2619224231     0.9532753192    -1.3397421160
| 29>  C        4.5144104357     2.0607774825    -1.4508786102
| 30>  C        3.1951205305     1.8564288631    -1.5325732244
| 31>  H        0.7058439319     0.2626349319     1.2328939772
| 32>  H        0.3658440749     0.0587829993    -0.5062317793
| 33>  H        0.9889450286     1.6151611469     0.1075453288
| 34>  H        3.0285854880     0.5026611446     0.6860648341
| 35>  H        2.4559299802    -0.9428830841     0.1541705216
| 36>  H        2.2531390367    -0.0566726316    -2.0873686624
| 37>  H        4.6562174965    -0.9556533320    -0.8692328363
| 38>  H        4.5281139141    -0.5053869290    -2.5823538104
| 39>  H        5.0668081826     2.9910666197    -1.4633541013
| 40>  H        2.4411270679     2.6129233596    -1.6799110373
| 41> *
| 42>
| 43>                          ****END OF INPUT****
 Total Charge           Charge          ....    1
 Multiplicity           Mult            ....    1
 Number of Electrons    NEL             ....   54
FINAL SINGLE POINT ENERGY      -325.995779616519

CARTESIAN COORDINATES (ANGSTROEM)
---------------------------------
  C      0.574142   -0.434871   -2.553475
  N      0.979962    0.000600   -1.192382
  C     -0.164437    0.589249   -0.349335
  C      0.340794    1.043004    1.018642
  O     -0.000393   -0.000531    1.933045
  C     -0.925031   -0.755387    1.322528
  C     -1.130104   -0.477775    0.030209
  H      1.441525   -0.835662   -3.074992
  H      0.179502    0.425130   -3.091588
  H     -0.189890   -1.202901   -2.459461
  H      1.356952   -0.798830   -0.678106
  H      1.731547    0.689245   -1.266392
  H     -0.556384    1.407964   -0.954647
  H      1.416103    1.224212    1.080788
  H     -0.186494    1.949912    1.323473
  H     -1.398433   -1.500893    1.947734
  H     -1.864989   -0.936785   -0.611271

FINAL SINGLE POINT ENERGY      -325.995780399956
                    ***********************HURRAY********************
 Multiplicity           Mult            ....    1
 Number of Electrons    NEL             ....   54
 Basis Dimension        Dim             ....  277
FINAL SINGLE POINT ENERGY      -325.995780810391

VIBRATIONAL FREQUENCIES
-----------------------

   0:         0.00 cm**-1
   1:         0.00 cm**-1
   2:         0.00 cm**-1
   3:         0.00 cm**-1
   4:         0.00 cm**-1
   5:         0.00 cm**-1
   6:        84.53 cm**-1
   7:       128.83 cm**-1
   8:       222.77 cm**-1
   9:       248.00 cm**-1
  10:       351.46 cm**-1
  11:       384.64 cm**-1
  12:       549.96 cm**-1
  13:       740.25 cm**-1
  14:       749.38 cm**-1
  15:       759.32 cm**-1
  16:       837.58 cm**-1
  17:       879.46 cm**-1
  18:       966.50 cm**-1
  19:       978.88 cm**-1
  20:       984.78 cm**-1
  21:      1011.84 cm**-1
  22:      1019.81 cm**-1
  23:      1055.94 cm**-1
  24:      1120.46 cm**-1
  25:      1139.79 cm**-1
  26:      1162.72 cm**-1
  27:      1210.95 cm**-1
  28:      1250.63 cm**-1
  29:      1292.38 cm**-1
  30:      1334.95 cm**-1
  31:      1350.42 cm**-1
  32:      1384.17 cm**-1
  33:      1408.61 cm**-1
  34:      1429.08 cm**-1
  35:      1454.51 cm**-1
  36:      1487.90 cm**-1
  37:      1492.49 cm**-1
  38:      1498.17 cm**-1
  39:      1630.76 cm**-1
  40:      1661.45 cm**-1
  41:      3081.79 cm**-1
  42:      3093.90 cm**-1
  43:      3118.28 cm**-1
  44:      3134.63 cm**-1
  45:      3190.20 cm**-1
  46:      3201.00 cm**-1
  47:      3251.50 cm**-1
  48:      3281.92 cm**-1
  49:      3428.39 cm**-1
  50:      3490.51 cm**-1

IR SPECTRUM
-----------

 Mode    freq (cm**-1)   T**2         TX         TY         TZ
-------------------------------------------------------------------
   6:        84.53    2.600099  ( -0.313338   1.453495   0.623916)
   7:       128.83    4.092081  ( -1.315172  -0.782419   1.322961)
   8:       222.77    0.250747  (  0.495854   0.007271   0.069445)
   9:       248.00    2.025861  (  0.143277  -1.410024   0.131018)
  10:       351.46    4.945949  ( -0.842220   1.755023  -1.075411)
  11:       384.64    5.721277  (  0.821438  -1.674540  -1.497476)
  12:       549.96    8.780686  ( -2.508073   1.371488  -0.780563)
  13:       740.25   57.090317  ( -4.698471   1.403604   5.748442)
  14:       749.38   29.443813  ( -3.780101   3.868308   0.436856)
  15:       759.32    3.585108  (  0.463938  -1.271926  -1.323660)
  16:       837.58   16.085100  ( -2.558090   2.942815  -0.938677)
  17:       879.46    6.089299  (  0.157339  -2.359385   0.705581)
  18:       966.50   31.174560  (  3.288329   1.123539  -4.370253)
  19:       978.88   13.289365  ( -2.427487  -0.156915  -2.715152)
  20:       984.78   10.929539  ( -0.500237   2.099912   2.503931)
  21:      1011.84   18.295257  ( -0.908848   2.135414   3.592946)
  22:      1019.81   23.441039  (  0.830854  -2.177767   4.243590)
  23:      1055.94   26.909453  (  1.300153   0.195651  -5.018045)
  24:      1120.46   16.795642  ( -1.337241  -2.774534  -2.703588)
  25:      1139.79    6.439325  (  2.013770  -1.107070  -1.076314)
  26:      1162.72    3.571258  (  1.773382  -0.001476   0.652972)
  27:      1210.95  115.477902  (  5.776958   6.481840   6.331699)
  28:      1250.63    3.065050  ( -1.558837   0.768113  -0.212320)
  29:      1292.38   25.273170  ( -0.295286   0.470364   4.996472)
  30:      1334.95    6.999902  (  1.573119   0.057999  -2.126461)
  31:      1350.42    3.024570  ( -0.412082  -1.683226   0.146654)
  32:      1384.17    6.310730  ( -1.322719   2.048222   0.604923)
  33:      1408.61   42.601502  ( -3.007797   2.148600   5.379422)
  34:      1429.08   21.625004  (  2.608274   3.178037  -2.173015)
  35:      1454.51    8.168353  ( -0.275715  -0.439204  -2.810593)
  36:      1487.90    9.211036  (  0.371972   2.158418   2.100930)
  37:      1492.49   22.806780  (  3.741682   2.553797  -1.511527)
  38:      1498.17   21.288573  ( -2.212540   4.035994   0.322474)
  39:      1630.76   37.878029  (  5.897786  -1.221612  -1.265626)
  40:      1661.45  119.261503  ( -3.320181  -0.549836 -10.389205)
  41:      3081.79    5.537337  ( -1.650328  -1.574869   0.577530)
  42:      3093.90    0.228329  (  0.178695  -0.081307   0.435644)
  43:      3118.28    5.610135  ( -1.299608  -1.135578   1.622226)
  44:      3134.63    1.593910  ( -1.241100   0.130884   0.190918)
  45:      3190.20    0.134188  (  0.357276  -0.057608  -0.056770)
  46:      3201.00    0.309735  ( -0.356666  -0.079254   0.419813)
  47:      3251.50    4.218151  (  0.209737  -0.632217   1.942798)
  48:      3281.92    5.625438  (  1.931270   1.091990   0.838565)
  49:      3428.39   33.461094  ( -5.464144   0.896783  -1.673322)
  50:      3490.51   58.056476  ( -1.497469  -7.066687   2.424047)

--------------------------
THERMOCHEMISTRY AT 298.15K
--------------------------

Temperature         ... 298.15 K
Pressure            ... 1.00 atm
Total Mass          ... 100.14 AMU

Throughout the following assumptions are being made:
  (1) The electronic state is orbitally nondegenerate
  (2) There are no thermally accessible electronically excited states
  (3) Hindered rotations indicated by low frequency modes) are not
      treated as such but are treated as vibrations and this may
      case some error
  (4) All equations used are the standard statistical mechanics
      equations for an ideal gas
  (5) All vibrations are strinctly harmonic

------------
INNER ENERGY
------------

The inner energy is: U= E(el) + E(ZPE) + E(vib) + E(rot) + E(trans)
    E(el)   - is the total energy from the electronic structure calculation
              = E(kin-el) + E(nuc-el) + E(el-el) + E(nuc-nuc)
    E(ZPE)  - the the zero temperature vibrational energy from the frequency calculation
    E(vib)  - the the finite temperature correction to E(ZPE) due to population
              of excietd vibrational states
    E(rot)  - is the rotational thermal energy
    E(trans)- is the translational thermal energy

Summary of contributions to the inner energy U:
Electronic energy                ...   -325.99578081 Eh
Zero point energy                ...      0.15385716 Eh      96.55 kcal/mol
Thermal vibrational correction   ...      0.00413624 Eh       2.60 kcal/mol
Thermal rotational correction    ...      0.00141627 Eh       0.89 kcal/mol
Thermal translational correction ...      0.00141627 Eh       0.89 kcal/mol
-----------------------------------------------------------------------
Total thermal energy                   -325.83495486 Eh

Summary of corrections to the electronic energy:
(perhaps to be used in another calculation)
Total thermal correction                  0.00696879 Eh       4.37 kcal/mol
Non-thermal (ZPE) correction              0.15385716 Eh      96.55 kcal/mol
-----------------------------------------------------------------------
Total correction                          0.16082595 Eh     100.92 kcal/mol

--------
ENTHALPY
--------

The enthalpy is H = U + kB*T
                kB is Boltzmann's constant
Total free energy                 ...   -325.83495486 Eh
Thermal Enthalpy correction       ...      0.00094421 Eh       0.59 kcal/mol
-----------------------------------------------------------------------
Total Enthalpy                    ...   -325.83401065 Eh

-------
ENTROPY
-------

The entropy contributions are T*S = T*(S(el)+S(vib)+S(rot)+S(trans)
     S(el)   - electronic entropy
     S(vib)  - vibrational entropy
     S(rot)  - rotational entropy
     S(trans)- translational entropy
The entropies will be listed as mutliplied by the temperature to get
units of energy

Electronic entropy                ...      0.00000000 Eh      0.00 kcal/mol
Vibrational entropy               ...      0.00723160 Eh      4.54 kcal/mol
Rotational entropy                ...      0.01192614 Eh      7.48 kcal/mol
Translational entropy             ...      0.01887324 Eh     11.84 kcal/mol
-----------------------------------------------------------------------
Final entropy term                ...      0.03803097 Eh     23.86 kcal/mol

CAUTION: The rotational entropy is not quite correctly treated here
         because it includes a symmetry number that is not yet correctly
         implemented in ORCA!
For a nonlinear molecule the correct rotational entropy is:
    S(rot) = R*(ln(qrot/sn)+1.5)
    R    = 8.31441 J/mol/K = 1.987191683e-3 kcal/mol/K
    qrot = 204804.3385960
    sn is the rotational symmetry number. We have assumed 3 here
       if it is different for your molecule then you should correct
       the printed rotational entropy by manually evaluating the equation
       as given above

For convenience we print out the resulting values for sn=1 - 12:
 sn= 1  qrot/sn=  204804.3386 T*S(rot)=     8.13 kcal/mol T*S(tot)=    24.52 kcal/mol
 sn= 2  qrot/sn=  102402.1693 T*S(rot)=     7.72 kcal/mol T*S(tot)=    24.10 kcal/mol
 sn= 3  qrot/sn=   68268.1129 T*S(rot)=     7.48 kcal/mol T*S(tot)=    23.86 kcal/mol
 sn= 4  qrot/sn=   51201.0846 T*S(rot)=     7.31 kcal/mol T*S(tot)=    23.69 kcal/mol
 sn= 5  qrot/sn=   40960.8677 T*S(rot)=     7.18 kcal/mol T*S(tot)=    23.56 kcal/mol
 sn= 6  qrot/sn=   34134.0564 T*S(rot)=     7.07 kcal/mol T*S(tot)=    23.45 kcal/mol
 sn= 7  qrot/sn=   29257.7627 T*S(rot)=     6.98 kcal/mol T*S(tot)=    23.36 kcal/mol
 sn= 8  qrot/sn=   25600.5423 T*S(rot)=     6.90 kcal/mol T*S(tot)=    23.28 kcal/mol
 sn= 9  qrot/sn=   22756.0376 T*S(rot)=     6.83 kcal/mol T*S(tot)=    23.21 kcal/mol
 sn=10  qrot/sn=   20480.4339 T*S(rot)=     6.77 kcal/mol T*S(tot)=    23.15 kcal/mol
 sn=11  qrot/sn=   18618.5762 T*S(rot)=     6.71 kcal/mol T*S(tot)=    23.09 kcal/mol
 sn=12  qrot/sn=   17067.0282 T*S(rot)=     6.66 kcal/mol T*S(tot)=    23.04 kcal/mol

-------------------
GIBBS FREE ENTHALPY
-------------------

The Gibbs free enthalpy is G = H - T*S

Total enthalpy                    ...   -325.83401065 Eh
Total entropy correction          ...     -0.03803097 Eh    -23.86 kcal/mol
-----------------------------------------------------------------------
Final Gibbs free enthalpy         ...   -325.87204162 Eh

For completeness - the Gibbs free enthalpy minus the electronic energy
G-E(el)                           ...      0.12373919 Eh     77.65 kcal/mol

                             ****ORCA TERMINATED NORMALLY****
TOTAL RUN TIME: 0 days 0 hours 43 minutes 55 seconds 964 msec
