                         Program Version 3.0.3 - RELEASE   -
|  1> ! NORI PBE0 def2-TZVP UseSym TightOPT Freq TightSCF Grid3 FinalGrid5 XYZFile
|  2> % pal
|  3>     nprocs 8
|  4> end
|  5> %method
|  6>     SymThresh 5.0e-2
|  7> end
|  8> % geom
|  9>     MaxIter 10
| 10> end
| 11> % maxcore 2000
| 12> % output
| 13>     printlevel mini
| 14>     print[ P_Basis ] 0
| 15>     print[ P_SCFInfo ] 1
| 16>     print[ P_SCFIterInfo ] 1
| 17>     print[ P_OrbEn ] 0
| 18>     print[ P_Cartesian ] 0
| 19> end
| 20> % elprop
| 21>     Dipole false
| 22> end
| 23> *xyz 1 1
| 24>  C        2.1299842191     1.5269573087     0.2197491985
| 25>  N        2.5026841703     0.1121691711    -0.0574761096
| 26>  C        3.0126938824    -0.1516354915    -1.4701091437
| 27>  C        3.4125017899    -1.5972599657    -1.6623249724
| 28>  O        4.8159454968    -1.6179137066    -1.3743975006
| 29>  N        5.3072671744    -0.3639486907    -1.5309298995
| 30>  C        4.3617507542     0.4834757240    -1.6406086877
| 31>  H        1.7645135262     1.6017099901     1.2423235782
| 32>  H        1.3507230176     1.8245882751    -0.4796358225
| 33>  H        3.0101555643     2.1531996766     0.0951551725
| 34>  H        3.2290662760    -0.1853132065     0.5998186394
| 35>  H        1.6940678527    -0.4894926679     0.1135353530
| 36>  H        2.2311237840     0.1944680298    -2.1452850056
| 37>  H        2.9134618680    -2.3217770436    -1.0164144546
| 38>  H        3.2662788887    -1.8848014304    -2.7072660070
| 39>  H        4.5856717355     1.5293340274    -1.7987143385
| 40> *
| 41>
| 42>                          ****END OF INPUT****
 Total Charge           Charge          ....    1
 Multiplicity           Mult            ....    1
 Number of Electrons    NEL             ....   54
FINAL SINGLE POINT ENERGY      -341.980578255314

CARTESIAN COORDINATES (ANGSTROEM)
---------------------------------
  C      0.628990   -0.531254   -2.495136
  N      0.998063    0.000734   -1.153961
  C     -0.152181    0.629104   -0.374224
  C      0.288812    1.102492    0.992677
  O     -0.000851   -0.000508    1.860067
  N     -0.945867   -0.775150    1.272494
  C     -1.111185   -0.443243    0.053198
  H      1.519958   -0.936894   -2.971077
  H      0.222684    0.282828   -3.092612
  H     -0.113026   -1.316297   -2.370089
  H      1.390447   -0.753035   -0.583142
  H      1.737959    0.698197   -1.259765
  H     -0.561225    1.410969   -1.012834
  H      1.345582    1.356739    1.093112
  H     -0.318991    1.958020    1.301035
  H     -1.851081   -0.948917   -0.551650

FINAL SINGLE POINT ENERGY      -341.980579234186
                    ***********************HURRAY********************
 Multiplicity           Mult            ....    1
 Number of Electrons    NEL             ....   54
 Basis Dimension        Dim             ....  271
FINAL SINGLE POINT ENERGY      -341.980580272277

VIBRATIONAL FREQUENCIES
-----------------------

   0:         0.00 cm**-1
   1:         0.00 cm**-1
   2:         0.00 cm**-1
   3:         0.00 cm**-1
   4:         0.00 cm**-1
   5:         0.00 cm**-1
   6:        79.90 cm**-1
   7:       126.31 cm**-1
   8:       220.49 cm**-1
   9:       247.71 cm**-1
  10:       350.52 cm**-1
  11:       392.71 cm**-1
  12:       592.98 cm**-1
  13:       770.18 cm**-1
  14:       774.21 cm**-1
  15:       824.24 cm**-1
  16:       864.46 cm**-1
  17:       896.55 cm**-1
  18:       961.15 cm**-1
  19:       973.09 cm**-1
  20:       992.53 cm**-1
  21:      1013.34 cm**-1
  22:      1021.51 cm**-1
  23:      1062.15 cm**-1
  24:      1142.00 cm**-1
  25:      1168.43 cm**-1
  26:      1231.92 cm**-1
  27:      1262.00 cm**-1
  28:      1291.27 cm**-1
  29:      1344.04 cm**-1
  30:      1369.38 cm**-1
  31:      1404.10 cm**-1
  32:      1420.01 cm**-1
  33:      1457.67 cm**-1
  34:      1481.33 cm**-1
  35:      1492.11 cm**-1
  36:      1497.23 cm**-1
  37:      1638.98 cm**-1
  38:      1656.62 cm**-1
  39:      3075.55 cm**-1
  40:      3094.22 cm**-1
  41:      3137.32 cm**-1
  42:      3146.33 cm**-1
  43:      3192.44 cm**-1
  44:      3201.16 cm**-1
  45:      3252.11 cm**-1
  46:      3426.88 cm**-1
  47:      3483.62 cm**-1

IR SPECTRUM
-----------

 Mode    freq (cm**-1)   T**2         TX         TY         TZ
-------------------------------------------------------------------
   6:        79.90    7.092976  (  0.800690  -2.218304  -1.237335)
   7:       126.31    9.575785  ( -2.612882  -0.283365   1.633505)
   8:       220.49    0.652691  (  0.522633   0.419374   0.451299)
   9:       247.71    2.038680  (  0.196011   1.158865  -0.810736)
  10:       350.52    4.141767  ( -0.845341  -0.352128   1.817463)
  11:       392.71    0.344946  ( -0.180892  -0.088717  -0.551683)
  12:       592.98    3.537413  ( -0.179637  -1.256258  -1.388149)
  13:       770.18   16.978366  (  2.182557   0.144338  -3.491988)
  14:       774.21    4.053641  ( -0.414296   0.938818  -1.732230)
  15:       824.24   12.198619  ( -2.819050   1.908555  -0.780380)
  16:       864.46   19.043909  ( -2.981208   2.762232   1.589459)
  17:       896.55   24.250030  (  1.549612   3.302892  -3.307512)
  18:       961.15   25.416006  ( -0.509216  -0.889875  -4.936074)
  19:       973.09   25.681665  (  2.891117   2.229075   3.514873)
  20:       992.53   38.193418  (  3.116268  -0.252616   5.330898)
  21:      1013.34    2.048489  (  0.790830   0.467886  -1.097342)
  22:      1021.51   50.585771  (  1.280506  -3.386629  -6.121832)
  23:      1062.15    5.641223  (  2.039527   0.903534  -0.815586)
  24:      1142.00   15.816763  (  0.301196  -3.109398  -2.461237)
  25:      1168.43    6.171906  (  0.278408  -1.769468  -1.721447)
  26:      1231.92    2.210417  ( -1.435360   0.386270  -0.030909)
  27:      1262.00    8.556975  ( -1.807416  -1.203243  -1.960212)
  28:      1291.27   17.907701  ( -1.010105  -2.416128  -3.324111)
  29:      1344.04    3.227248  (  0.688736   1.598523  -0.444540)
  30:      1369.38    0.096743  ( -0.115218   0.204038   0.204539)
  31:      1404.10   14.697474  (  1.949741  -2.596487  -2.038196)
  32:      1420.01   37.553984  ( -2.881199   1.362455   5.234156)
  33:      1457.67    6.349710  (  0.426952   0.703490   2.381706)
  34:      1481.33   11.211095  ( -0.752343  -2.526772  -2.064098)
  35:      1492.11   25.427366  ( -4.073361  -1.989230   2.208632)
  36:      1497.23   23.546970  (  2.160889  -4.344269  -0.069659)
  37:      1638.98   29.039140  (  5.186937  -1.445624  -0.212118)
  38:      1656.62   45.003818  (  4.249683   1.011997   5.091156)
  39:      3075.55    2.784025  (  0.807227   1.080589  -0.982210)
  40:      3094.22    0.168162  ( -0.326002   0.222678   0.110902)
  41:      3137.32    1.466468  ( -1.001124  -0.153481   0.663825)
  42:      3146.33    0.397298  ( -0.439040   0.299321   0.339041)
  43:      3192.44    0.512118  (  0.651042  -0.282626  -0.091570)
  44:      3201.16    0.224102  (  0.312178   0.215858  -0.282936)
  45:      3252.11    7.781547  (  2.193715   1.171985   1.263175)
  46:      3426.88   46.411923  ( -6.365701   1.403176  -1.980120)
  47:      3483.62   73.875683  ( -2.297924  -7.629046   3.223801)

--------------------------
THERMOCHEMISTRY AT 298.15K
--------------------------

Temperature         ... 298.15 K
Pressure            ... 1.00 atm
Total Mass          ... 101.13 AMU

Throughout the following assumptions are being made:
  (1) The electronic state is orbitally nondegenerate
  (2) There are no thermally accessible electronically excited states
  (3) Hindered rotations indicated by low frequency modes) are not
      treated as such but are treated as vibrations and this may
      case some error
  (4) All equations used are the standard statistical mechanics
      equations for an ideal gas
  (5) All vibrations are strinctly harmonic

------------
INNER ENERGY
------------

The inner energy is: U= E(el) + E(ZPE) + E(vib) + E(rot) + E(trans)
    E(el)   - is the total energy from the electronic structure calculation
              = E(kin-el) + E(nuc-el) + E(el-el) + E(nuc-nuc)
    E(ZPE)  - the the zero temperature vibrational energy from the frequency calculation
    E(vib)  - the the finite temperature correction to E(ZPE) due to population
              of excietd vibrational states
    E(rot)  - is the rotational thermal energy
    E(trans)- is the translational thermal energy

Summary of contributions to the inner energy U:
Electronic energy                ...   -341.98058027 Eh
Zero point energy                ...      0.14131651 Eh      88.68 kcal/mol
Thermal vibrational correction   ...      0.00403877 Eh       2.53 kcal/mol
Thermal rotational correction    ...      0.00141627 Eh       0.89 kcal/mol
Thermal translational correction ...      0.00141627 Eh       0.89 kcal/mol
-----------------------------------------------------------------------
Total thermal energy                   -341.83239245 Eh

Summary of corrections to the electronic energy:
(perhaps to be used in another calculation)
Total thermal correction                  0.00687131 Eh       4.31 kcal/mol
Non-thermal (ZPE) correction              0.14131651 Eh      88.68 kcal/mol
-----------------------------------------------------------------------
Total correction                          0.14818782 Eh      92.99 kcal/mol

--------
ENTHALPY
--------

The enthalpy is H = U + kB*T
                kB is Boltzmann's constant
Total free energy                 ...   -341.83239245 Eh
Thermal Enthalpy correction       ...      0.00094421 Eh       0.59 kcal/mol
-----------------------------------------------------------------------
Total Enthalpy                    ...   -341.83144824 Eh

-------
ENTROPY
-------

The entropy contributions are T*S = T*(S(el)+S(vib)+S(rot)+S(trans)
     S(el)   - electronic entropy
     S(vib)  - vibrational entropy
     S(rot)  - rotational entropy
     S(trans)- translational entropy
The entropies will be listed as mutliplied by the temperature to get
units of energy

Electronic entropy                ...      0.00000000 Eh      0.00 kcal/mol
Vibrational entropy               ...      0.00715548 Eh      4.49 kcal/mol
Rotational entropy                ...      0.01189831 Eh      7.47 kcal/mol
Translational entropy             ...      0.01888714 Eh     11.85 kcal/mol
-----------------------------------------------------------------------
Final entropy term                ...      0.03794093 Eh     23.81 kcal/mol

CAUTION: The rotational entropy is not quite correctly treated here
         because it includes a symmetry number that is not yet correctly
         implemented in ORCA!
For a nonlinear molecule the correct rotational entropy is:
    S(rot) = R*(ln(qrot/sn)+1.5)
    R    = 8.31441 J/mol/K = 1.987191683e-3 kcal/mol/K
    qrot = 198856.3252992
    sn is the rotational symmetry number. We have assumed 3 here
       if it is different for your molecule then you should correct
       the printed rotational entropy by manually evaluating the equation
       as given above

For convenience we print out the resulting values for sn=1 - 12:
 sn= 1  qrot/sn=  198856.3253 T*S(rot)=     8.12 kcal/mol T*S(tot)=    24.46 kcal/mol
 sn= 2  qrot/sn=   99428.1626 T*S(rot)=     7.71 kcal/mol T*S(tot)=    24.05 kcal/mol
 sn= 3  qrot/sn=   66285.4418 T*S(rot)=     7.47 kcal/mol T*S(tot)=    23.81 kcal/mol
 sn= 4  qrot/sn=   49714.0813 T*S(rot)=     7.30 kcal/mol T*S(tot)=    23.64 kcal/mol
 sn= 5  qrot/sn=   39771.2651 T*S(rot)=     7.16 kcal/mol T*S(tot)=    23.51 kcal/mol
 sn= 6  qrot/sn=   33142.7209 T*S(rot)=     7.06 kcal/mol T*S(tot)=    23.40 kcal/mol
 sn= 7  qrot/sn=   28408.0465 T*S(rot)=     6.96 kcal/mol T*S(tot)=    23.31 kcal/mol
 sn= 8  qrot/sn=   24857.0407 T*S(rot)=     6.89 kcal/mol T*S(tot)=    23.23 kcal/mol
 sn= 9  qrot/sn=   22095.1473 T*S(rot)=     6.82 kcal/mol T*S(tot)=    23.16 kcal/mol
 sn=10  qrot/sn=   19885.6325 T*S(rot)=     6.75 kcal/mol T*S(tot)=    23.09 kcal/mol
 sn=11  qrot/sn=   18077.8478 T*S(rot)=     6.70 kcal/mol T*S(tot)=    23.04 kcal/mol
 sn=12  qrot/sn=   16571.3604 T*S(rot)=     6.64 kcal/mol T*S(tot)=    22.99 kcal/mol

-------------------
GIBBS FREE ENTHALPY
-------------------

The Gibbs free enthalpy is G = H - T*S

Total enthalpy                    ...   -341.83144824 Eh
Total entropy correction          ...     -0.03794093 Eh    -23.81 kcal/mol
-----------------------------------------------------------------------
Final Gibbs free enthalpy         ...   -341.86938918 Eh

For completeness - the Gibbs free enthalpy minus the electronic energy
G-E(el)                           ...      0.11119109 Eh     69.77 kcal/mol

                             ****ORCA TERMINATED NORMALLY****
TOTAL RUN TIME: 0 days 0 hours 37 minutes 55 seconds 283 msec
