                         Program Version 3.0.3 - RELEASE   -
|  1> ! NORI PBE0 def2-TZVP UseSym TightOPT Freq TightSCF Grid3 FinalGrid5 XYZFile
|  2> % pal
|  3>     nprocs 8
|  4> end
|  5> %method
|  6>     SymThresh 5.0e-2
|  7> end
|  8> % geom
|  9>     MaxIter 10
| 10> end
| 11> % maxcore 2000
| 12> % output
| 13>     printlevel mini
| 14>     print[ P_Basis ] 0
| 15>     print[ P_SCFInfo ] 1
| 16>     print[ P_SCFIterInfo ] 1
| 17>     print[ P_OrbEn ] 0
| 18>     print[ P_Cartesian ] 0
| 19> end
| 20> % elprop
| 21>     Dipole false
| 22> end
| 23> *xyz 1 1
| 24>  C        0.8623545367    -0.0413002601    -0.1934538268
| 25>  N        2.3322570378     0.0439883340     0.0469825497
| 26>  C        2.9610044331    -1.3027367816     0.0130457372
| 27>  C        2.9360156895     1.0577432061    -0.8556025570
| 28>  C        4.3686850850     1.0722951684    -1.2767321948
| 29>  C        3.2749288378     0.7783258476    -2.2712408574
| 30>  O        2.8282004044     1.7301361574    -3.1564763258
| 31>  H        0.4298917170     0.9522587277    -0.0930478843
| 32>  H        0.4207621546    -0.7204716593     0.5335995852
| 33>  H        0.7041634142    -0.4098171183    -1.2049450250
| 34>  H        2.4644697143     0.4001298972     0.9960771803
| 35>  H        2.8430407179    -1.7276345302    -0.9814745223
| 36>  H        2.4540587634    -1.9330992636     0.7410307833
| 37>  H        4.0137372128    -1.2188949710     0.2704878288
| 38>  H        2.4788125987     2.0240514626    -0.6786158760
| 39>  H        4.8387234971     2.0478210292    -1.2887799539
| 40>  H        5.0269483143     0.2517319852    -1.0219152984
| 41>  H        3.2284234412    -0.2545673062    -2.6139540935
| 42>  H        3.4173724301     1.7708300747    -3.9170152495
| 43> *
| 44>
| 45>                          ****END OF INPUT****
 Total Charge           Charge          ....    1
 Multiplicity           Mult            ....    1
 Number of Electrons    NEL             ....   56
FINAL SINGLE POINT ENERGY      -327.185381161568
FINAL SINGLE POINT ENERGY      -327.185382771517

CARTESIAN COORDINATES (ANGSTROEM)
---------------------------------
  C      1.648706   -0.922889   -1.099290
  N      0.482997   -0.000415   -1.226638
  C     -0.663920   -0.673531   -1.891208
  C      0.187512    0.627158    0.087099
  C     -1.142154    1.177542    0.486358
  C     -0.586098   -0.054031    1.152797
  O     -0.000173   -0.001443    2.395277
  H      2.486332   -0.375654   -0.671080
  H      1.910935   -1.304153   -2.084703
  H      1.365429   -1.738954   -0.437585
  H      0.766130    0.763532   -1.844090
  H     -0.999090   -1.502342   -1.271902
  H     -0.324603   -1.052645   -2.853536
  H     -1.468378    0.041758   -2.042121
  H      1.056155    1.174414    0.433892
  H     -1.112381    2.119600    1.019255
  H     -2.009963    1.038225   -0.145452
  H     -1.095431   -0.983604    0.902637
  H     -0.679461   -0.018040    3.077718

FINAL SINGLE POINT ENERGY      -327.185383546855
                    ***********************HURRAY********************
 Multiplicity           Mult            ....    1
 Number of Electrons    NEL             ....   56
 Basis Dimension        Dim             ....  289
FINAL SINGLE POINT ENERGY      -327.185383876151

VIBRATIONAL FREQUENCIES
-----------------------

   0:         0.00 cm**-1
   1:         0.00 cm**-1
   2:         0.00 cm**-1
   3:         0.00 cm**-1
   4:         0.00 cm**-1
   5:         0.00 cm**-1
   6:        43.47 cm**-1
   7:       165.71 cm**-1
   8:       217.75 cm**-1
   9:       229.72 cm**-1
  10:       270.21 cm**-1
  11:       323.94 cm**-1
  12:       354.86 cm**-1
  13:       389.96 cm**-1
  14:       422.00 cm**-1
  15:       473.27 cm**-1
  16:       546.75 cm**-1
  17:       746.47 cm**-1
  18:       837.26 cm**-1
  19:       906.64 cm**-1
  20:       937.13 cm**-1
  21:       978.81 cm**-1
  22:      1014.66 cm**-1
  23:      1046.61 cm**-1
  24:      1052.54 cm**-1
  25:      1075.11 cm**-1
  26:      1105.78 cm**-1
  27:      1112.44 cm**-1
  28:      1183.45 cm**-1
  29:      1206.07 cm**-1
  30:      1233.28 cm**-1
  31:      1242.20 cm**-1
  32:      1272.65 cm**-1
  33:      1284.40 cm**-1
  34:      1368.56 cm**-1
  35:      1407.94 cm**-1
  36:      1424.09 cm**-1
  37:      1437.83 cm**-1
  38:      1440.64 cm**-1
  39:      1468.62 cm**-1
  40:      1480.10 cm**-1
  41:      1486.30 cm**-1
  42:      1499.62 cm**-1
  43:      1508.63 cm**-1
  44:      1531.95 cm**-1
  45:      3090.04 cm**-1
  46:      3097.98 cm**-1
  47:      3126.31 cm**-1
  48:      3167.20 cm**-1
  49:      3190.32 cm**-1
  50:      3192.93 cm**-1
  51:      3195.43 cm**-1
  52:      3200.35 cm**-1
  53:      3206.14 cm**-1
  54:      3258.56 cm**-1
  55:      3445.43 cm**-1
  56:      3838.81 cm**-1

IR SPECTRUM
-----------

 Mode    freq (cm**-1)   T**2         TX         TY         TZ
-------------------------------------------------------------------
   6:        43.47    0.552386  ( -0.078388   0.691858  -0.259950)
   7:       165.71    1.769679  (  0.043744   0.291019  -1.297333)
   8:       217.75    0.225338  ( -0.072635  -0.137727   0.448435)
   9:       229.72    0.327650  (  0.018930   0.103231   0.562704)
  10:       270.21    3.012702  (  0.164187  -1.671468  -0.438110)
  11:       323.94  121.975883  (  0.650681 -10.913697   1.563236)
  12:       354.86    9.794644  (  0.942332   0.594770   2.924535)
  13:       389.96   10.471930  ( -0.426153  -3.158059  -0.563018)
  14:       422.00    5.100160  (  0.054420  -2.010983   1.026229)
  15:       473.27    1.415951  (  0.514470  -1.004996  -0.375840)
  16:       546.75    0.605044  (  0.701155  -0.020255  -0.336178)
  17:       746.47    4.050814  ( -0.844002  -0.819517   1.633055)
  18:       837.26    5.397939  ( -1.311806  -0.983780   1.645990)
  19:       906.64   18.079746  (  1.293198  -3.118487  -2.585039)
  20:       937.13    3.904033  (  0.365775  -1.130524  -1.578657)
  21:       978.81    4.876963  (  1.173545  -1.448571  -1.183806)
  22:      1014.66   15.189309  ( -3.878908   0.052819  -0.374952)
  23:      1046.61   19.114409  (  2.328137   2.032811   3.092227)
  24:      1052.54    9.684925  ( -0.505358  -2.060136  -2.277142)
  25:      1075.11   23.238666  (  1.030671   0.566245  -4.675013)
  26:      1105.78    3.983563  ( -0.799875  -0.847899  -1.620133)
  27:      1112.44   15.627026  (  2.741901  -1.021327   2.658176)
  28:      1183.45   11.197795  ( -0.277692   0.706033   3.259172)
  29:      1206.07    2.571089  (  1.257949  -0.912488  -0.394995)
  30:      1233.28   10.882864  (  1.544827  -1.043194   2.721786)
  31:      1242.20   72.852002  (  2.217862  -1.216970   8.151814)
  32:      1272.65   10.767909  ( -0.927788   0.757332  -3.055089)
  33:      1284.40   65.641393  ( -4.612013   0.503672  -6.642066)
  34:      1368.56    4.782008  (  1.884721  -0.931613  -0.601608)
  35:      1407.94   13.457351  ( -2.431444   2.736110  -0.243172)
  36:      1424.09    5.968725  (  2.049196   0.380706  -1.274592)
  37:      1437.83    6.886443  (  2.344749  -1.173321  -0.109154)
  38:      1440.64    7.594478  (  0.954520   2.327845   1.124503)
  39:      1468.62    6.890634  (  1.636579   2.043919   0.186111)
  40:      1480.10    2.168587  ( -1.044720   0.358467  -0.973985)
  41:      1486.30   16.464697  ( -4.036747  -0.381633  -0.154026)
  42:      1499.62   25.832009  (  0.009127   5.071747   0.330610)
  43:      1508.63   40.389565  (  1.375966   0.165281  -6.202335)
  44:      1531.95   26.612107  ( -2.844937   2.138678  -3.734233)
  45:      3090.04    0.289419  (  0.322591  -0.162727  -0.398590)
  46:      3097.98    0.115292  (  0.235374  -0.066399  -0.235546)
  47:      3126.31   17.809347  ( -1.312397  -2.145134  -3.389006)
  48:      3167.20    2.567190  ( -0.181452   1.350635   0.842645)
  49:      3190.32    0.280298  ( -0.104087   0.420651   0.304165)
  50:      3192.93    0.063844  ( -0.203001  -0.039029   0.145297)
  51:      3195.43    0.120118  (  0.339894  -0.001097   0.067745)
  52:      3200.35    1.408880  (  0.812076   0.791530   0.350562)
  53:      3206.14    0.023413  (  0.063111   0.092795   0.104017)
  54:      3258.56    0.773150  (  0.146612   0.822927   0.272846)
  55:      3445.43   57.111516  (  2.277118   5.702035  -4.406024)
  56:      3838.81  104.138130  (  4.383329   0.508983  -9.201385)

--------------------------
THERMOCHEMISTRY AT 298.15K
--------------------------

Temperature         ... 298.15 K
Pressure            ... 1.00 atm
Total Mass          ... 102.16 AMU

Throughout the following assumptions are being made:
  (1) The electronic state is orbitally nondegenerate
  (2) There are no thermally accessible electronically excited states
  (3) Hindered rotations indicated by low frequency modes) are not
      treated as such but are treated as vibrations and this may
      case some error
  (4) All equations used are the standard statistical mechanics
      equations for an ideal gas
  (5) All vibrations are strinctly harmonic

------------
INNER ENERGY
------------

The inner energy is: U= E(el) + E(ZPE) + E(vib) + E(rot) + E(trans)
    E(el)   - is the total energy from the electronic structure calculation
              = E(kin-el) + E(nuc-el) + E(el-el) + E(nuc-nuc)
    E(ZPE)  - the the zero temperature vibrational energy from the frequency calculation
    E(vib)  - the the finite temperature correction to E(ZPE) due to population
              of excietd vibrational states
    E(rot)  - is the rotational thermal energy
    E(trans)- is the translational thermal energy

Summary of contributions to the inner energy U:
Electronic energy                ...   -327.18538388 Eh
Zero point energy                ...      0.17481959 Eh     109.70 kcal/mol
Thermal vibrational correction   ...      0.00539140 Eh       3.38 kcal/mol
Thermal rotational correction    ...      0.00141627 Eh       0.89 kcal/mol
Thermal translational correction ...      0.00141627 Eh       0.89 kcal/mol
-----------------------------------------------------------------------
Total thermal energy                   -327.00234034 Eh

Summary of corrections to the electronic energy:
(perhaps to be used in another calculation)
Total thermal correction                  0.00822395 Eh       5.16 kcal/mol
Non-thermal (ZPE) correction              0.17481959 Eh     109.70 kcal/mol
-----------------------------------------------------------------------
Total correction                          0.18304353 Eh     114.86 kcal/mol

--------
ENTHALPY
--------

The enthalpy is H = U + kB*T
                kB is Boltzmann's constant
Total free energy                 ...   -327.00234034 Eh
Thermal Enthalpy correction       ...      0.00094421 Eh       0.59 kcal/mol
-----------------------------------------------------------------------
Total Enthalpy                    ...   -327.00139613 Eh

-------
ENTROPY
-------

The entropy contributions are T*S = T*(S(el)+S(vib)+S(rot)+S(trans)
     S(el)   - electronic entropy
     S(vib)  - vibrational entropy
     S(rot)  - rotational entropy
     S(trans)- translational entropy
The entropies will be listed as mutliplied by the temperature to get
units of energy

Electronic entropy                ...      0.00000000 Eh      0.00 kcal/mol
Vibrational entropy               ...      0.00961043 Eh      6.03 kcal/mol
Rotational entropy                ...      0.01211647 Eh      7.60 kcal/mol
Translational entropy             ...      0.01890147 Eh     11.86 kcal/mol
-----------------------------------------------------------------------
Final entropy term                ...      0.04062837 Eh     25.49 kcal/mol

CAUTION: The rotational entropy is not quite correctly treated here
         because it includes a symmetry number that is not yet correctly
         implemented in ORCA!
For a nonlinear molecule the correct rotational entropy is:
    S(rot) = R*(ln(qrot/sn)+1.5)
    R    = 8.31441 J/mol/K = 1.987191683e-3 kcal/mol/K
    qrot = 250546.4857203
    sn is the rotational symmetry number. We have assumed 3 here
       if it is different for your molecule then you should correct
       the printed rotational entropy by manually evaluating the equation
       as given above

For convenience we print out the resulting values for sn=1 - 12:
 sn= 1  qrot/sn=  250546.4857 T*S(rot)=     8.25 kcal/mol T*S(tot)=    26.15 kcal/mol
 sn= 2  qrot/sn=  125273.2429 T*S(rot)=     7.84 kcal/mol T*S(tot)=    25.73 kcal/mol
 sn= 3  qrot/sn=   83515.4952 T*S(rot)=     7.60 kcal/mol T*S(tot)=    25.49 kcal/mol
 sn= 4  qrot/sn=   62636.6214 T*S(rot)=     7.43 kcal/mol T*S(tot)=    25.32 kcal/mol
 sn= 5  qrot/sn=   50109.2971 T*S(rot)=     7.30 kcal/mol T*S(tot)=    25.19 kcal/mol
 sn= 6  qrot/sn=   41757.7476 T*S(rot)=     7.19 kcal/mol T*S(tot)=    25.08 kcal/mol
 sn= 7  qrot/sn=   35792.3551 T*S(rot)=     7.10 kcal/mol T*S(tot)=    24.99 kcal/mol
 sn= 8  qrot/sn=   31318.3107 T*S(rot)=     7.02 kcal/mol T*S(tot)=    24.91 kcal/mol
 sn= 9  qrot/sn=   27838.4984 T*S(rot)=     6.95 kcal/mol T*S(tot)=    24.84 kcal/mol
 sn=10  qrot/sn=   25054.6486 T*S(rot)=     6.89 kcal/mol T*S(tot)=    24.78 kcal/mol
 sn=11  qrot/sn=   22776.9532 T*S(rot)=     6.83 kcal/mol T*S(tot)=    24.72 kcal/mol
 sn=12  qrot/sn=   20878.8738 T*S(rot)=     6.78 kcal/mol T*S(tot)=    24.67 kcal/mol

-------------------
GIBBS FREE ENTHALPY
-------------------

The Gibbs free enthalpy is G = H - T*S

Total enthalpy                    ...   -327.00139613 Eh
Total entropy correction          ...     -0.04062837 Eh    -25.49 kcal/mol
-----------------------------------------------------------------------
Final Gibbs free enthalpy         ...   -327.04202451 Eh

For completeness - the Gibbs free enthalpy minus the electronic energy
G-E(el)                           ...      0.14335937 Eh     89.96 kcal/mol

                             ****ORCA TERMINATED NORMALLY****
TOTAL RUN TIME: 0 days 0 hours 54 minutes 11 seconds 706 msec
