                         Program Version 3.0.3 - RELEASE   -
|  1> ! NORI PBE0 def2-TZVP UseSym TightOPT Freq TightSCF Grid3 FinalGrid5 XYZFile
|  2> % pal
|  3>     nprocs 8
|  4> end
|  5> %method
|  6>     SymThresh 5.0e-2
|  7> end
|  8> % geom
|  9>     MaxIter 10
| 10> end
| 11> % maxcore 2000
| 12> % output
| 13>     printlevel mini
| 14>     print[ P_Basis ] 0
| 15>     print[ P_SCFInfo ] 1
| 16>     print[ P_SCFIterInfo ] 1
| 17>     print[ P_OrbEn ] 0
| 18>     print[ P_Cartesian ] 0
| 19> end
| 20> % elprop
| 21>     Dipole false
| 22> end
| 23> *xyz 1 1
| 24>  C        1.9727315144    -0.8354405176    -0.0970407024
| 25>  N        3.1141401357    -0.3237755354     0.7010638771
| 26>  C        3.7234604227     0.9472788458     0.2098199819
| 27>  C        5.1407532725     1.0284760957     0.7429664679
| 28>  C        5.4314283018     1.1458330061     2.2428938700
| 29>  C        6.3163879356    -0.0815320828     2.0126811537
| 30>  O        5.7427389465    -0.2757946857     0.6884365570
| 31>  H        1.6138312496    -1.7605151285     0.3503020504
| 32>  H        2.3158964316    -1.0237630673    -1.1121851571
| 33>  H        1.1789942106    -0.0903283836    -0.1036973121
| 34>  H        3.9130422832    -0.9834859244     0.7010869596
| 35>  H        2.8313257075    -0.2178544936     1.6755027549
| 36>  H        3.1067812527     1.7943063831     0.5117057021
| 37>  H        3.7327723652     0.8829221938    -0.8795840560
| 38>  H        5.6964870006     1.7541198888     0.1401744332
| 39>  H        4.5746679876     0.9532751200     2.8927992884
| 40>  H        5.9175212462     2.0619198281     2.5707037496
| 41>  H        7.3823831213     0.1387998534     1.9337831334
| 42>  H        6.1659966147    -0.9526013958     2.6515072483
| 43> *
| 44>
| 45>                          ****END OF INPUT****
 Total Charge           Charge          ....    1
 Multiplicity           Mult            ....    1
 Number of Electrons    NEL             ....   56
FINAL SINGLE POINT ENERGY      -327.196458505075

CARTESIAN COORDINATES (ANGSTROEM)
---------------------------------
  C      2.194494    0.533276   -1.783154
  N      1.030952   -0.000278   -1.033046
  C     -0.091890    0.960219   -0.820773
  C     -0.896868    0.489956    0.375454
  C     -1.667460   -0.834446    0.357795
  C     -0.877715   -1.135574    1.633773
  O     -0.000353   -0.000094    1.386596
  H      2.946109   -0.248862   -1.875219
  H      2.604132    1.377888   -1.232955
  H      1.866266    0.854818   -2.769792
  H      1.287399   -0.280264   -0.069178
  H      0.683627   -0.842456   -1.492247
  H     -0.688506    1.038553   -1.729860
  H      0.366825    1.927784   -0.610533
  H     -1.496002    1.330020    0.741268
  H     -1.423187   -1.496670   -0.476028
  H     -2.749511   -0.765103    0.441153
  H     -1.438391   -0.985292    2.557797
  H     -0.322746   -2.072598    1.687392

FINAL SINGLE POINT ENERGY      -327.196459161942
                    ***********************HURRAY********************
 Multiplicity           Mult            ....    1
 Number of Electrons    NEL             ....   56
 Basis Dimension        Dim             ....  289
FINAL SINGLE POINT ENERGY      -327.196459362604

VIBRATIONAL FREQUENCIES
-----------------------

   0:         0.00 cm**-1
   1:         0.00 cm**-1
   2:         0.00 cm**-1
   3:         0.00 cm**-1
   4:         0.00 cm**-1
   5:         0.00 cm**-1
   6:        80.10 cm**-1
   7:       115.99 cm**-1
   8:       130.56 cm**-1
   9:       214.34 cm**-1
  10:       272.91 cm**-1
  11:       308.79 cm**-1
  12:       365.19 cm**-1
  13:       614.43 cm**-1
  14:       694.61 cm**-1
  15:       801.09 cm**-1
  16:       821.88 cm**-1
  17:       893.55 cm**-1
  18:       904.31 cm**-1
  19:       924.40 cm**-1
  20:       983.78 cm**-1
  21:      1012.41 cm**-1
  22:      1033.93 cm**-1
  23:      1055.47 cm**-1
  24:      1084.30 cm**-1
  25:      1117.72 cm**-1
  26:      1157.35 cm**-1
  27:      1180.77 cm**-1
  28:      1197.05 cm**-1
  29:      1216.75 cm**-1
  30:      1262.46 cm**-1
  31:      1283.06 cm**-1
  32:      1304.32 cm**-1
  33:      1340.84 cm**-1
  34:      1365.04 cm**-1
  35:      1392.12 cm**-1
  36:      1406.05 cm**-1
  37:      1426.62 cm**-1
  38:      1460.26 cm**-1
  39:      1485.55 cm**-1
  40:      1492.17 cm**-1
  41:      1494.02 cm**-1
  42:      1498.63 cm**-1
  43:      1528.30 cm**-1
  44:      1671.61 cm**-1
  45:      3070.34 cm**-1
  46:      3084.78 cm**-1
  47:      3087.98 cm**-1
  48:      3091.46 cm**-1
  49:      3100.35 cm**-1
  50:      3145.75 cm**-1
  51:      3162.45 cm**-1
  52:      3170.36 cm**-1
  53:      3190.29 cm**-1
  54:      3194.19 cm**-1
  55:      3256.26 cm**-1
  56:      3487.98 cm**-1

IR SPECTRUM
-----------

 Mode    freq (cm**-1)   T**2         TX         TY         TZ
-------------------------------------------------------------------
   6:        80.10    3.632311  ( -1.745629  -0.148265   0.750406)
   7:       115.99    3.056332  ( -0.686613  -1.130045   1.143632)
   8:       130.56    2.959597  (  1.203723   0.702882   1.008269)
   9:       214.34   10.167224  (  2.491903  -0.754459  -1.840770)
  10:       272.91   25.266376  ( -2.559539   0.833203   4.245104)
  11:       308.79    2.462438  ( -1.004139  -0.548341  -1.073994)
  12:       365.19   10.488860  ( -1.302945  -0.237288   2.955484)
  13:       614.43    4.027993  ( -1.738890   0.044518  -1.001136)
  14:       694.61    1.221820  ( -0.866471  -0.502254  -0.467748)
  15:       801.09    1.453093  (  0.166138  -0.736952   0.939358)
  16:       821.88    6.578865  (  0.154402  -1.201298  -2.260953)
  17:       893.55   18.171619  (  4.022527  -0.174912   1.400107)
  18:       904.31   18.988534  (  3.199304   0.725628   2.868179)
  19:       924.40    7.063365  ( -2.210314   0.972812   1.109736)
  20:       983.78   16.770131  (  2.258648   3.213647  -1.158066)
  21:      1012.41   90.881792  ( -3.956296  -6.816710   5.363020)
  22:      1033.93   24.859111  (  0.004581  -2.936632   4.029303)
  23:      1055.47    1.597199  (  0.814873   0.220480  -0.940515)
  24:      1084.30    3.127289  (  1.551012  -0.793754  -0.302664)
  25:      1117.72   14.074086  ( -2.869227   1.276381  -2.052431)
  26:      1157.35    2.239311  ( -0.512241   1.275539  -0.591540)
  27:      1180.77   26.276400  (  3.928336  -0.108470  -3.291323)
  28:      1197.05    1.323350  ( -0.966610  -0.462634   0.418314)
  29:      1216.75    2.128492  (  0.727584  -0.906380   0.881810)
  30:      1262.46   11.387042  ( -0.211384   2.779584  -1.901649)
  31:      1283.06    1.268288  ( -0.820223   0.771203   0.027706)
  32:      1304.32   21.708733  (  4.203031   0.592060  -1.921647)
  33:      1340.84   27.436288  ( -3.891749   0.799741   3.413355)
  34:      1365.04   30.677250  (  3.832905  -0.396617  -3.978540)
  35:      1392.12   11.570808  ( -1.482133  -1.028500   2.883796)
  36:      1406.05    2.160083  ( -0.541412   0.639343   1.207558)
  37:      1426.62   63.429756  ( -7.001530   0.757165   3.719547)
  38:      1460.26    1.334364  (  1.129579   0.124296  -0.207282)
  39:      1485.55   27.986336  (  2.969225   1.469252  -4.124480)
  40:      1492.17    3.458519  ( -1.288776   1.025038   0.864217)
  41:      1494.02   26.787156  ( -4.316528   0.420811  -2.824475)
  42:      1498.63   29.334034  ( -0.473431   4.780284   2.501756)
  43:      1528.30    3.237780  ( -0.764482  -1.406374   0.821864)
  44:      1671.61   36.573015  (  0.963611   5.168799  -2.987973)
  45:      3070.34   10.222251  (  1.583082  -2.406919   1.386665)
  46:      3084.78   16.207373  ( -0.684860   2.115432   3.356082)
  47:      3087.98   24.206690  (  0.842419   3.374711  -3.479705)
  48:      3091.46    0.611614  (  0.416717   0.107997  -0.652915)
  49:      3100.35    1.182053  ( -0.067746  -0.883687   0.629730)
  50:      3145.75    6.300371  ( -1.314305   1.988385   0.786955)
  51:      3162.45    0.210240  ( -0.168086   0.189900  -0.382001)
  52:      3170.36    4.856246  ( -1.841035   0.789663   0.918296)
  53:      3190.29    0.472768  ( -0.125613   0.067230   0.672658)
  54:      3194.19    0.722145  ( -0.424163  -0.351264   0.647182)
  55:      3256.26  193.942315  ( -3.410354  -3.774972  12.963849)
  56:      3487.98   52.256922  (  1.574925   5.268344   4.692663)

--------------------------
THERMOCHEMISTRY AT 298.15K
--------------------------

Temperature         ... 298.15 K
Pressure            ... 1.00 atm
Total Mass          ... 102.16 AMU

Throughout the following assumptions are being made:
  (1) The electronic state is orbitally nondegenerate
  (2) There are no thermally accessible electronically excited states
  (3) Hindered rotations indicated by low frequency modes) are not
      treated as such but are treated as vibrations and this may
      case some error
  (4) All equations used are the standard statistical mechanics
      equations for an ideal gas
  (5) All vibrations are strinctly harmonic

------------
INNER ENERGY
------------

The inner energy is: U= E(el) + E(ZPE) + E(vib) + E(rot) + E(trans)
    E(el)   - is the total energy from the electronic structure calculation
              = E(kin-el) + E(nuc-el) + E(el-el) + E(nuc-nuc)
    E(ZPE)  - the the zero temperature vibrational energy from the frequency calculation
    E(vib)  - the the finite temperature correction to E(ZPE) due to population
              of excietd vibrational states
    E(rot)  - is the rotational thermal energy
    E(trans)- is the translational thermal energy

Summary of contributions to the inner energy U:
Electronic energy                ...   -327.19645936 Eh
Zero point energy                ...      0.17686538 Eh     110.98 kcal/mol
Thermal vibrational correction   ...      0.00484407 Eh       3.04 kcal/mol
Thermal rotational correction    ...      0.00141627 Eh       0.89 kcal/mol
Thermal translational correction ...      0.00141627 Eh       0.89 kcal/mol
-----------------------------------------------------------------------
Total thermal energy                   -327.01191737 Eh

Summary of corrections to the electronic energy:
(perhaps to be used in another calculation)
Total thermal correction                  0.00767661 Eh       4.82 kcal/mol
Non-thermal (ZPE) correction              0.17686538 Eh     110.98 kcal/mol
-----------------------------------------------------------------------
Total correction                          0.18454199 Eh     115.80 kcal/mol

--------
ENTHALPY
--------

The enthalpy is H = U + kB*T
                kB is Boltzmann's constant
Total free energy                 ...   -327.01191737 Eh
Thermal Enthalpy correction       ...      0.00094421 Eh       0.59 kcal/mol
-----------------------------------------------------------------------
Total Enthalpy                    ...   -327.01097316 Eh

-------
ENTROPY
-------

The entropy contributions are T*S = T*(S(el)+S(vib)+S(rot)+S(trans)
     S(el)   - electronic entropy
     S(vib)  - vibrational entropy
     S(rot)  - rotational entropy
     S(trans)- translational entropy
The entropies will be listed as mutliplied by the temperature to get
units of energy

Electronic entropy                ...      0.00000000 Eh      0.00 kcal/mol
Vibrational entropy               ...      0.00878721 Eh      5.51 kcal/mol
Rotational entropy                ...      0.01206690 Eh      7.57 kcal/mol
Translational entropy             ...      0.01890147 Eh     11.86 kcal/mol
-----------------------------------------------------------------------
Final entropy term                ...      0.03975558 Eh     24.95 kcal/mol

CAUTION: The rotational entropy is not quite correctly treated here
         because it includes a symmetry number that is not yet correctly
         implemented in ORCA!
For a nonlinear molecule the correct rotational entropy is:
    S(rot) = R*(ln(qrot/sn)+1.5)
    R    = 8.31441 J/mol/K = 1.987191683e-3 kcal/mol/K
    qrot = 237732.2025365
    sn is the rotational symmetry number. We have assumed 3 here
       if it is different for your molecule then you should correct
       the printed rotational entropy by manually evaluating the equation
       as given above

For convenience we print out the resulting values for sn=1 - 12:
 sn= 1  qrot/sn=  237732.2025 T*S(rot)=     8.22 kcal/mol T*S(tot)=    25.60 kcal/mol
 sn= 2  qrot/sn=  118866.1013 T*S(rot)=     7.81 kcal/mol T*S(tot)=    25.19 kcal/mol
 sn= 3  qrot/sn=   79244.0675 T*S(rot)=     7.57 kcal/mol T*S(tot)=    24.95 kcal/mol
 sn= 4  qrot/sn=   59433.0506 T*S(rot)=     7.40 kcal/mol T*S(tot)=    24.78 kcal/mol
 sn= 5  qrot/sn=   47546.4405 T*S(rot)=     7.27 kcal/mol T*S(tot)=    24.64 kcal/mol
 sn= 6  qrot/sn=   39622.0338 T*S(rot)=     7.16 kcal/mol T*S(tot)=    24.54 kcal/mol
 sn= 7  qrot/sn=   33961.7432 T*S(rot)=     7.07 kcal/mol T*S(tot)=    24.44 kcal/mol
 sn= 8  qrot/sn=   29716.5253 T*S(rot)=     6.99 kcal/mol T*S(tot)=    24.37 kcal/mol
 sn= 9  qrot/sn=   26414.6892 T*S(rot)=     6.92 kcal/mol T*S(tot)=    24.30 kcal/mol
 sn=10  qrot/sn=   23773.2203 T*S(rot)=     6.86 kcal/mol T*S(tot)=    24.23 kcal/mol
 sn=11  qrot/sn=   21612.0184 T*S(rot)=     6.80 kcal/mol T*S(tot)=    24.18 kcal/mol
 sn=12  qrot/sn=   19811.0169 T*S(rot)=     6.75 kcal/mol T*S(tot)=    24.13 kcal/mol

-------------------
GIBBS FREE ENTHALPY
-------------------

The Gibbs free enthalpy is G = H - T*S

Total enthalpy                    ...   -327.01097316 Eh
Total entropy correction          ...     -0.03975558 Eh    -24.95 kcal/mol
-----------------------------------------------------------------------
Final Gibbs free enthalpy         ...   -327.05072875 Eh

For completeness - the Gibbs free enthalpy minus the electronic energy
G-E(el)                           ...      0.14573062 Eh     91.45 kcal/mol

                             ****ORCA TERMINATED NORMALLY****
TOTAL RUN TIME: 0 days 0 hours 50 minutes 37 seconds 865 msec
