                         Program Version 3.0.3 - RELEASE   -
|  1> ! NORI PBE0 def2-TZVP UseSym TightOPT Freq TightSCF Grid3 FinalGrid5 XYZFile
|  2> % pal
|  3>     nprocs 8
|  4> end
|  5> %method
|  6>     SymThresh 5.0e-2
|  7> end
|  8> % geom
|  9>     MaxIter 10
| 10> end
| 11> % maxcore 2000
| 12> % output
| 13>     printlevel mini
| 14>     print[ P_Basis ] 0
| 15>     print[ P_SCFInfo ] 1
| 16>     print[ P_SCFIterInfo ] 1
| 17>     print[ P_OrbEn ] 0
| 18>     print[ P_Cartesian ] 0
| 19> end
| 20> % elprop
| 21>     Dipole false
| 22> end
| 23> *xyz 1 1
| 24>  C        1.1174986358    -0.1697402717     0.5572489400
| 25>  N        2.2905226315    -0.3492016448    -0.3353830674
| 26>  C        2.5483478953    -1.7578791867    -0.7757622059
| 27>  C        3.9204886145    -1.7893592995    -1.4154298381
| 28>  C        4.0010606589    -1.4886403673    -2.8814686480
| 29>  C        4.9810806291    -2.5186654962    -0.7208982407
| 30>  O        4.8491537428    -1.1075399384    -0.5685628032
| 31>  H        1.0303024208     0.8824086295     0.8218643024
| 32>  H        1.2686049231    -0.7676931535     1.4534937297
| 33>  H        0.2210095841    -0.5002380460     0.0358567753
| 34>  H        2.1938814544     0.2516875829    -1.1557864032
| 35>  H        3.1596737355    -0.0556356397     0.1308537446
| 36>  H        2.5061193696    -2.3711327516     0.1242680492
| 37>  H        1.7498805203    -2.0589091384    -1.4541762954
| 38>  H        5.0421860327    -1.4289117352    -3.1964482292
| 39>  H        3.5250164790    -0.5347932999    -3.1316474527
| 40>  H        3.5070996591    -2.2720479629    -3.4608593429
| 41>  H        5.8523327840    -2.8334244274    -1.2867106121
| 42>  H        4.7548402296    -3.1069738531     0.1639175975
| 43> *
| 44>
| 45>                          ****END OF INPUT****
 Total Charge           Charge          ....    1
 Multiplicity           Mult            ....    1
 Number of Electrons    NEL             ....   56
FINAL SINGLE POINT ENERGY      -327.195813060994
FINAL SINGLE POINT ENERGY      -327.195815404890
FINAL SINGLE POINT ENERGY      -327.195817708984

CARTESIAN COORDINATES (ANGSTROEM)
---------------------------------
  C      2.119697    0.731605   -1.804865
  N      1.254894    0.007003   -0.840093
  C     -0.183797    0.424529   -0.831587
  C     -0.832513   -0.212796    0.379205
  C     -1.404749   -1.587258    0.206470
  C     -1.258943    0.664973    1.468472
  O     -0.000228   -0.002563    1.523417
  H      3.137377    0.353991   -1.722235
  H      2.095949    1.792559   -1.564347
  H      1.741024    0.569338   -2.812126
  H      1.315097   -0.998136   -1.011606
  H      1.575995    0.148672    0.127167
  H     -0.185316    1.512598   -0.767659
  H     -0.637701    0.118657   -1.774159
  H     -1.735261   -1.980656    1.167065
  H     -0.671585   -2.289650   -0.203430
  H     -2.261014   -1.561857   -0.471482
  H     -1.997158    0.296321    2.173706
  H     -1.210243    1.744175    1.355240

FINAL SINGLE POINT ENERGY      -327.195817872671
                    ***********************HURRAY********************
 Multiplicity           Mult            ....    1
 Number of Electrons    NEL             ....   56
 Basis Dimension        Dim             ....  289
FINAL SINGLE POINT ENERGY      -327.195817985907

VIBRATIONAL FREQUENCIES
-----------------------

   0:         0.00 cm**-1
   1:         0.00 cm**-1
   2:         0.00 cm**-1
   3:         0.00 cm**-1
   4:         0.00 cm**-1
   5:         0.00 cm**-1
   6:        69.66 cm**-1
   7:       110.11 cm**-1
   8:       180.39 cm**-1
   9:       207.35 cm**-1
  10:       237.61 cm**-1
  11:       309.03 cm**-1
  12:       361.50 cm**-1
  13:       370.49 cm**-1
  14:       423.87 cm**-1
  15:       527.48 cm**-1
  16:       754.72 cm**-1
  17:       813.34 cm**-1
  18:       875.68 cm**-1
  19:       913.27 cm**-1
  20:       936.71 cm**-1
  21:       937.25 cm**-1
  22:       957.09 cm**-1
  23:      1031.99 cm**-1
  24:      1048.39 cm**-1
  25:      1106.84 cm**-1
  26:      1121.54 cm**-1
  27:      1137.94 cm**-1
  28:      1178.47 cm**-1
  29:      1192.56 cm**-1
  30:      1279.84 cm**-1
  31:      1313.28 cm**-1
  32:      1357.39 cm**-1
  33:      1395.15 cm**-1
  34:      1409.46 cm**-1
  35:      1427.21 cm**-1
  36:      1439.47 cm**-1
  37:      1460.76 cm**-1
  38:      1478.89 cm**-1
  39:      1481.40 cm**-1
  40:      1488.63 cm**-1
  41:      1493.70 cm**-1
  42:      1499.57 cm**-1
  43:      1535.51 cm**-1
  44:      1663.17 cm**-1
  45:      3048.55 cm**-1
  46:      3092.26 cm**-1
  47:      3105.64 cm**-1
  48:      3120.13 cm**-1
  49:      3126.51 cm**-1
  50:      3163.19 cm**-1
  51:      3168.66 cm**-1
  52:      3192.03 cm**-1
  53:      3194.76 cm**-1
  54:      3224.48 cm**-1
  55:      3364.11 cm**-1
  56:      3476.88 cm**-1

IR SPECTRUM
-----------

 Mode    freq (cm**-1)   T**2         TX         TY         TZ
-------------------------------------------------------------------
   6:        69.66    1.072286  (  0.438254  -0.466376  -0.814072)
   7:       110.11    5.906878  ( -0.759236  -1.926845  -1.271891)
   8:       180.39   15.257951  (  2.928623   0.705240  -2.486715)
   9:       207.35    3.690503  (  1.539933  -0.048656  -1.147494)
  10:       237.61    5.600598  (  0.882500  -0.746196  -2.065183)
  11:       309.03    4.330429  (  1.395724   1.061763  -1.120287)
  12:       361.50    2.721597  ( -0.158053  -1.378039  -0.893099)
  13:       370.49    9.012282  ( -1.487286  -1.588010   2.068451)
  14:       423.87    5.199800  (  1.836558   1.172259   0.672803)
  15:       527.48   11.529542  (  2.497859  -0.651553   2.205837)
  16:       754.72    4.947411  (  0.458857  -1.374470  -1.687511)
  17:       813.34   11.454635  (  0.485501   2.409950   2.326169)
  18:       875.68   20.371690  (  1.604539   1.613773   3.897805)
  19:       913.27   22.225267  ( -4.490907   0.857088  -1.149966)
  20:       936.71    5.821636  (  1.259695  -1.070625  -1.757432)
  21:       937.25   15.748856  ( -3.672399   1.075401  -1.051596)
  22:       957.09    1.866417  (  1.302080  -0.226472  -0.346001)
  23:      1031.99    8.234535  ( -2.158103   1.440982   1.225030)
  24:      1048.39   10.992667  (  2.313394   0.904570  -2.196049)
  25:      1106.84    5.844556  (  1.812407  -0.224811   1.584045)
  26:      1121.54    3.280332  ( -1.623901   0.417667   0.684714)
  27:      1137.94    5.942708  ( -1.737779   1.575120  -0.664702)
  28:      1178.47   23.022860  ( -4.375396  -0.776608   1.809876)
  29:      1192.56    2.251371  ( -1.188523   0.478876  -0.780679)
  30:      1279.84    3.390263  (  0.046532  -1.139154   1.445831)
  31:      1313.28    4.796679  (  1.138724   1.764578  -0.621492)
  32:      1357.39   54.826236  ( -6.839384  -1.071304   2.627047)
  33:      1395.15    5.136796  ( -0.651139  -2.031863   0.764426)
  34:      1409.46   15.391830  ( -2.254805  -1.804193   2.655668)
  35:      1427.21   50.970045  ( -6.535871  -0.013288   2.872674)
  36:      1439.47   13.037038  (  1.772258   2.088712   2.352323)
  37:      1460.76    1.162749  (  0.871901   0.581007  -0.254890)
  38:      1478.89   13.732604  (  0.659391   1.763206  -3.192008)
  39:      1481.40   23.024632  ( -4.268119   0.772658   2.052021)
  40:      1488.63    7.569470  ( -2.359795  -0.705541   1.225989)
  41:      1493.70   23.360758  (  2.474909   2.412468   3.378695)
  42:      1499.57   33.090918  (  4.019858  -4.083478   0.506818)
  43:      1535.51    5.314856  (  0.617759   1.713958   1.412649)
  44:      1663.17   40.957276  (  1.729250  -4.385194   4.328631)
  45:      3048.55   10.458352  ( -1.794043   1.892358   1.912784)
  46:      3092.26    0.179963  (  0.047630   0.171254  -0.385184)
  47:      3105.64    1.572315  ( -0.481392  -0.453341   1.065391)
  48:      3120.13    6.770114  ( -2.243112   1.245727   0.432119)
  49:      3126.51    6.529672  ( -1.664225   1.930415   0.183091)
  50:      3163.19    0.883960  ( -0.422676   0.197090   0.816371)
  51:      3168.66    0.515954  (  0.073821   0.518734   0.491344)
  52:      3192.03    0.106153  (  0.191584  -0.254753   0.067455)
  53:      3194.76    0.066659  (  0.071747   0.173091  -0.177626)
  54:      3224.48    2.008675  (  0.461266   1.291203  -0.358752)
  55:      3364.11   93.288825  ( -0.009342  -0.843846   9.621677)
  56:      3476.88   62.123708  (  0.677857  -7.089459  -3.376949)

--------------------------
THERMOCHEMISTRY AT 298.15K
--------------------------

Temperature         ... 298.15 K
Pressure            ... 1.00 atm
Total Mass          ... 102.16 AMU

Throughout the following assumptions are being made:
  (1) The electronic state is orbitally nondegenerate
  (2) There are no thermally accessible electronically excited states
  (3) Hindered rotations indicated by low frequency modes) are not
      treated as such but are treated as vibrations and this may
      case some error
  (4) All equations used are the standard statistical mechanics
      equations for an ideal gas
  (5) All vibrations are strinctly harmonic

------------
INNER ENERGY
------------

The inner energy is: U= E(el) + E(ZPE) + E(vib) + E(rot) + E(trans)
    E(el)   - is the total energy from the electronic structure calculation
              = E(kin-el) + E(nuc-el) + E(el-el) + E(nuc-nuc)
    E(ZPE)  - the the zero temperature vibrational energy from the frequency calculation
    E(vib)  - the the finite temperature correction to E(ZPE) due to population
              of excietd vibrational states
    E(rot)  - is the rotational thermal energy
    E(trans)- is the translational thermal energy

Summary of contributions to the inner energy U:
Electronic energy                ...   -327.19581799 Eh
Zero point energy                ...      0.17497221 Eh     109.80 kcal/mol
Thermal vibrational correction   ...      0.00542382 Eh       3.40 kcal/mol
Thermal rotational correction    ...      0.00141627 Eh       0.89 kcal/mol
Thermal translational correction ...      0.00141627 Eh       0.89 kcal/mol
-----------------------------------------------------------------------
Total thermal energy                   -327.01258941 Eh

Summary of corrections to the electronic energy:
(perhaps to be used in another calculation)
Total thermal correction                  0.00825637 Eh       5.18 kcal/mol
Non-thermal (ZPE) correction              0.17497221 Eh     109.80 kcal/mol
-----------------------------------------------------------------------
Total correction                          0.18322857 Eh     114.98 kcal/mol

--------
ENTHALPY
--------

The enthalpy is H = U + kB*T
                kB is Boltzmann's constant
Total free energy                 ...   -327.01258941 Eh
Thermal Enthalpy correction       ...      0.00094421 Eh       0.59 kcal/mol
-----------------------------------------------------------------------
Total Enthalpy                    ...   -327.01164520 Eh

-------
ENTROPY
-------

The entropy contributions are T*S = T*(S(el)+S(vib)+S(rot)+S(trans)
     S(el)   - electronic entropy
     S(vib)  - vibrational entropy
     S(rot)  - rotational entropy
     S(trans)- translational entropy
The entropies will be listed as mutliplied by the temperature to get
units of energy

Electronic entropy                ...      0.00000000 Eh      0.00 kcal/mol
Vibrational entropy               ...      0.00969814 Eh      6.09 kcal/mol
Rotational entropy                ...      0.01213121 Eh      7.61 kcal/mol
Translational entropy             ...      0.01890147 Eh     11.86 kcal/mol
-----------------------------------------------------------------------
Final entropy term                ...      0.04073081 Eh     25.56 kcal/mol

CAUTION: The rotational entropy is not quite correctly treated here
         because it includes a symmetry number that is not yet correctly
         implemented in ORCA!
For a nonlinear molecule the correct rotational entropy is:
    S(rot) = R*(ln(qrot/sn)+1.5)
    R    = 8.31441 J/mol/K = 1.987191683e-3 kcal/mol/K
    qrot = 254486.4599309
    sn is the rotational symmetry number. We have assumed 3 here
       if it is different for your molecule then you should correct
       the printed rotational entropy by manually evaluating the equation
       as given above

For convenience we print out the resulting values for sn=1 - 12:
 sn= 1  qrot/sn=  254486.4599 T*S(rot)=     8.26 kcal/mol T*S(tot)=    26.21 kcal/mol
 sn= 2  qrot/sn=  127243.2300 T*S(rot)=     7.85 kcal/mol T*S(tot)=    25.80 kcal/mol
 sn= 3  qrot/sn=   84828.8200 T*S(rot)=     7.61 kcal/mol T*S(tot)=    25.56 kcal/mol
 sn= 4  qrot/sn=   63621.6150 T*S(rot)=     7.44 kcal/mol T*S(tot)=    25.39 kcal/mol
 sn= 5  qrot/sn=   50897.2920 T*S(rot)=     7.31 kcal/mol T*S(tot)=    25.26 kcal/mol
 sn= 6  qrot/sn=   42414.4100 T*S(rot)=     7.20 kcal/mol T*S(tot)=    25.15 kcal/mol
 sn= 7  qrot/sn=   36355.2086 T*S(rot)=     7.11 kcal/mol T*S(tot)=    25.06 kcal/mol
 sn= 8  qrot/sn=   31810.8075 T*S(rot)=     7.03 kcal/mol T*S(tot)=    24.98 kcal/mol
 sn= 9  qrot/sn=   28276.2733 T*S(rot)=     6.96 kcal/mol T*S(tot)=    24.91 kcal/mol
 sn=10  qrot/sn=   25448.6460 T*S(rot)=     6.90 kcal/mol T*S(tot)=    24.85 kcal/mol
 sn=11  qrot/sn=   23135.1327 T*S(rot)=     6.84 kcal/mol T*S(tot)=    24.79 kcal/mol
 sn=12  qrot/sn=   21207.2050 T*S(rot)=     6.79 kcal/mol T*S(tot)=    24.74 kcal/mol

-------------------
GIBBS FREE ENTHALPY
-------------------

The Gibbs free enthalpy is G = H - T*S

Total enthalpy                    ...   -327.01164520 Eh
Total entropy correction          ...     -0.04073081 Eh    -25.56 kcal/mol
-----------------------------------------------------------------------
Final Gibbs free enthalpy         ...   -327.05237601 Eh

For completeness - the Gibbs free enthalpy minus the electronic energy
G-E(el)                           ...      0.14344197 Eh     90.01 kcal/mol

                             ****ORCA TERMINATED NORMALLY****
TOTAL RUN TIME: 0 days 0 hours 55 minutes 15 seconds 189 msec
