                         Program Version 3.0.3 - RELEASE   -
|  1> ! NORI PBE0 def2-TZVP UseSym TightOPT Freq TightSCF Grid3 FinalGrid5 XYZFile
|  2> % pal
|  3>     nprocs 8
|  4> end
|  5> %method
|  6>     SymThresh 5.0e-2
|  7> end
|  8> % geom
|  9>     MaxIter 10
| 10> end
| 11> % maxcore 2000
| 12> % output
| 13>     printlevel mini
| 14>     print[ P_Basis ] 0
| 15>     print[ P_SCFInfo ] 1
| 16>     print[ P_SCFIterInfo ] 1
| 17>     print[ P_OrbEn ] 0
| 18>     print[ P_Cartesian ] 0
| 19> end
| 20> % elprop
| 21>     Dipole false
| 22> end
| 23> *xyz 1 1
| 24>  C        1.0890429053    -0.1176595311    -0.1171639520
| 25>  N        2.5423525414    -0.3955354841    -0.2814640120
| 26>  C        3.4148085188     0.1879970123     0.7927125764
| 27>  C        4.8614269402    -0.1840949949     0.5891964318
| 28>  C        5.7030532276     0.1065807172     1.8439628226
| 29>  O        5.6599436231    -1.2733873313     2.2230918651
| 30>  C        5.1979071170    -1.6468138590     0.9287185112
| 31>  H        0.5422189241    -0.5764259474    -0.9388655863
| 32>  H        0.9387669808     0.9600798933    -0.1212973048
| 33>  H        0.7609261009    -0.5358907553     0.8321155480
| 34>  H        2.8567746904    -0.0434498200    -1.1879196212
| 35>  H        2.6963943406    -1.4062652983    -0.3050160815
| 36>  H        3.0398814980    -0.2008721440     1.7419844995
| 37>  H        3.2583129548     1.2681844311     0.7690937220
| 38>  H        5.2513273538     0.2079572897    -0.3528479849
| 39>  H        5.2668724648     0.7621115455     2.6030232921
| 40>  H        6.7199902806     0.4386077957     1.6161427090
| 41>  H        5.9964238907    -2.0667032155     0.3080330936
| 42>  H        4.3740356472    -2.3717403040     0.9823594714
| 43> *
| 44>
| 45>                          ****END OF INPUT****
 Total Charge           Charge          ....    1
 Multiplicity           Mult            ....    1
 Number of Electrons    NEL             ....   56
FINAL SINGLE POINT ENERGY      -327.181703579448

CARTESIAN COORDINATES (ANGSTROEM)
---------------------------------
  C      0.849340   -1.031422   -2.812790
  N      0.571960    0.000363   -1.776272
  C     -0.385096   -0.434134   -0.703566
  C     -0.568110    0.640085    0.338127
  C     -1.257575    0.094006    1.600517
  O      0.000737   -0.001058    2.277088
  C      0.627240    0.813989    1.291386
  H      1.547653   -0.626251   -3.542900
  H     -0.087805   -1.298069   -3.297253
  H      1.279020   -1.904868   -2.326531
  H      0.205091    0.843278   -2.223007
  H      1.448246    0.279437   -1.329004
  H      0.035069   -1.340530   -0.261885
  H     -1.321023   -0.688619   -1.204733
  H     -0.997314    1.549371   -0.089379
  H     -1.762855   -0.872343    1.520722
  H     -1.926376    0.817300    2.076026
  H      0.767098    1.844887    1.633058
  H      1.601136    0.408650    0.984410

FINAL SINGLE POINT ENERGY      -327.181704266503
                    ***********************HURRAY********************
 Multiplicity           Mult            ....    1
 Number of Electrons    NEL             ....   56
 Basis Dimension        Dim             ....  289
FINAL SINGLE POINT ENERGY      -327.181704613932

VIBRATIONAL FREQUENCIES
-----------------------

   0:         0.00 cm**-1
   1:         0.00 cm**-1
   2:         0.00 cm**-1
   3:         0.00 cm**-1
   4:         0.00 cm**-1
   5:         0.00 cm**-1
   6:        71.08 cm**-1
   7:       105.71 cm**-1
   8:       122.34 cm**-1
   9:       180.52 cm**-1
  10:       233.96 cm**-1
  11:       318.59 cm**-1
  12:       380.02 cm**-1
  13:       445.07 cm**-1
  14:       778.18 cm**-1
  15:       823.22 cm**-1
  16:       869.18 cm**-1
  17:       877.46 cm**-1
  18:       916.15 cm**-1
  19:       929.74 cm**-1
  20:       993.51 cm**-1
  21:      1027.81 cm**-1
  22:      1042.36 cm**-1
  23:      1075.55 cm**-1
  24:      1085.11 cm**-1
  25:      1115.88 cm**-1
  26:      1162.29 cm**-1
  27:      1167.57 cm**-1
  28:      1178.48 cm**-1
  29:      1240.28 cm**-1
  30:      1241.81 cm**-1
  31:      1315.72 cm**-1
  32:      1316.31 cm**-1
  33:      1344.73 cm**-1
  34:      1383.42 cm**-1
  35:      1398.71 cm**-1
  36:      1406.66 cm**-1
  37:      1425.47 cm**-1
  38:      1460.21 cm**-1
  39:      1486.35 cm**-1
  40:      1493.43 cm**-1
  41:      1498.19 cm**-1
  42:      1505.97 cm**-1
  43:      1529.24 cm**-1
  44:      1655.39 cm**-1
  45:      3010.24 cm**-1
  46:      3057.70 cm**-1
  47:      3074.48 cm**-1
  48:      3084.34 cm**-1
  49:      3092.76 cm**-1
  50:      3093.53 cm**-1
  51:      3112.51 cm**-1
  52:      3146.69 cm**-1
  53:      3193.63 cm**-1
  54:      3196.47 cm**-1
  55:      3434.92 cm**-1
  56:      3484.82 cm**-1

IR SPECTRUM
-----------

 Mode    freq (cm**-1)   T**2         TX         TY         TZ
-------------------------------------------------------------------
   6:        71.08    7.491950  ( -1.445615   1.692496   1.592986)
   7:       105.71    6.737727  (  0.526514  -0.145279   2.537598)
   8:       122.34    1.597081  ( -0.390247  -1.190141   0.168382)
   9:       180.52    5.225080  (  0.561875  -0.700315  -2.102126)
  10:       233.96    1.806310  (  0.823292  -0.529331   0.921037)
  11:       318.59    1.555222  (  0.094841  -0.326830  -1.199754)
  12:       380.02    2.604229  (  0.515597   0.408331  -1.473654)
  13:       445.07    0.709432  (  0.460833  -0.495365  -0.501675)
  14:       778.18    5.004118  (  1.843621  -0.189346   1.252728)
  15:       823.22   16.796017  (  2.163921  -1.536276   3.123030)
  16:       869.18    4.269446  ( -0.367079   0.039669  -2.033009)
  17:       877.46    5.148904  (  1.058731   0.701579  -1.880367)
  18:       916.15    4.050363  ( -1.886169   0.680019   0.174084)
  19:       929.74    2.321179  (  0.192470   0.489332  -1.429926)
  20:       993.51   34.244572  ( -1.549489   1.822880  -5.340484)
  21:      1027.81   22.223500  (  1.920836  -2.314417  -3.630064)
  22:      1042.36    8.418104  (  2.581117   1.108771  -0.725647)
  23:      1075.55   54.543379  (  6.867811   2.035783  -1.797813)
  24:      1085.11   23.533665  (  4.061303   2.312470  -1.300754)
  25:      1115.88    1.858749  (  0.798597  -0.427770   1.018825)
  26:      1162.29    8.919119  ( -2.073984   0.181890   2.141174)
  27:      1167.57    2.266317  ( -1.002915  -0.867883   0.712219)
  28:      1178.48    5.707752  (  1.533035  -1.387808  -1.196473)
  29:      1240.28    3.194616  ( -1.648144  -0.472356  -0.505091)
  30:      1241.81   12.149636  (  3.123064   0.724828  -1.367748)
  31:      1315.72    0.149863  ( -0.203679   0.121658  -0.305904)
  32:      1316.31    1.790741  ( -0.734092  -0.189882  -1.102631)
  33:      1344.73    2.304098  ( -1.003825   1.134897   0.091886)
  34:      1383.42   23.691334  ( -1.815265   1.074551   4.386512)
  35:      1398.71    1.862639  ( -0.104348  -0.172824  -1.349771)
  36:      1406.66    4.958995  (  0.661788  -0.378605  -2.092293)
  37:      1425.47   53.220385  ( -3.192732   0.742447   6.517332)
  38:      1460.21    2.143777  (  0.405596  -0.753844  -1.187850)
  39:      1486.35   22.124290  ( -1.901244   1.589533   3.997867)
  40:      1493.43   23.010081  (  3.724863  -1.609083   2.558579)
  41:      1498.19   23.690249  (  3.021847   3.282577  -1.945091)
  42:      1505.97    3.988489  (  0.649719  -1.878121  -0.197529)
  43:      1529.24    1.730288  ( -0.234583  -0.609452   1.141853)
  44:      1655.39   41.390007  (  3.080143   5.647638  -0.083132)
  45:      3010.24   64.187784  (  7.197357   0.664423  -3.456063)
  46:      3057.70   22.996210  (  4.624343   1.066305  -0.688948)
  47:      3074.48   18.972429  ( -0.322967   3.554208   2.497144)
  48:      3084.34    2.522898  ( -0.767170   0.221146  -1.373114)
  49:      3092.76    0.747286  (  0.389398  -0.469121   0.612847)
  50:      3093.53    8.749983  ( -1.054898   2.324469  -1.494664)
  51:      3112.51   15.890655  ( -0.181672   3.896463   0.821720)
  52:      3146.69    1.090501  (  0.641245  -0.273130   0.777628)
  53:      3193.63    0.287148  (  0.215694   0.489028   0.038420)
  54:      3196.47    0.103914  ( -0.252237   0.152825  -0.130136)
  55:      3434.92   38.733964  ( -2.832140  -5.525642  -0.424526)
  56:      3484.82   69.653131  ( -5.534810   3.256029  -5.330786)

--------------------------
THERMOCHEMISTRY AT 298.15K
--------------------------

Temperature         ... 298.15 K
Pressure            ... 1.00 atm
Total Mass          ... 102.16 AMU

Throughout the following assumptions are being made:
  (1) The electronic state is orbitally nondegenerate
  (2) There are no thermally accessible electronically excited states
  (3) Hindered rotations indicated by low frequency modes) are not
      treated as such but are treated as vibrations and this may
      case some error
  (4) All equations used are the standard statistical mechanics
      equations for an ideal gas
  (5) All vibrations are strinctly harmonic

------------
INNER ENERGY
------------

The inner energy is: U= E(el) + E(ZPE) + E(vib) + E(rot) + E(trans)
    E(el)   - is the total energy from the electronic structure calculation
              = E(kin-el) + E(nuc-el) + E(el-el) + E(nuc-nuc)
    E(ZPE)  - the the zero temperature vibrational energy from the frequency calculation
    E(vib)  - the the finite temperature correction to E(ZPE) due to population
              of excietd vibrational states
    E(rot)  - is the rotational thermal energy
    E(trans)- is the translational thermal energy

Summary of contributions to the inner energy U:
Electronic energy                ...   -327.18170461 Eh
Zero point energy                ...      0.17674880 Eh     110.91 kcal/mol
Thermal vibrational correction   ...      0.00503672 Eh       3.16 kcal/mol
Thermal rotational correction    ...      0.00141627 Eh       0.89 kcal/mol
Thermal translational correction ...      0.00141627 Eh       0.89 kcal/mol
-----------------------------------------------------------------------
Total thermal energy                   -326.99708655 Eh

Summary of corrections to the electronic energy:
(perhaps to be used in another calculation)
Total thermal correction                  0.00786927 Eh       4.94 kcal/mol
Non-thermal (ZPE) correction              0.17674880 Eh     110.91 kcal/mol
-----------------------------------------------------------------------
Total correction                          0.18461807 Eh     115.85 kcal/mol

--------
ENTHALPY
--------

The enthalpy is H = U + kB*T
                kB is Boltzmann's constant
Total free energy                 ...   -326.99708655 Eh
Thermal Enthalpy correction       ...      0.00094421 Eh       0.59 kcal/mol
-----------------------------------------------------------------------
Total Enthalpy                    ...   -326.99614234 Eh

-------
ENTROPY
-------

The entropy contributions are T*S = T*(S(el)+S(vib)+S(rot)+S(trans)
     S(el)   - electronic entropy
     S(vib)  - vibrational entropy
     S(rot)  - rotational entropy
     S(trans)- translational entropy
The entropies will be listed as mutliplied by the temperature to get
units of energy

Electronic entropy                ...      0.00000000 Eh      0.00 kcal/mol
Vibrational entropy               ...      0.00937796 Eh      5.88 kcal/mol
Rotational entropy                ...      0.01215311 Eh      7.63 kcal/mol
Translational entropy             ...      0.01890147 Eh     11.86 kcal/mol
-----------------------------------------------------------------------
Final entropy term                ...      0.04043254 Eh     25.37 kcal/mol

CAUTION: The rotational entropy is not quite correctly treated here
         because it includes a symmetry number that is not yet correctly
         implemented in ORCA!
For a nonlinear molecule the correct rotational entropy is:
    S(rot) = R*(ln(qrot/sn)+1.5)
    R    = 8.31441 J/mol/K = 1.987191683e-3 kcal/mol/K
    qrot = 260460.3910468
    sn is the rotational symmetry number. We have assumed 3 here
       if it is different for your molecule then you should correct
       the printed rotational entropy by manually evaluating the equation
       as given above

For convenience we print out the resulting values for sn=1 - 12:
 sn= 1  qrot/sn=  260460.3910 T*S(rot)=     8.28 kcal/mol T*S(tot)=    26.02 kcal/mol
 sn= 2  qrot/sn=  130230.1955 T*S(rot)=     7.87 kcal/mol T*S(tot)=    25.61 kcal/mol
 sn= 3  qrot/sn=   86820.1303 T*S(rot)=     7.63 kcal/mol T*S(tot)=    25.37 kcal/mol
 sn= 4  qrot/sn=   65115.0978 T*S(rot)=     7.46 kcal/mol T*S(tot)=    25.20 kcal/mol
 sn= 5  qrot/sn=   52092.0782 T*S(rot)=     7.32 kcal/mol T*S(tot)=    25.07 kcal/mol
 sn= 6  qrot/sn=   43410.0652 T*S(rot)=     7.22 kcal/mol T*S(tot)=    24.96 kcal/mol
 sn= 7  qrot/sn=   37208.6273 T*S(rot)=     7.12 kcal/mol T*S(tot)=    24.87 kcal/mol
 sn= 8  qrot/sn=   32557.5489 T*S(rot)=     7.05 kcal/mol T*S(tot)=    24.79 kcal/mol
 sn= 9  qrot/sn=   28940.0434 T*S(rot)=     6.98 kcal/mol T*S(tot)=    24.72 kcal/mol
 sn=10  qrot/sn=   26046.0391 T*S(rot)=     6.91 kcal/mol T*S(tot)=    24.66 kcal/mol
 sn=11  qrot/sn=   23678.2174 T*S(rot)=     6.86 kcal/mol T*S(tot)=    24.60 kcal/mol
 sn=12  qrot/sn=   21705.0326 T*S(rot)=     6.80 kcal/mol T*S(tot)=    24.55 kcal/mol

-------------------
GIBBS FREE ENTHALPY
-------------------

The Gibbs free enthalpy is G = H - T*S

Total enthalpy                    ...   -326.99614234 Eh
Total entropy correction          ...     -0.04043254 Eh    -25.37 kcal/mol
-----------------------------------------------------------------------
Final Gibbs free enthalpy         ...   -327.03657488 Eh

For completeness - the Gibbs free enthalpy minus the electronic energy
G-E(el)                           ...      0.14512973 Eh     91.07 kcal/mol

                             ****ORCA TERMINATED NORMALLY****
TOTAL RUN TIME: 0 days 0 hours 49 minutes 36 seconds 730 msec
