                         Program Version 3.0.3 - RELEASE   -
|  1> ! NORI PBE0 def2-TZVP UseSym TightOPT Freq TightSCF Grid3 FinalGrid5 XYZFile
|  2> % pal
|  3>     nprocs 8
|  4> end
|  5> %method
|  6>     SymThresh 5.0e-2
|  7> end
|  8> % geom
|  9>     MaxIter 10
| 10> end
| 11> % maxcore 2000
| 12> % output
| 13>     printlevel mini
| 14>     print[ P_Basis ] 0
| 15>     print[ P_SCFInfo ] 1
| 16>     print[ P_SCFIterInfo ] 1
| 17>     print[ P_OrbEn ] 0
| 18>     print[ P_Cartesian ] 0
| 19> end
| 20> % elprop
| 21>     Dipole false
| 22> end
| 23> *xyz 1 1
| 24>  C        0.8385392196     0.1438444313    -0.2704554831
| 25>  N        2.3229074806     0.1468444826    -0.1565825043
| 26>  C        2.9351583328     1.0237812301    -1.1960004401
| 27>  C        2.7519999566     0.4377289563     1.2570299196
| 28>  C        4.2643176807     0.5117277106     1.4620344637
| 29>  O        4.2160302140     1.9395944043     1.4899289557
| 30>  C        2.7940771986     1.9187066488     1.6351458715
| 31>  H        0.5602815994    -0.1009783762    -1.2939073833
| 32>  H        0.4705600552     1.1361486621    -0.0150083703
| 33>  H        0.4281674395    -0.5943182388     0.4162903716
| 34>  H        2.6432262792    -0.8042984036    -0.3502641632
| 35>  H        2.5127652195     2.0214647652    -1.1117955616
| 36>  H        2.6962932370     0.6071093599    -2.1729077647
| 37>  H        4.0119989482     1.0661711929    -1.0571355441
| 38>  H        2.1842471205    -0.2383629434     1.8941432781
| 39>  H        4.9166050470     0.1183281600     0.6763523602
| 40>  H        4.5726402868     0.0874366881     2.4224058308
| 41>  H        2.4806672089     2.0867350983     2.6699783234
| 42>  H        2.2891674759     2.6428561716     0.9908278402
| 43> *
| 44>
| 45>                          ****END OF INPUT****
 Total Charge           Charge          ....    1
 Multiplicity           Mult            ....    1
 Number of Electrons    NEL             ....   56
FINAL SINGLE POINT ENERGY      -327.174119773642
FINAL SINGLE POINT ENERGY      -327.174121339097
FINAL SINGLE POINT ENERGY      -327.174123010324
FINAL SINGLE POINT ENERGY      -327.174123728881
FINAL SINGLE POINT ENERGY      -327.174124695389

CARTESIAN COORDINATES (ANGSTROEM)
---------------------------------
  C     -0.626451    0.347020   -2.205601
  N      0.337858   -0.001712   -1.125348
  C      1.122889    1.195680   -0.707226
  C     -0.353163   -0.735135   -0.006774
  C      0.540670   -1.075514    1.184329
  O     -0.008841    0.008331    1.937589
  C     -1.081114    0.152521    1.002447
  H     -0.089659    0.834554   -3.017445
  H     -1.372770    1.025733   -1.796648
  H     -1.105215   -0.562010   -2.565535
  H      1.005153   -0.667227   -1.520909
  H      0.436073    1.974994   -0.387844
  H      1.696217    1.540481   -1.565886
  H      1.789657    0.934370    0.109630
  H     -0.910723   -1.546182   -0.472797
  H      1.625423   -1.006741    1.059846
  H      0.295563   -2.049038    1.619605
  H     -2.006900   -0.307949    1.360430
  H     -1.281081    1.194548    0.741216

FINAL SINGLE POINT ENERGY      -327.174125154965
                    ***********************HURRAY********************
 Multiplicity           Mult            ....    1
 Number of Electrons    NEL             ....   56
 Basis Dimension        Dim             ....  289
FINAL SINGLE POINT ENERGY      -327.174125396533

VIBRATIONAL FREQUENCIES
-----------------------

   0:         0.00 cm**-1
   1:         0.00 cm**-1
   2:         0.00 cm**-1
   3:         0.00 cm**-1
   4:         0.00 cm**-1
   5:         0.00 cm**-1
   6:        77.33 cm**-1
   7:       134.25 cm**-1
   8:       194.23 cm**-1
   9:       233.09 cm**-1
  10:       284.44 cm**-1
  11:       320.66 cm**-1
  12:       385.91 cm**-1
  13:       436.01 cm**-1
  14:       523.37 cm**-1
  15:       739.45 cm**-1
  16:       844.31 cm**-1
  17:       863.94 cm**-1
  18:       920.04 cm**-1
  19:       972.52 cm**-1
  20:      1007.73 cm**-1
  21:      1023.95 cm**-1
  22:      1047.27 cm**-1
  23:      1074.70 cm**-1
  24:      1092.55 cm**-1
  25:      1109.50 cm**-1
  26:      1156.97 cm**-1
  27:      1170.53 cm**-1
  28:      1187.42 cm**-1
  29:      1216.26 cm**-1
  30:      1256.64 cm**-1
  31:      1272.10 cm**-1
  32:      1313.47 cm**-1
  33:      1364.43 cm**-1
  34:      1382.78 cm**-1
  35:      1411.38 cm**-1
  36:      1439.43 cm**-1
  37:      1447.76 cm**-1
  38:      1470.43 cm**-1
  39:      1477.09 cm**-1
  40:      1483.46 cm**-1
  41:      1495.21 cm**-1
  42:      1502.01 cm**-1
  43:      1511.59 cm**-1
  44:      1527.55 cm**-1
  45:      3055.81 cm**-1
  46:      3065.56 cm**-1
  47:      3088.78 cm**-1
  48:      3103.02 cm**-1
  49:      3106.03 cm**-1
  50:      3114.23 cm**-1
  51:      3142.27 cm**-1
  52:      3189.96 cm**-1
  53:      3190.63 cm**-1
  54:      3197.50 cm**-1
  55:      3214.57 cm**-1
  56:      3449.07 cm**-1

IR SPECTRUM
-----------

 Mode    freq (cm**-1)   T**2         TX         TY         TZ
-------------------------------------------------------------------
   6:        77.33    1.391106  ( -0.670748   0.956404  -0.162769)
   7:       134.25   13.746451  ( -1.745485  -1.864030   2.687959)
   8:       194.23    0.179002  (  0.280968  -0.299934   0.100494)
   9:       233.09    0.025647  (  0.086648   0.133060   0.020840)
  10:       284.44    0.436521  (  0.466020   0.357000   0.303146)
  11:       320.66    0.266129  (  0.158512   0.168984  -0.460920)
  12:       385.91    0.621306  (  0.153539   0.459842   0.621512)
  13:       436.01    1.590274  (  0.389560   0.440522   1.115553)
  14:       523.37    0.415034  (  0.553575   0.269754  -0.189264)
  15:       739.45    3.441705  (  0.624855   0.123340  -1.742426)
  16:       844.31    8.680461  (  0.012902  -0.656021  -2.872269)
  17:       863.94    1.962712  (  0.323428  -0.096111  -1.359731)
  18:       920.04   14.545384  (  0.070036  -2.050901   3.214698)
  19:       972.52   27.658259  ( -2.621809  -3.986083  -2.212582)
  20:      1007.73   19.274895  ( -2.864502  -0.226273  -3.319386)
  21:      1023.95    0.804956  ( -0.405199  -0.590893   0.540014)
  22:      1047.27    0.830055  ( -0.314591   0.833896   0.188959)
  23:      1074.70   71.520199  (  6.815810  -5.005640   0.092224)
  24:      1092.55    1.259104  ( -0.605934   0.030895  -0.943924)
  25:      1109.50   13.941652  ( -0.779358   0.853164  -3.550544)
  26:      1156.97    0.046024  ( -0.138691  -0.163654   0.002468)
  27:      1170.53    1.047340  (  0.534422   0.377637  -0.786844)
  28:      1187.42   12.474203  (  1.561930  -2.559153   1.866901)
  29:      1216.26    4.075424  ( -1.447047  -1.403645  -0.106107)
  30:      1256.64    0.889597  ( -0.675152  -0.260626   0.604847)
  31:      1272.10    5.771171  ( -1.567698   1.805917  -0.228378)
  32:      1313.47    0.134497  (  0.340621  -0.125182  -0.052958)
  33:      1364.43    1.734433  ( -0.496634  -0.584962   1.070330)
  34:      1382.78    3.227562  (  0.781366   1.343777  -0.900718)
  35:      1411.38    9.958220  (  1.100565  -0.399566   2.930414)
  36:      1439.43    3.676753  (  1.455245  -0.085178   1.245696)
  37:      1447.76    9.981185  ( -1.223168  -2.902434  -0.246820)
  38:      1470.43    4.628612  (  0.622203  -1.999700  -0.492620)
  39:      1477.09    2.216520  (  0.002808   1.228289  -0.841320)
  40:      1483.46   11.068291  ( -2.130613  -0.722462  -2.450883)
  41:      1495.21   15.314006  ( -1.512254  -2.994195  -2.015413)
  42:      1502.01   45.220556  ( -4.191058  -1.339529   5.085396)
  43:      1511.59   29.332474  ( -3.864454   3.695901  -0.859527)
  44:      1527.55    3.588633  (  0.233618   0.979232   1.604730)
  45:      3055.81   29.797690  ( -4.371770   3.267343   0.098934)
  46:      3065.56    5.420805  ( -1.639886   0.273026  -1.630042)
  47:      3088.78    0.085045  (  0.287507   0.040427   0.027398)
  48:      3103.02    0.523736  (  0.511719   0.483906  -0.166474)
  49:      3106.03    9.093919  (  2.221209   1.569192  -1.302991)
  50:      3114.23    9.652567  ( -0.499902  -2.545111   1.710286)
  51:      3142.27    3.026053  ( -0.567530  -1.139064  -1.185958)
  52:      3189.96    0.009323  (  0.048241   0.013473   0.082548)
  53:      3190.63    0.076356  (  0.115276   0.122903   0.219004)
  54:      3197.50    0.038611  (  0.031495  -0.106556   0.162066)
  55:      3214.57    0.151350  (  0.199555   0.132122  -0.306710)
  56:      3449.07   52.796155  ( -4.666349   4.615691   3.117168)

--------------------------
THERMOCHEMISTRY AT 298.15K
--------------------------

Temperature         ... 298.15 K
Pressure            ... 1.00 atm
Total Mass          ... 102.16 AMU

Throughout the following assumptions are being made:
  (1) The electronic state is orbitally nondegenerate
  (2) There are no thermally accessible electronically excited states
  (3) Hindered rotations indicated by low frequency modes) are not
      treated as such but are treated as vibrations and this may
      case some error
  (4) All equations used are the standard statistical mechanics
      equations for an ideal gas
  (5) All vibrations are strinctly harmonic

------------
INNER ENERGY
------------

The inner energy is: U= E(el) + E(ZPE) + E(vib) + E(rot) + E(trans)
    E(el)   - is the total energy from the electronic structure calculation
              = E(kin-el) + E(nuc-el) + E(el-el) + E(nuc-nuc)
    E(ZPE)  - the the zero temperature vibrational energy from the frequency calculation
    E(vib)  - the the finite temperature correction to E(ZPE) due to population
              of excietd vibrational states
    E(rot)  - is the rotational thermal energy
    E(trans)- is the translational thermal energy

Summary of contributions to the inner energy U:
Electronic energy                ...   -327.17412540 Eh
Zero point energy                ...      0.17607775 Eh     110.49 kcal/mol
Thermal vibrational correction   ...      0.00484669 Eh       3.04 kcal/mol
Thermal rotational correction    ...      0.00141627 Eh       0.89 kcal/mol
Thermal translational correction ...      0.00141627 Eh       0.89 kcal/mol
-----------------------------------------------------------------------
Total thermal energy                   -326.99036841 Eh

Summary of corrections to the electronic energy:
(perhaps to be used in another calculation)
Total thermal correction                  0.00767923 Eh       4.82 kcal/mol
Non-thermal (ZPE) correction              0.17607775 Eh     110.49 kcal/mol
-----------------------------------------------------------------------
Total correction                          0.18375699 Eh     115.31 kcal/mol

--------
ENTHALPY
--------

The enthalpy is H = U + kB*T
                kB is Boltzmann's constant
Total free energy                 ...   -326.99036841 Eh
Thermal Enthalpy correction       ...      0.00094421 Eh       0.59 kcal/mol
-----------------------------------------------------------------------
Total Enthalpy                    ...   -326.98942420 Eh

-------
ENTROPY
-------

The entropy contributions are T*S = T*(S(el)+S(vib)+S(rot)+S(trans)
     S(el)   - electronic entropy
     S(vib)  - vibrational entropy
     S(rot)  - rotational entropy
     S(trans)- translational entropy
The entropies will be listed as mutliplied by the temperature to get
units of energy

Electronic entropy                ...      0.00000000 Eh      0.00 kcal/mol
Vibrational entropy               ...      0.00849148 Eh      5.33 kcal/mol
Rotational entropy                ...      0.01195342 Eh      7.50 kcal/mol
Translational entropy             ...      0.01890147 Eh     11.86 kcal/mol
-----------------------------------------------------------------------
Final entropy term                ...      0.03934637 Eh     24.69 kcal/mol

CAUTION: The rotational entropy is not quite correctly treated here
         because it includes a symmetry number that is not yet correctly
         implemented in ORCA!
For a nonlinear molecule the correct rotational entropy is:
    S(rot) = R*(ln(qrot/sn)+1.5)
    R    = 8.31441 J/mol/K = 1.987191683e-3 kcal/mol/K
    qrot = 210808.9373684
    sn is the rotational symmetry number. We have assumed 3 here
       if it is different for your molecule then you should correct
       the printed rotational entropy by manually evaluating the equation
       as given above

For convenience we print out the resulting values for sn=1 - 12:
 sn= 1  qrot/sn=  210808.9374 T*S(rot)=     8.15 kcal/mol T*S(tot)=    25.34 kcal/mol
 sn= 2  qrot/sn=  105404.4687 T*S(rot)=     7.74 kcal/mol T*S(tot)=    24.93 kcal/mol
 sn= 3  qrot/sn=   70269.6458 T*S(rot)=     7.50 kcal/mol T*S(tot)=    24.69 kcal/mol
 sn= 4  qrot/sn=   52702.2343 T*S(rot)=     7.33 kcal/mol T*S(tot)=    24.52 kcal/mol
 sn= 5  qrot/sn=   42161.7875 T*S(rot)=     7.20 kcal/mol T*S(tot)=    24.39 kcal/mol
 sn= 6  qrot/sn=   35134.8229 T*S(rot)=     7.09 kcal/mol T*S(tot)=    24.28 kcal/mol
 sn= 7  qrot/sn=   30115.5625 T*S(rot)=     7.00 kcal/mol T*S(tot)=    24.19 kcal/mol
 sn= 8  qrot/sn=   26351.1172 T*S(rot)=     6.92 kcal/mol T*S(tot)=    24.11 kcal/mol
 sn= 9  qrot/sn=   23423.2153 T*S(rot)=     6.85 kcal/mol T*S(tot)=    24.04 kcal/mol
 sn=10  qrot/sn=   21080.8937 T*S(rot)=     6.79 kcal/mol T*S(tot)=    23.98 kcal/mol
 sn=11  qrot/sn=   19164.4489 T*S(rot)=     6.73 kcal/mol T*S(tot)=    23.92 kcal/mol
 sn=12  qrot/sn=   17567.4114 T*S(rot)=     6.68 kcal/mol T*S(tot)=    23.87 kcal/mol

-------------------
GIBBS FREE ENTHALPY
-------------------

The Gibbs free enthalpy is G = H - T*S

Total enthalpy                    ...   -326.98942420 Eh
Total entropy correction          ...     -0.03934637 Eh    -24.69 kcal/mol
-----------------------------------------------------------------------
Final Gibbs free enthalpy         ...   -327.02877057 Eh

For completeness - the Gibbs free enthalpy minus the electronic energy
G-E(el)                           ...      0.14535483 Eh     91.21 kcal/mol

                             ****ORCA TERMINATED NORMALLY****
TOTAL RUN TIME: 0 days 1 hours 4 minutes 6 seconds 260 msec
