                         Program Version 3.0.3 - RELEASE   -
|  1> ! NORI PBE0 def2-TZVP UseSym TightOPT Freq TightSCF Grid3 FinalGrid5 XYZFile
|  2> % pal
|  3>     nprocs 8
|  4> end
|  5> %method
|  6>     SymThresh 5.0e-2
|  7> end
|  8> % geom
|  9>     MaxIter 10
| 10> end
| 11> % maxcore 2000
| 12> % output
| 13>     printlevel mini
| 14>     print[ P_Basis ] 0
| 15>     print[ P_SCFInfo ] 1
| 16>     print[ P_SCFIterInfo ] 1
| 17>     print[ P_OrbEn ] 0
| 18>     print[ P_Cartesian ] 0
| 19> end
| 20> % elprop
| 21>     Dipole false
| 22> end
| 23> *xyz 1 1
| 24>  C        1.9489771776    -1.0883262524     0.1155222902
| 25>  N        3.2991926348    -0.4701712972     0.1137252603
| 26>  C        3.4205535223     0.8049016798     0.8937753510
| 27>  C        4.7445179883     1.4216990309     0.5376322673
| 28>  O        4.9390578766     1.4402932113    -0.8715811945
| 29>  C        4.8220235620     2.6934918883    -0.1849531836
| 30>  C        6.0365759695     3.5560849202    -0.1485104363
| 31>  H        1.9735814002    -1.9967385146    -0.4835006659
| 32>  H        1.2423326523    -0.3796340491    -0.3113952336
| 33>  H        1.6683614511    -1.3233237693     1.1402502192
| 34>  H        3.5932224122    -0.2262776952    -0.8413313557
| 35>  H        3.9875677992    -1.1434393141     0.4553865037
| 36>  H        3.3192088954     0.5741376976     1.9543551272
| 37>  H        2.5870397266     1.4344081123     0.5800034525
| 38>  H        5.6075751240     1.0952913263     1.1155002768
| 39>  H        3.8783898577     3.1991178015    -0.3841179017
| 40>  H        6.9320747885     2.9689605400     0.0580915089
| 41>  H        5.9277921143     4.3220338739     0.6225311048
| 42>  H        6.1664150473     4.0606708096    -1.1075533905
| 43> *
| 44>
| 45>                          ****END OF INPUT****
 Total Charge           Charge          ....    1
 Multiplicity           Mult            ....    1
 Number of Electrons    NEL             ....   56
FINAL SINGLE POINT ENERGY      -327.197697960323

CARTESIAN COORDINATES (ANGSTROEM)
---------------------------------
  C      2.332100    0.790273   -1.957312
  N      1.564731   -0.000068   -0.961689
  C      0.079547   -0.022211   -1.168579
  C     -0.535156   -0.605273    0.073256
  O      0.000602    0.000160    1.243985
  C     -1.388416    0.200371    0.949820
  C     -2.370120   -0.414298    1.887385
  H      3.390657    0.743883   -1.707809
  H      1.986286    1.821396   -1.923068
  H      2.162396    0.372707   -2.947833
  H      1.694971    0.374151   -0.012295
  H      1.917775   -0.958519   -0.935827
  H     -0.137051   -0.593986   -2.070946
  H     -0.222782    1.015046   -1.317094
  H     -0.618841   -1.690036    0.115115
  H     -1.609213    1.213675    0.617488
  H     -2.071873   -1.426095    2.164272
  H     -3.358110   -0.449471    1.423255
  H     -2.446553    0.185848    2.795819

FINAL SINGLE POINT ENERGY      -327.197698589304
                    ***********************HURRAY********************
 Multiplicity           Mult            ....    1
 Number of Electrons    NEL             ....   56
 Basis Dimension        Dim             ....  289
FINAL SINGLE POINT ENERGY      -327.197698832112

VIBRATIONAL FREQUENCIES
-----------------------

   0:         0.00 cm**-1
   1:         0.00 cm**-1
   2:         0.00 cm**-1
   3:         0.00 cm**-1
   4:         0.00 cm**-1
   5:         0.00 cm**-1
   6:        66.84 cm**-1
   7:       120.00 cm**-1
   8:       138.72 cm**-1
   9:       203.27 cm**-1
  10:       234.36 cm**-1
  11:       273.72 cm**-1
  12:       330.43 cm**-1
  13:       346.18 cm**-1
  14:       473.50 cm**-1
  15:       573.14 cm**-1
  16:       787.05 cm**-1
  17:       814.46 cm**-1
  18:       874.87 cm**-1
  19:       924.38 cm**-1
  20:       928.56 cm**-1
  21:      1000.13 cm**-1
  22:      1027.19 cm**-1
  23:      1044.17 cm**-1
  24:      1071.60 cm**-1
  25:      1093.80 cm**-1
  26:      1158.14 cm**-1
  27:      1174.68 cm**-1
  28:      1182.26 cm**-1
  29:      1201.50 cm**-1
  30:      1282.28 cm**-1
  31:      1308.42 cm**-1
  32:      1339.51 cm**-1
  33:      1381.15 cm**-1
  34:      1399.92 cm**-1
  35:      1416.32 cm**-1
  36:      1431.48 cm**-1
  37:      1460.81 cm**-1
  38:      1464.17 cm**-1
  39:      1478.04 cm**-1
  40:      1484.90 cm**-1
  41:      1493.81 cm**-1
  42:      1498.54 cm**-1
  43:      1516.94 cm**-1
  44:      1662.02 cm**-1
  45:      3066.24 cm**-1
  46:      3092.16 cm**-1
  47:      3102.98 cm**-1
  48:      3131.37 cm**-1
  49:      3139.12 cm**-1
  50:      3144.30 cm**-1
  51:      3159.20 cm**-1
  52:      3168.83 cm**-1
  53:      3192.07 cm**-1
  54:      3194.85 cm**-1
  55:      3367.25 cm**-1
  56:      3474.65 cm**-1

IR SPECTRUM
-----------

 Mode    freq (cm**-1)   T**2         TX         TY         TZ
-------------------------------------------------------------------
   6:        66.84    2.417908  ( -1.182628   0.302179   0.963321)
   7:       120.00    8.568553  (  0.224360  -2.792889  -0.847340)
   8:       138.72    8.572251  (  1.619831   0.483092  -2.390611)
   9:       203.27    1.122179  ( -0.998241   0.302448   0.184987)
  10:       234.36    3.217623  (  0.091221  -1.233621  -1.299030)
  11:       273.72    5.145292  (  2.226408   0.422319  -0.100223)
  12:       330.43    3.414319  (  1.594643   0.107662   0.927276)
  13:       346.18   16.633699  ( -3.470980  -1.283039   1.714588)
  14:       473.50    6.940720  ( -1.609096  -0.854588   1.902947)
  15:       573.14    7.188481  (  0.186526   0.133031  -2.671328)
  16:       787.05   14.748047  (  3.779627   0.308279  -0.606163)
  17:       814.46   18.896073  ( -2.254569   2.774360   2.473039)
  18:       874.87   10.922280  ( -3.107735   0.682151  -0.893829)
  19:       924.38   30.731275  ( -4.850018  -1.526819  -2.208489)
  20:       928.56    6.392059  ( -0.629419  -0.887137  -2.282297)
  21:      1000.13   10.876645  ( -0.529778  -1.468772  -2.904942)
  22:      1027.19   10.335342  ( -3.015323   0.531364  -0.980215)
  23:      1044.17   15.988312  ( -3.167161  -0.983406   2.233901)
  24:      1071.60    4.407852  (  0.298444  -1.568683  -1.363091)
  25:      1093.80    2.623869  (  0.894610   0.572270   1.223131)
  26:      1158.14    6.501711  (  0.413397   0.058669  -2.515427)
  27:      1174.68   15.544008  ( -3.128141  -1.846646   1.532528)
  28:      1182.26    4.510273  (  2.073878  -0.271244  -0.368413)
  29:      1201.50    0.709219  (  0.447478   0.591527  -0.398845)
  30:      1282.28   15.748144  (  3.874021  -0.554637  -0.657635)
  31:      1308.42    6.362881  (  1.990860   1.546067  -0.095059)
  32:      1339.51    6.912580  ( -2.521339  -0.743016   0.057929)
  33:      1381.15   35.653501  ( -5.014759  -1.021841   3.075960)
  34:      1399.92    6.707570  ( -1.883373   0.149455   1.771479)
  35:      1416.32   12.430420  (  2.009486   2.215233  -1.866850)
  36:      1431.48   75.997520  (  7.883972   1.345639  -3.468394)
  37:      1460.81    2.843532  ( -0.448215  -1.582183   0.373273)
  38:      1464.17   13.387839  ( -2.387273   2.095987   1.815380)
  39:      1478.04   15.967490  ( -3.425248   1.017109  -1.789037)
  40:      1484.90   19.772332  (  2.797919   1.818740  -2.938736)
  41:      1493.81   23.018124  (  1.837646   3.185007   3.081706)
  42:      1498.54   28.885398  (  4.722422  -2.357547   1.012967)
  43:      1516.94   13.269311  (  2.592863   2.267677  -1.184910)
  44:      1662.02   43.377226  (  2.473111  -2.849213   5.398420)
  45:      3066.24    1.113867  ( -0.723662  -0.560262   0.525629)
  46:      3092.16    0.151053  ( -0.022251  -0.105148   0.373500)
  47:      3102.98    1.441279  (  0.338958   0.391391  -1.083143)
  48:      3131.37    4.310781  (  0.606046  -1.239205   1.551728)
  49:      3139.12    4.739930  ( -0.692033  -2.058224   0.157278)
  50:      3144.30    1.772070  ( -0.676889  -0.149772  -1.136424)
  51:      3159.20    8.125218  (  1.025551  -2.597626   0.570790)
  52:      3168.83    0.825796  (  0.080731  -0.859407  -0.284074)
  53:      3192.07    0.111729  ( -0.263317   0.148395  -0.142730)
  54:      3194.85    0.061883  (  0.105666   0.122794  -0.188784)
  55:      3367.25   92.479103  (  1.132052  -0.571708  -9.532613)
  56:      3474.65   73.218931  (  3.730291  -7.328692  -2.365192)

--------------------------
THERMOCHEMISTRY AT 298.15K
--------------------------

Temperature         ... 298.15 K
Pressure            ... 1.00 atm
Total Mass          ... 102.16 AMU

Throughout the following assumptions are being made:
  (1) The electronic state is orbitally nondegenerate
  (2) There are no thermally accessible electronically excited states
  (3) Hindered rotations indicated by low frequency modes) are not
      treated as such but are treated as vibrations and this may
      case some error
  (4) All equations used are the standard statistical mechanics
      equations for an ideal gas
  (5) All vibrations are strinctly harmonic

------------
INNER ENERGY
------------

The inner energy is: U= E(el) + E(ZPE) + E(vib) + E(rot) + E(trans)
    E(el)   - is the total energy from the electronic structure calculation
              = E(kin-el) + E(nuc-el) + E(el-el) + E(nuc-nuc)
    E(ZPE)  - the the zero temperature vibrational energy from the frequency calculation
    E(vib)  - the the finite temperature correction to E(ZPE) due to population
              of excietd vibrational states
    E(rot)  - is the rotational thermal energy
    E(trans)- is the translational thermal energy

Summary of contributions to the inner energy U:
Electronic energy                ...   -327.19769883 Eh
Zero point energy                ...      0.17517808 Eh     109.93 kcal/mol
Thermal vibrational correction   ...      0.00548945 Eh       3.44 kcal/mol
Thermal rotational correction    ...      0.00141627 Eh       0.89 kcal/mol
Thermal translational correction ...      0.00141627 Eh       0.89 kcal/mol
-----------------------------------------------------------------------
Total thermal energy                   -327.01419876 Eh

Summary of corrections to the electronic energy:
(perhaps to be used in another calculation)
Total thermal correction                  0.00832199 Eh       5.22 kcal/mol
Non-thermal (ZPE) correction              0.17517808 Eh     109.93 kcal/mol
-----------------------------------------------------------------------
Total correction                          0.18350007 Eh     115.15 kcal/mol

--------
ENTHALPY
--------

The enthalpy is H = U + kB*T
                kB is Boltzmann's constant
Total free energy                 ...   -327.01419876 Eh
Thermal Enthalpy correction       ...      0.00094421 Eh       0.59 kcal/mol
-----------------------------------------------------------------------
Total Enthalpy                    ...   -327.01325455 Eh

-------
ENTROPY
-------

The entropy contributions are T*S = T*(S(el)+S(vib)+S(rot)+S(trans)
     S(el)   - electronic entropy
     S(vib)  - vibrational entropy
     S(rot)  - rotational entropy
     S(trans)- translational entropy
The entropies will be listed as mutliplied by the temperature to get
units of energy

Electronic entropy                ...      0.00000000 Eh      0.00 kcal/mol
Vibrational entropy               ...      0.00997204 Eh      6.26 kcal/mol
Rotational entropy                ...      0.01209999 Eh      7.59 kcal/mol
Translational entropy             ...      0.01890147 Eh     11.86 kcal/mol
-----------------------------------------------------------------------
Final entropy term                ...      0.04097349 Eh     25.71 kcal/mol

CAUTION: The rotational entropy is not quite correctly treated here
         because it includes a symmetry number that is not yet correctly
         implemented in ORCA!
For a nonlinear molecule the correct rotational entropy is:
    S(rot) = R*(ln(qrot/sn)+1.5)
    R    = 8.31441 J/mol/K = 1.987191683e-3 kcal/mol/K
    qrot = 246210.1555890
    sn is the rotational symmetry number. We have assumed 3 here
       if it is different for your molecule then you should correct
       the printed rotational entropy by manually evaluating the equation
       as given above

For convenience we print out the resulting values for sn=1 - 12:
 sn= 1  qrot/sn=  246210.1556 T*S(rot)=     8.24 kcal/mol T*S(tot)=    26.36 kcal/mol
 sn= 2  qrot/sn=  123105.0778 T*S(rot)=     7.83 kcal/mol T*S(tot)=    25.95 kcal/mol
 sn= 3  qrot/sn=   82070.0519 T*S(rot)=     7.59 kcal/mol T*S(tot)=    25.71 kcal/mol
 sn= 4  qrot/sn=   61552.5389 T*S(rot)=     7.42 kcal/mol T*S(tot)=    25.54 kcal/mol
 sn= 5  qrot/sn=   49242.0311 T*S(rot)=     7.29 kcal/mol T*S(tot)=    25.41 kcal/mol
 sn= 6  qrot/sn=   41035.0259 T*S(rot)=     7.18 kcal/mol T*S(tot)=    25.30 kcal/mol
 sn= 7  qrot/sn=   35172.8794 T*S(rot)=     7.09 kcal/mol T*S(tot)=    25.21 kcal/mol
 sn= 8  qrot/sn=   30776.2694 T*S(rot)=     7.01 kcal/mol T*S(tot)=    25.13 kcal/mol
 sn= 9  qrot/sn=   27356.6840 T*S(rot)=     6.94 kcal/mol T*S(tot)=    25.06 kcal/mol
 sn=10  qrot/sn=   24621.0156 T*S(rot)=     6.88 kcal/mol T*S(tot)=    25.00 kcal/mol
 sn=11  qrot/sn=   22382.7414 T*S(rot)=     6.82 kcal/mol T*S(tot)=    24.94 kcal/mol
 sn=12  qrot/sn=   20517.5130 T*S(rot)=     6.77 kcal/mol T*S(tot)=    24.89 kcal/mol

-------------------
GIBBS FREE ENTHALPY
-------------------

The Gibbs free enthalpy is G = H - T*S

Total enthalpy                    ...   -327.01325455 Eh
Total entropy correction          ...     -0.04097349 Eh    -25.71 kcal/mol
-----------------------------------------------------------------------
Final Gibbs free enthalpy         ...   -327.05422804 Eh

For completeness - the Gibbs free enthalpy minus the electronic energy
G-E(el)                           ...      0.14347079 Eh     90.03 kcal/mol

                             ****ORCA TERMINATED NORMALLY****
TOTAL RUN TIME: 0 days 0 hours 47 minutes 11 seconds 527 msec
