                         Program Version 3.0.3 - RELEASE   -
|  1> ! NORI PBE0 def2-TZVP UseSym TightOPT Freq TightSCF Grid3 FinalGrid5 XYZFile
|  2> % pal
|  3>     nprocs 8
|  4> end
|  5> %method
|  6>     SymThresh 5.0e-2
|  7> end
|  8> % geom
|  9>     MaxIter 10
| 10> end
| 11> % maxcore 2000
| 12> % output
| 13>     printlevel mini
| 14>     print[ P_Basis ] 0
| 15>     print[ P_SCFInfo ] 1
| 16>     print[ P_SCFIterInfo ] 1
| 17>     print[ P_OrbEn ] 0
| 18>     print[ P_Cartesian ] 0
| 19> end
| 20> % elprop
| 21>     Dipole false
| 22> end
| 23> *xyz 1 1
| 24>  C        0.9931828257    -0.1377778374     0.1434383287
| 25>  N        2.4689796758    -0.1921529099     0.0102001841
| 26>  C        3.0017047500     0.1352744180    -1.3537528612
| 27>  C        4.4845255581     0.2859910830    -1.2366085327
| 28>  O        4.7042420989     1.1924721596    -0.1935339472
| 29>  C        5.3927381634    -0.8879658371    -1.4528564540
| 30>  C        5.3345657363     0.2388528204    -2.4532221572
| 31>  H        0.7169081133    -0.3877789495     1.1661176037
| 32>  H        0.5481179817    -0.8502837919    -0.5483082433
| 33>  H        0.6595443471     0.8699926155    -0.0957796829
| 34>  H        2.9234690588     0.4747923828     0.6457237637
| 35>  H        2.8157932049    -1.1134243664     0.2835166566
| 36>  H        2.7089918502    -0.6564945950    -2.0418460228
| 37>  H        2.5314432819     1.0751447516    -1.6494195652
| 38>  H        5.6088831470     1.5173826112    -0.1918504749
| 39>  H        6.2724604418    -0.9518762652    -0.8241223195
| 40>  H        4.9725252978    -1.8463265749    -1.7355037078
| 41>  H        4.8689893886     0.0620866533    -3.4152685296
| 42>  H        6.1775650789     0.9194216320    -2.4911940384
| 43> *
| 44>
| 45>                          ****END OF INPUT****
 Total Charge           Charge          ....    1
 Multiplicity           Mult            ....    1
 Number of Electrons    NEL             ....   56
FINAL SINGLE POINT ENERGY      -327.204391044968
FINAL SINGLE POINT ENERGY      -327.204392354530

CARTESIAN COORDINATES (ANGSTROEM)
---------------------------------
  C      2.496989   -0.712796   -1.378294
  N      1.469052   -0.002566   -0.578896
  C      0.094355   -0.601387   -0.624464
  C     -0.731880    0.080985    0.418380
  O     -0.001276    0.002627    1.609135
  C     -1.540318    1.297699    0.078514
  C     -2.212401   -0.019269    0.377233
  H      3.450137   -0.197699   -1.273111
  H      2.190080   -0.721041   -2.422536
  H      2.582659   -1.732409   -1.008173
  H      1.722466    0.018961    0.416399
  H      1.408698    0.975286   -0.868997
  H     -0.305976   -0.478511   -1.629741
  H      0.213617   -1.663297   -0.401175
  H     -0.545174    0.214811    2.372734
  H     -1.602911    2.072498    0.832950
  H     -1.558527    1.662618   -0.942209
  H     -2.682132   -0.563779   -0.433149
  H     -2.723896   -0.116736    1.327750

FINAL SINGLE POINT ENERGY      -327.204393024541
                    ***********************HURRAY********************
 Multiplicity           Mult            ....    1
 Number of Electrons    NEL             ....   56
 Basis Dimension        Dim             ....  289
FINAL SINGLE POINT ENERGY      -327.204393128492

VIBRATIONAL FREQUENCIES
-----------------------

   0:         0.00 cm**-1
   1:         0.00 cm**-1
   2:         0.00 cm**-1
   3:         0.00 cm**-1
   4:         0.00 cm**-1
   5:         0.00 cm**-1
   6:       -74.14 cm**-1 ***imaginary mode***
   7:        79.98 cm**-1
   8:       118.58 cm**-1
   9:       173.84 cm**-1
  10:       238.90 cm**-1
  11:       302.30 cm**-1
  12:       335.56 cm**-1
  13:       382.91 cm**-1
  14:       437.84 cm**-1
  15:       513.15 cm**-1
  16:       753.87 cm**-1
  17:       775.85 cm**-1
  18:       815.18 cm**-1
  19:       882.06 cm**-1
  20:       930.46 cm**-1
  21:       941.00 cm**-1
  22:       955.29 cm**-1
  23:      1006.32 cm**-1
  24:      1018.42 cm**-1
  25:      1047.62 cm**-1
  26:      1066.45 cm**-1
  27:      1094.73 cm**-1
  28:      1132.88 cm**-1
  29:      1164.10 cm**-1
  30:      1185.60 cm**-1
  31:      1193.90 cm**-1
  32:      1298.50 cm**-1
  33:      1331.70 cm**-1
  34:      1351.20 cm**-1
  35:      1401.99 cm**-1
  36:      1421.65 cm**-1
  37:      1447.45 cm**-1
  38:      1456.44 cm**-1
  39:      1465.62 cm**-1
  40:      1483.20 cm**-1
  41:      1494.54 cm**-1
  42:      1498.07 cm**-1
  43:      1513.55 cm**-1
  44:      1661.96 cm**-1
  45:      3092.07 cm**-1
  46:      3098.46 cm**-1
  47:      3149.15 cm**-1
  48:      3153.62 cm**-1
  49:      3170.09 cm**-1
  50:      3191.27 cm**-1
  51:      3194.22 cm**-1
  52:      3232.99 cm**-1
  53:      3245.56 cm**-1
  54:      3390.87 cm**-1
  55:      3475.61 cm**-1
  56:      3868.78 cm**-1

IR SPECTRUM
-----------

 Mode    freq (cm**-1)   T**2         TX         TY         TZ
-------------------------------------------------------------------
   7:        79.98    1.779873  ( -0.577128  -1.111641   0.459401)
   8:       118.58    5.097384  ( -2.018083  -0.716327  -0.715263)
   9:       173.84    6.910364  ( -1.453901   1.035222   1.929988)
  10:       238.90    2.858844  (  0.348872  -0.035461   1.654048)
  11:       302.30    9.973459  (  1.446355  -1.480331  -2.385401)
  12:       335.56   13.401888  (  2.555838   1.398400  -2.216768)
  13:       382.91    2.129964  ( -0.569586  -0.016528   1.343600)
  14:       437.84    6.559284  ( -0.305124   0.496168   2.493993)
  15:       513.15    2.597682  (  1.101626   0.537375   1.046581)
  16:       753.87   16.394016  (  3.135514  -0.439071   2.523844)
  17:       775.85    5.770356  (  1.857487  -0.307677   1.491789)
  18:       815.18    4.248964  ( -0.123151  -1.439067   1.470674)
  19:       882.06   12.157450  (  0.065496   2.021931  -2.839886)
  20:       930.46    5.374789  ( -1.869931  -0.469766  -1.287427)
  21:       941.00   25.077724  ( -4.959609  -0.419029  -0.551743)
  22:       955.29   21.685742  ( -1.505430   2.522521  -3.613351)
  23:      1006.32   12.839994  ( -1.933520   3.003135  -0.287537)
  24:      1018.42    3.337593  (  1.624115  -0.511540  -0.661943)
  25:      1047.62    8.032545  (  0.250434   0.121159  -2.820487)
  26:      1066.45   17.517904  (  4.077059  -0.763444   0.559152)
  27:      1094.73    1.639717  ( -0.012089   1.280428  -0.008675)
  28:      1132.88   44.234129  ( -1.195274  -0.737839  -6.500849)
  29:      1164.10   24.486797  ( -0.991697   1.024534  -4.738530)
  30:      1185.60   19.016533  (  3.337411  -0.358215   2.783865)
  31:      1193.90   22.180347  (  3.858134   0.283568   2.686026)
  32:      1298.50    2.765577  ( -0.462320   0.454142   1.531533)
  33:      1331.70   13.405095  (  3.428486  -0.410687   1.217338)
  34:      1351.20   25.464793  (  1.724174  -1.688484   4.431821)
  35:      1401.99   12.545668  (  2.111124   0.616895  -2.776376)
  36:      1421.65   99.984679  ( -9.929551   0.424114   1.099462)
  37:      1447.45    8.809232  ( -1.989367   1.041097   1.941074)
  38:      1456.44    9.551001  (  1.182037   2.713958  -0.887819)
  39:      1465.62   11.286374  (  2.832031  -0.516324  -1.731873)
  40:      1483.20   20.402429  (  3.371825  -0.982403  -2.840441)
  41:      1494.54   23.111199  (  2.781546  -1.873254   3.444578)
  42:      1498.07   26.506463  (  3.443098   3.825881   0.119047)
  43:      1513.55   25.035302  (  3.859956  -1.472826   2.822556)
  44:      1661.96   42.226715  ( -0.933571  -5.173631  -3.819516)
  45:      3092.07    0.202124  (  0.153977  -0.063876  -0.417535)
  46:      3098.46    2.653640  ( -0.853602   1.113211   0.828110)
  47:      3149.15    1.596257  ( -0.760468  -0.720376   0.706402)
  48:      3153.62    0.725061  ( -0.551769   0.648538   0.003164)
  49:      3170.09    0.545906  (  0.550174  -0.409886   0.274241)
  50:      3191.27    0.046562  (  0.047793   0.189522  -0.091427)
  51:      3194.22    0.127358  ( -0.136107   0.247665   0.217934)
  52:      3232.99    0.626518  ( -0.475069  -0.496733   0.392535)
  53:      3245.56    0.315713  ( -0.294280   0.204416  -0.432812)
  54:      3390.87   92.914919  (  0.156357   2.577977   9.286792)
  55:      3475.61   61.485079  ( -0.001566   6.239628  -4.748907)
  56:      3868.78   97.887440  ( -2.645602   1.106472   9.469105)

--------------------------
THERMOCHEMISTRY AT 298.15K
--------------------------

Temperature         ... 298.15 K
Pressure            ... 1.00 atm
Total Mass          ... 102.16 AMU

Throughout the following assumptions are being made:
  (1) The electronic state is orbitally nondegenerate
  (2) There are no thermally accessible electronically excited states
  (3) Hindered rotations indicated by low frequency modes) are not
      treated as such but are treated as vibrations and this may
      case some error
  (4) All equations used are the standard statistical mechanics
      equations for an ideal gas
  (5) All vibrations are strinctly harmonic

------------
INNER ENERGY
------------

The inner energy is: U= E(el) + E(ZPE) + E(vib) + E(rot) + E(trans)
    E(el)   - is the total energy from the electronic structure calculation
              = E(kin-el) + E(nuc-el) + E(el-el) + E(nuc-nuc)
    E(ZPE)  - the the zero temperature vibrational energy from the frequency calculation
    E(vib)  - the the finite temperature correction to E(ZPE) due to population
              of excietd vibrational states
    E(rot)  - is the rotational thermal energy
    E(trans)- is the translational thermal energy

Summary of contributions to the inner energy U:
Electronic energy                ...   -327.20439313 Eh
Zero point energy                ...      0.17458826 Eh     109.56 kcal/mol
Thermal vibrational correction   ...      0.00495265 Eh       3.11 kcal/mol
Thermal rotational correction    ...      0.00141627 Eh       0.89 kcal/mol
Thermal translational correction ...      0.00141627 Eh       0.89 kcal/mol
-----------------------------------------------------------------------
Total thermal energy                   -327.02201967 Eh

Summary of corrections to the electronic energy:
(perhaps to be used in another calculation)
Total thermal correction                  0.00778520 Eh       4.89 kcal/mol
Non-thermal (ZPE) correction              0.17458826 Eh     109.56 kcal/mol
-----------------------------------------------------------------------
Total correction                          0.18237345 Eh     114.44 kcal/mol

--------
ENTHALPY
--------

The enthalpy is H = U + kB*T
                kB is Boltzmann's constant
Total free energy                 ...   -327.02201967 Eh
Thermal Enthalpy correction       ...      0.00094421 Eh       0.59 kcal/mol
-----------------------------------------------------------------------
Total Enthalpy                    ...   -327.02107546 Eh

-------
ENTROPY
-------

The entropy contributions are T*S = T*(S(el)+S(vib)+S(rot)+S(trans)
     S(el)   - electronic entropy
     S(vib)  - vibrational entropy
     S(rot)  - rotational entropy
     S(trans)- translational entropy
The entropies will be listed as mutliplied by the temperature to get
units of energy

Electronic entropy                ...      0.00000000 Eh      0.00 kcal/mol
Vibrational entropy               ...      0.00869618 Eh      5.46 kcal/mol
Rotational entropy                ...      0.01212733 Eh      7.61 kcal/mol
Translational entropy             ...      0.01890147 Eh     11.86 kcal/mol
-----------------------------------------------------------------------
Final entropy term                ...      0.03972497 Eh     24.93 kcal/mol

CAUTION: The rotational entropy is not quite correctly treated here
         because it includes a symmetry number that is not yet correctly
         implemented in ORCA!
For a nonlinear molecule the correct rotational entropy is:
    S(rot) = R*(ln(qrot/sn)+1.5)
    R    = 8.31441 J/mol/K = 1.987191683e-3 kcal/mol/K
    qrot = 253443.3499609
    sn is the rotational symmetry number. We have assumed 3 here
       if it is different for your molecule then you should correct
       the printed rotational entropy by manually evaluating the equation
       as given above

For convenience we print out the resulting values for sn=1 - 12:
 sn= 1  qrot/sn=  253443.3500 T*S(rot)=     8.26 kcal/mol T*S(tot)=    25.58 kcal/mol
 sn= 2  qrot/sn=  126721.6750 T*S(rot)=     7.85 kcal/mol T*S(tot)=    25.17 kcal/mol
 sn= 3  qrot/sn=   84481.1167 T*S(rot)=     7.61 kcal/mol T*S(tot)=    24.93 kcal/mol
 sn= 4  qrot/sn=   63360.8375 T*S(rot)=     7.44 kcal/mol T*S(tot)=    24.76 kcal/mol
 sn= 5  qrot/sn=   50688.6700 T*S(rot)=     7.31 kcal/mol T*S(tot)=    24.63 kcal/mol
 sn= 6  qrot/sn=   42240.5583 T*S(rot)=     7.20 kcal/mol T*S(tot)=    24.52 kcal/mol
 sn= 7  qrot/sn=   36206.1929 T*S(rot)=     7.11 kcal/mol T*S(tot)=    24.43 kcal/mol
 sn= 8  qrot/sn=   31680.4187 T*S(rot)=     7.03 kcal/mol T*S(tot)=    24.35 kcal/mol
 sn= 9  qrot/sn=   28160.3722 T*S(rot)=     6.96 kcal/mol T*S(tot)=    24.28 kcal/mol
 sn=10  qrot/sn=   25344.3350 T*S(rot)=     6.90 kcal/mol T*S(tot)=    24.21 kcal/mol
 sn=11  qrot/sn=   23040.3045 T*S(rot)=     6.84 kcal/mol T*S(tot)=    24.16 kcal/mol
 sn=12  qrot/sn=   21120.2792 T*S(rot)=     6.79 kcal/mol T*S(tot)=    24.11 kcal/mol

-------------------
GIBBS FREE ENTHALPY
-------------------

The Gibbs free enthalpy is G = H - T*S

Total enthalpy                    ...   -327.02107546 Eh
Total entropy correction          ...     -0.03972497 Eh    -24.93 kcal/mol
-----------------------------------------------------------------------
Final Gibbs free enthalpy         ...   -327.06080043 Eh

For completeness - the Gibbs free enthalpy minus the electronic energy
G-E(el)                           ...      0.14359269 Eh     90.11 kcal/mol

                             ****ORCA TERMINATED NORMALLY****
TOTAL RUN TIME: 0 days 0 hours 52 minutes 16 seconds 591 msec
