                         Program Version 3.0.3 - RELEASE   -
|  1> ! NORI PBE0 def2-TZVP UseSym TightOPT Freq TightSCF Grid3 FinalGrid5 XYZFile
|  2> % pal
|  3>     nprocs 8
|  4> end
|  5> %method
|  6>     SymThresh 5.0e-2
|  7> end
|  8> % geom
|  9>     MaxIter 10
| 10> end
| 11> % maxcore 2000
| 12> % output
| 13>     printlevel mini
| 14>     print[ P_Basis ] 0
| 15>     print[ P_SCFInfo ] 1
| 16>     print[ P_SCFIterInfo ] 1
| 17>     print[ P_OrbEn ] 0
| 18>     print[ P_Cartesian ] 0
| 19> end
| 20> % elprop
| 21>     Dipole false
| 22> end
| 23> *xyz 1 1
| 24>  C        0.9276242683     0.0960143569    -0.2830850471
| 25>  N        2.3688740955    -0.1641982469    -0.0165248099
| 26>  C        3.0320682789     0.8604794595     0.8546476364
| 27>  C        4.4971567811     0.5427209745     1.0768158530
| 28>  C        5.1393691221     1.6868753740     1.8170228872
| 29>  C        6.4210506415     2.2429839127     1.4008429325
| 30>  O        5.1978881404     2.8922502260     1.0793191019
| 31>  H        0.5363115200    -0.6869561855    -0.9305207212
| 32>  H        0.8351561662     1.0659128389    -0.7676534757
| 33>  H        0.3941651964     0.1009581331     0.6649503749
| 34>  H        2.8746335250    -0.2119997424    -0.9033741844
| 35>  H        2.4747026900    -1.0854024284     0.4135431185
| 36>  H        2.4683230573     0.8876730247     1.7885845717
| 37>  H        2.9197691427     1.8218956158     0.3505574547
| 38>  H        5.0046660233     0.4224246436     0.1139032183
| 39>  H        4.6181376326    -0.3858433158     1.6452102267
| 40>  H        4.8372411181     1.8054388694     2.8570035165
| 41>  H        7.0393874232     2.7571327861     2.1301237893
| 42>  H        6.9475951775     1.8009697038     0.5591135569
| 43> *
| 44>
| 45>                          ****END OF INPUT****
 Total Charge           Charge          ....    1
 Multiplicity           Mult            ....    1
 Number of Electrons    NEL             ....   56
FINAL SINGLE POINT ENERGY      -327.187468332816

CARTESIAN COORDINATES (ANGSTROEM)
---------------------------------
  C      1.663678    0.943788   -2.734367
  N      0.735324    0.000031   -2.053351
  C      0.205463    0.492874   -0.739882
  C     -0.721857   -0.518211   -0.095676
  C     -1.086802   -0.037300    1.284539
  C     -1.048080   -0.926609    2.439175
  O     -0.000330    0.001193    2.189385
  H      2.005214    0.499126   -3.667464
  H      2.509199    1.132716   -2.076104
  H      1.131852    1.871937   -2.933159
  H      1.211418   -0.890925   -1.897129
  H     -0.051005   -0.209992   -2.671533
  H     -0.293092    1.442679   -0.941520
  H      1.070902    0.680945   -0.102348
  H     -0.216439   -1.485630   -0.005092
  H     -1.628167   -0.661104   -0.694096
  H     -1.741079    0.832999    1.323711
  H     -1.666590   -0.703530    3.302852
  H     -0.785760   -1.972063    2.300333

FINAL SINGLE POINT ENERGY      -327.187468924037
                    ***********************HURRAY********************
 Multiplicity           Mult            ....    1
 Number of Electrons    NEL             ....   56
 Basis Dimension        Dim             ....  289
FINAL SINGLE POINT ENERGY      -327.187469276558

VIBRATIONAL FREQUENCIES
-----------------------

   0:         0.00 cm**-1
   1:         0.00 cm**-1
   2:         0.00 cm**-1
   3:         0.00 cm**-1
   4:         0.00 cm**-1
   5:         0.00 cm**-1
   6:        62.59 cm**-1
   7:        80.86 cm**-1
   8:       127.35 cm**-1
   9:       140.91 cm**-1
  10:       230.36 cm**-1
  11:       292.81 cm**-1
  12:       339.57 cm**-1
  13:       450.52 cm**-1
  14:       492.96 cm**-1
  15:       770.30 cm**-1
  16:       818.99 cm**-1
  17:       842.30 cm**-1
  18:       903.24 cm**-1
  19:       929.62 cm**-1
  20:       975.50 cm**-1
  21:      1001.93 cm**-1
  22:      1028.04 cm**-1
  23:      1060.31 cm**-1
  24:      1078.37 cm**-1
  25:      1100.48 cm**-1
  26:      1164.40 cm**-1
  27:      1176.53 cm**-1
  28:      1182.08 cm**-1
  29:      1193.80 cm**-1
  30:      1290.34 cm**-1
  31:      1302.04 cm**-1
  32:      1308.29 cm**-1
  33:      1336.48 cm**-1
  34:      1391.44 cm**-1
  35:      1400.19 cm**-1
  36:      1424.00 cm**-1
  37:      1456.83 cm**-1
  38:      1460.32 cm**-1
  39:      1469.77 cm**-1
  40:      1491.86 cm**-1
  41:      1493.14 cm**-1
  42:      1505.53 cm**-1
  43:      1534.46 cm**-1
  44:      1657.44 cm**-1
  45:      3044.75 cm**-1
  46:      3091.90 cm**-1
  47:      3093.29 cm**-1
  48:      3094.62 cm**-1
  49:      3120.98 cm**-1
  50:      3129.98 cm**-1
  51:      3155.09 cm**-1
  52:      3193.72 cm**-1
  53:      3197.06 cm**-1
  54:      3218.33 cm**-1
  55:      3440.27 cm**-1
  56:      3489.07 cm**-1

IR SPECTRUM
-----------

 Mode    freq (cm**-1)   T**2         TX         TY         TZ
-------------------------------------------------------------------
   6:        62.59    2.700238  (  0.561514   0.651770  -1.400049)
   7:        80.86    2.934883  ( -0.752207   0.123034  -1.534252)
   8:       127.35    3.599409  (  0.448035  -0.356936   1.808665)
   9:       140.91    2.545762  (  0.777635  -1.308700   0.477859)
  10:       230.36    1.850284  (  0.752625  -0.392072   1.063071)
  11:       292.81   11.785103  ( -0.969431   1.148063   3.086626)
  12:       339.57    3.865152  ( -1.599923  -0.497932   1.028330)
  13:       450.52    0.442268  (  0.231077   0.569113   0.254916)
  14:       492.96    4.840026  ( -1.226845  -0.884470  -1.597683)
  15:       770.30    6.241701  ( -2.001819   1.183080  -0.913642)
  16:       818.99    9.183832  ( -0.977446   1.939264  -2.113690)
  17:       842.30   11.740783  ( -3.206917  -1.187144  -0.217152)
  18:       903.24   15.037089  ( -2.820098   0.563220  -2.601331)
  19:       929.62   13.536760  (  1.281914  -0.485339  -3.414367)
  20:       975.50   37.089592  ( -5.385381  -2.666962  -0.987204)
  21:      1001.93   10.352917  (  0.315777  -1.354759   2.901350)
  22:      1028.04   15.990515  (  1.691170   1.259705  -3.397588)
  23:      1060.31    9.434204  (  1.796627   0.743005  -2.377873)
  24:      1078.37    1.640548  ( -0.676453   0.470267   0.980718)
  25:      1100.48    5.390781  (  0.605985  -0.043847  -2.240902)
  26:      1164.40   15.353232  (  2.651102  -0.920378  -2.734556)
  27:      1176.53    0.698541  ( -0.812947  -0.145970   0.127872)
  28:      1182.08    5.241368  ( -1.174511  -1.372243   1.406713)
  29:      1193.80    1.085660  (  0.513695  -0.646029  -0.635944)
  30:      1290.34    0.378450  (  0.400662  -0.031954   0.465724)
  31:      1302.04   17.997850  ( -3.526442  -1.660981   1.674276)
  32:      1308.29    1.930164  (  0.834631  -0.338253  -1.057894)
  33:      1336.48    2.569369  ( -1.362563   0.684307  -0.494484)
  34:      1391.44    9.471673  ( -0.948835  -1.008782   2.748407)
  35:      1400.19    0.167466  (  0.377285   0.140282  -0.073779)
  36:      1424.00   54.847141  (  3.294405   0.075833  -6.632367)
  37:      1456.83    7.270439  (  1.834394   1.654779   1.080345)
  38:      1460.32    2.471155  ( -1.026838  -0.631051   1.009224)
  39:      1469.77    8.603988  (  0.795009  -1.537316  -2.368250)
  40:      1491.86   23.171881  (  2.959314  -0.366565  -3.778885)
  41:      1493.14   24.224903  ( -3.474341   1.994550  -2.859305)
  42:      1505.53   20.126367  ( -1.199249  -3.953654  -1.748367)
  43:      1534.46    4.621812  (  1.720262  -0.343208   1.242867)
  44:      1657.44   45.323051  (  1.791539   6.047204   2.354732)
  45:      3044.75    9.213033  ( -0.165573  -1.829926  -2.415986)
  46:      3091.90    0.951980  (  0.770859   0.574536  -0.166327)
  47:      3093.29    1.182236  (  1.014604   0.029706   0.389785)
  48:      3094.62    3.090566  ( -0.385747   1.202409  -1.223102)
  49:      3120.98   11.660874  ( -0.799140  -3.151130   1.045290)
  50:      3129.98   11.377930  ( -2.911693   1.653873  -0.405803)
  51:      3155.09    1.139206  ( -0.773989   0.684794   0.266841)
  52:      3193.72    0.248751  ( -0.195812  -0.445894  -0.107640)
  53:      3197.06    0.112605  (  0.272822  -0.030565   0.192973)
  54:      3218.33    5.568069  (  1.269288  -1.537801  -1.261802)
  55:      3440.27   40.525092  (  1.146371   5.523180   2.950492)
  56:      3489.07   68.927494  ( -6.433072   3.334842  -4.052394)

--------------------------
THERMOCHEMISTRY AT 298.15K
--------------------------

Temperature         ... 298.15 K
Pressure            ... 1.00 atm
Total Mass          ... 102.16 AMU

Throughout the following assumptions are being made:
  (1) The electronic state is orbitally nondegenerate
  (2) There are no thermally accessible electronically excited states
  (3) Hindered rotations indicated by low frequency modes) are not
      treated as such but are treated as vibrations and this may
      case some error
  (4) All equations used are the standard statistical mechanics
      equations for an ideal gas
  (5) All vibrations are strinctly harmonic

------------
INNER ENERGY
------------

The inner energy is: U= E(el) + E(ZPE) + E(vib) + E(rot) + E(trans)
    E(el)   - is the total energy from the electronic structure calculation
              = E(kin-el) + E(nuc-el) + E(el-el) + E(nuc-nuc)
    E(ZPE)  - the the zero temperature vibrational energy from the frequency calculation
    E(vib)  - the the finite temperature correction to E(ZPE) due to population
              of excietd vibrational states
    E(rot)  - is the rotational thermal energy
    E(trans)- is the translational thermal energy

Summary of contributions to the inner energy U:
Electronic energy                ...   -327.18746928 Eh
Zero point energy                ...      0.17595427 Eh     110.41 kcal/mol
Thermal vibrational correction   ...      0.00543086 Eh       3.41 kcal/mol
Thermal rotational correction    ...      0.00141627 Eh       0.89 kcal/mol
Thermal translational correction ...      0.00141627 Eh       0.89 kcal/mol
-----------------------------------------------------------------------
Total thermal energy                   -327.00325161 Eh

Summary of corrections to the electronic energy:
(perhaps to be used in another calculation)
Total thermal correction                  0.00826340 Eh       5.19 kcal/mol
Non-thermal (ZPE) correction              0.17595427 Eh     110.41 kcal/mol
-----------------------------------------------------------------------
Total correction                          0.18421767 Eh     115.60 kcal/mol

--------
ENTHALPY
--------

The enthalpy is H = U + kB*T
                kB is Boltzmann's constant
Total free energy                 ...   -327.00325161 Eh
Thermal Enthalpy correction       ...      0.00094421 Eh       0.59 kcal/mol
-----------------------------------------------------------------------
Total Enthalpy                    ...   -327.00230740 Eh

-------
ENTROPY
-------

The entropy contributions are T*S = T*(S(el)+S(vib)+S(rot)+S(trans)
     S(el)   - electronic entropy
     S(vib)  - vibrational entropy
     S(rot)  - rotational entropy
     S(trans)- translational entropy
The entropies will be listed as mutliplied by the temperature to get
units of energy

Electronic entropy                ...      0.00000000 Eh      0.00 kcal/mol
Vibrational entropy               ...      0.01036610 Eh      6.50 kcal/mol
Rotational entropy                ...      0.01224502 Eh      7.68 kcal/mol
Translational entropy             ...      0.01890147 Eh     11.86 kcal/mol
-----------------------------------------------------------------------
Final entropy term                ...      0.04151258 Eh     26.05 kcal/mol

CAUTION: The rotational entropy is not quite correctly treated here
         because it includes a symmetry number that is not yet correctly
         implemented in ORCA!
For a nonlinear molecule the correct rotational entropy is:
    S(rot) = R*(ln(qrot/sn)+1.5)
    R    = 8.31441 J/mol/K = 1.987191683e-3 kcal/mol/K
    qrot = 287087.1053795
    sn is the rotational symmetry number. We have assumed 3 here
       if it is different for your molecule then you should correct
       the printed rotational entropy by manually evaluating the equation
       as given above

For convenience we print out the resulting values for sn=1 - 12:
 sn= 1  qrot/sn=  287087.1054 T*S(rot)=     8.33 kcal/mol T*S(tot)=    26.70 kcal/mol
 sn= 2  qrot/sn=  143543.5527 T*S(rot)=     7.92 kcal/mol T*S(tot)=    26.29 kcal/mol
 sn= 3  qrot/sn=   95695.7018 T*S(rot)=     7.68 kcal/mol T*S(tot)=    26.05 kcal/mol
 sn= 4  qrot/sn=   71771.7763 T*S(rot)=     7.51 kcal/mol T*S(tot)=    25.88 kcal/mol
 sn= 5  qrot/sn=   57417.4211 T*S(rot)=     7.38 kcal/mol T*S(tot)=    25.75 kcal/mol
 sn= 6  qrot/sn=   47847.8509 T*S(rot)=     7.27 kcal/mol T*S(tot)=    25.64 kcal/mol
 sn= 7  qrot/sn=   41012.4436 T*S(rot)=     7.18 kcal/mol T*S(tot)=    25.55 kcal/mol
 sn= 8  qrot/sn=   35885.8882 T*S(rot)=     7.10 kcal/mol T*S(tot)=    25.47 kcal/mol
 sn= 9  qrot/sn=   31898.5673 T*S(rot)=     7.03 kcal/mol T*S(tot)=    25.40 kcal/mol
 sn=10  qrot/sn=   28708.7105 T*S(rot)=     6.97 kcal/mol T*S(tot)=    25.34 kcal/mol
 sn=11  qrot/sn=   26098.8278 T*S(rot)=     6.91 kcal/mol T*S(tot)=    25.28 kcal/mol
 sn=12  qrot/sn=   23923.9254 T*S(rot)=     6.86 kcal/mol T*S(tot)=    25.23 kcal/mol

-------------------
GIBBS FREE ENTHALPY
-------------------

The Gibbs free enthalpy is G = H - T*S

Total enthalpy                    ...   -327.00230740 Eh
Total entropy correction          ...     -0.04151258 Eh    -26.05 kcal/mol
-----------------------------------------------------------------------
Final Gibbs free enthalpy         ...   -327.04381998 Eh

For completeness - the Gibbs free enthalpy minus the electronic energy
G-E(el)                           ...      0.14364930 Eh     90.14 kcal/mol

                             ****ORCA TERMINATED NORMALLY****
TOTAL RUN TIME: 0 days 0 hours 45 minutes 16 seconds 28 msec
