                         Program Version 3.0.3 - RELEASE   -
|  1> ! NORI PBE0 def2-TZVP UseSym TightOPT Freq TightSCF Grid3 FinalGrid5 XYZFile
|  2> % pal
|  3>     nprocs 8
|  4> end
|  5> %method
|  6>     SymThresh 5.0e-2
|  7> end
|  8> % geom
|  9>     MaxIter 10
| 10> end
| 11> % maxcore 2000
| 12> % output
| 13>     printlevel mini
| 14>     print[ P_Basis ] 0
| 15>     print[ P_SCFInfo ] 1
| 16>     print[ P_SCFIterInfo ] 1
| 17>     print[ P_OrbEn ] 0
| 18>     print[ P_Cartesian ] 0
| 19> end
| 20> % elprop
| 21>     Dipole false
| 22> end
| 23> *xyz 1 1
| 24>  C        0.6083956568     1.1574654076     0.1647083991
| 25>  N        1.9546719594     0.5507543492     0.3499924975
| 26>  C        2.6174447414     1.0766696369     1.5742429179
| 27>  C        1.9175561321    -0.9497515918     0.3564895606
| 28>  C        1.4634940986    -1.5311112238    -0.9535253137
| 29>  C        2.4161389527    -1.7042190491    -2.0568194245
| 30>  O        2.0358215412    -2.7850128982    -1.2308776223
| 31>  H        0.1845324910     0.8201669550    -0.7782755045
| 32>  H        0.7082988528     2.2417919218     0.1569755295
| 33>  H       -0.0267343916     0.8492418430     0.9943858867
| 34>  H        2.5241816844     0.8235920731    -0.4537414257
| 35>  H        2.0329403527     0.7713614976     2.4408912386
| 36>  H        2.6583154550     2.1632748014     1.5176827611
| 37>  H        3.6228710178     0.6660231900     1.6407403676
| 38>  H        2.9289616570    -1.3006828528     0.5657481775
| 39>  H        1.2680348795    -1.2445328739     1.1834289888
| 40>  H        0.4025578738    -1.4635010115    -1.1840698254
| 41>  H        2.0399136587    -1.7365948237    -3.0749745266
| 42>  H        3.4492233867    -1.3794653507    -1.9438026824
| 43> *
| 44>
| 45>                          ****END OF INPUT****
 Total Charge           Charge          ....    1
 Multiplicity           Mult            ....    1
 Number of Electrons    NEL             ....   56
FINAL SINGLE POINT ENERGY      -327.176560225964
FINAL SINGLE POINT ENERGY      -327.176561617184

CARTESIAN COORDINATES (ANGSTROEM)
---------------------------------
  C     -1.169443    0.134966   -1.835552
  N      0.197759   -0.000564   -1.263061
  C      1.226981    0.538978   -2.192834
  C      0.318753    0.621878    0.097728
  C     -0.544759   -0.049244    1.129087
  C     -0.079673   -1.266503    1.805711
  O     -0.000816    0.000518    2.424435
  H     -1.888736   -0.343392   -1.175037
  H     -1.191491   -0.342987   -2.813123
  H     -1.397267    1.195249   -1.935065
  H      0.379953   -0.999168   -1.143407
  H      1.057474    1.607849   -2.312816
  H      1.135035    0.037984   -3.154779
  H      2.215328    0.364523   -1.771273
  H      1.362786    0.538312    0.403147
  H      0.072405    1.679664   -0.018002
  H     -1.613576    0.149619    1.084837
  H     -0.813760   -1.948126    2.224661
  H      0.878332   -1.708925    1.537192

FINAL SINGLE POINT ENERGY      -327.176562212725
                    ***********************HURRAY********************
 Multiplicity           Mult            ....    1
 Number of Electrons    NEL             ....   56
 Basis Dimension        Dim             ....  289
FINAL SINGLE POINT ENERGY      -327.176562444714

VIBRATIONAL FREQUENCIES
-----------------------

   0:         0.00 cm**-1
   1:         0.00 cm**-1
   2:         0.00 cm**-1
   3:         0.00 cm**-1
   4:         0.00 cm**-1
   5:         0.00 cm**-1
   6:        56.70 cm**-1
   7:        83.56 cm**-1
   8:       180.58 cm**-1
   9:       214.30 cm**-1
  10:       246.32 cm**-1
  11:       327.05 cm**-1
  12:       364.98 cm**-1
  13:       415.32 cm**-1
  14:       462.91 cm**-1
  15:       482.76 cm**-1
  16:       837.20 cm**-1
  17:       855.34 cm**-1
  18:       896.59 cm**-1
  19:       936.24 cm**-1
  20:       969.68 cm**-1
  21:      1011.49 cm**-1
  22:      1025.06 cm**-1
  23:      1051.65 cm**-1
  24:      1078.36 cm**-1
  25:      1122.76 cm**-1
  26:      1171.99 cm**-1
  27:      1180.17 cm**-1
  28:      1199.16 cm**-1
  29:      1199.46 cm**-1
  30:      1252.97 cm**-1
  31:      1301.51 cm**-1
  32:      1310.46 cm**-1
  33:      1365.93 cm**-1
  34:      1419.86 cm**-1
  35:      1429.85 cm**-1
  36:      1441.09 cm**-1
  37:      1453.26 cm**-1
  38:      1469.34 cm**-1
  39:      1475.09 cm**-1
  40:      1487.08 cm**-1
  41:      1493.94 cm**-1
  42:      1499.63 cm**-1
  43:      1508.39 cm**-1
  44:      1528.97 cm**-1
  45:      3087.17 cm**-1
  46:      3090.19 cm**-1
  47:      3092.24 cm**-1
  48:      3105.07 cm**-1
  49:      3139.28 cm**-1
  50:      3156.58 cm**-1
  51:      3187.95 cm**-1
  52:      3189.51 cm**-1
  53:      3191.50 cm**-1
  54:      3199.08 cm**-1
  55:      3207.68 cm**-1
  56:      3450.84 cm**-1

IR SPECTRUM
-----------

 Mode    freq (cm**-1)   T**2         TX         TY         TZ
-------------------------------------------------------------------
   6:        56.70    0.637607  ( -0.410635   0.631789   0.264250)
   7:        83.56    2.409482  ( -1.083370   0.833567   0.735498)
   8:       180.58    3.379898  (  1.807911   0.298793   0.148591)
   9:       214.30    0.941691  ( -0.963038  -0.106122   0.054647)
  10:       246.32    0.412740  (  0.234053   0.238862  -0.548547)
  11:       327.05    3.216680  ( -0.475602  -0.812790   1.526387)
  12:       364.98    2.751642  ( -0.022097   0.031114  -1.658368)
  13:       415.32    0.169897  ( -0.078028  -0.206323   0.348194)
  14:       462.91    2.018458  (  0.400372   0.286361  -1.332726)
  15:       482.76    5.994804  (  0.711235   0.202672  -2.334068)
  16:       837.20   19.732818  ( -1.366717  -1.732739  -3.855194)
  17:       855.34   19.496178  ( -0.401277   2.192136   3.811784)
  18:       896.59    0.686414  (  0.548604  -0.448665   0.429124)
  19:       936.24   16.676525  ( -2.119390   1.600227  -3.102255)
  20:       969.68   20.656407  ( -1.214097  -1.339917   4.169772)
  21:      1011.49   18.351078  (  1.430550  -0.711415  -3.974732)
  22:      1025.06   24.549382  ( -3.616908  -2.017451  -2.719789)
  23:      1051.65    1.199189  (  0.871443  -0.094359  -0.656409)
  24:      1078.36    6.379544  ( -0.250335  -1.246569  -2.182417)
  25:      1122.76    5.349168  (  1.806313   1.296669   0.636437)
  26:      1171.99    0.325440  (  0.332825   0.127373   0.445470)
  27:      1180.17    0.777754  (  0.663002   0.353852   0.461488)
  28:      1199.16    0.893281  (  0.145864  -0.653891  -0.666657)
  29:      1199.46    5.063557  (  1.314802  -1.015876  -1.517514)
  30:      1252.97    0.119299  ( -0.075873  -0.135385  -0.308567)
  31:      1301.51   10.384436  ( -0.457246  -2.988599  -1.115186)
  32:      1310.46    0.453139  (  0.546501   0.385629  -0.075931)
  33:      1365.93    3.449806  ( -1.720522   0.378210   0.588699)
  34:      1419.86   23.875833  ( -1.204365  -0.670043   4.687897)
  35:      1429.85    8.011094  ( -0.991862  -0.040329  -2.650600)
  36:      1441.09    6.237591  (  2.489216  -0.074940  -0.189149)
  37:      1453.26    3.429029  (  0.622221   0.730307   1.583831)
  38:      1469.34    3.060099  ( -1.102320   1.251697  -0.527488)
  39:      1475.09    4.454746  ( -1.672942   0.843985  -0.971443)
  40:      1487.08    5.492263  ( -1.924843   1.218704  -0.549549)
  41:      1493.94   29.896231  ( -4.475007  -1.644304   2.677088)
  42:      1499.63   24.262077  ( -1.401076   1.908029  -4.319547)
  43:      1508.39   48.105381  ( -0.936902  -5.963351  -3.415558)
  44:      1528.97    3.665942  ( -1.386452  -0.136207  -1.313446)
  45:      3087.17    0.188353  ( -0.010297   0.297427  -0.315886)
  46:      3090.19    0.941837  ( -0.367502  -0.516584   0.734793)
  47:      3092.24    0.277302  ( -0.046391  -0.227112   0.472832)
  48:      3105.07    9.734191  (  1.606420  -2.244674  -1.454318)
  49:      3139.28    4.613723  (  1.836698   0.244869   1.086416)
  50:      3156.58    2.255632  ( -0.750488   0.548545  -1.179618)
  51:      3187.95    0.103634  ( -0.318512  -0.019318   0.042547)
  52:      3189.51    0.085471  (  0.016338  -0.162769   0.242301)
  53:      3191.50    0.043690  ( -0.007728   0.122575  -0.169132)
  54:      3199.08    0.079837  ( -0.254586  -0.069620  -0.100873)
  55:      3207.68    3.313007  ( -1.698894  -0.236852   0.608826)
  56:      3450.84   45.113621  (  1.174924  -6.549343   0.916124)

--------------------------
THERMOCHEMISTRY AT 298.15K
--------------------------

Temperature         ... 298.15 K
Pressure            ... 1.00 atm
Total Mass          ... 102.16 AMU

Throughout the following assumptions are being made:
  (1) The electronic state is orbitally nondegenerate
  (2) There are no thermally accessible electronically excited states
  (3) Hindered rotations indicated by low frequency modes) are not
      treated as such but are treated as vibrations and this may
      case some error
  (4) All equations used are the standard statistical mechanics
      equations for an ideal gas
  (5) All vibrations are strinctly harmonic

------------
INNER ENERGY
------------

The inner energy is: U= E(el) + E(ZPE) + E(vib) + E(rot) + E(trans)
    E(el)   - is the total energy from the electronic structure calculation
              = E(kin-el) + E(nuc-el) + E(el-el) + E(nuc-nuc)
    E(ZPE)  - the the zero temperature vibrational energy from the frequency calculation
    E(vib)  - the the finite temperature correction to E(ZPE) due to population
              of excietd vibrational states
    E(rot)  - is the rotational thermal energy
    E(trans)- is the translational thermal energy

Summary of contributions to the inner energy U:
Electronic energy                ...   -327.17656244 Eh
Zero point energy                ...      0.17520047 Eh     109.94 kcal/mol
Thermal vibrational correction   ...      0.00532674 Eh       3.34 kcal/mol
Thermal rotational correction    ...      0.00141627 Eh       0.89 kcal/mol
Thermal translational correction ...      0.00141627 Eh       0.89 kcal/mol
-----------------------------------------------------------------------
Total thermal energy                   -326.99320269 Eh

Summary of corrections to the electronic energy:
(perhaps to be used in another calculation)
Total thermal correction                  0.00815929 Eh       5.12 kcal/mol
Non-thermal (ZPE) correction              0.17520047 Eh     109.94 kcal/mol
-----------------------------------------------------------------------
Total correction                          0.18335976 Eh     115.06 kcal/mol

--------
ENTHALPY
--------

The enthalpy is H = U + kB*T
                kB is Boltzmann's constant
Total free energy                 ...   -326.99320269 Eh
Thermal Enthalpy correction       ...      0.00094421 Eh       0.59 kcal/mol
-----------------------------------------------------------------------
Total Enthalpy                    ...   -326.99225848 Eh

-------
ENTROPY
-------

The entropy contributions are T*S = T*(S(el)+S(vib)+S(rot)+S(trans)
     S(el)   - electronic entropy
     S(vib)  - vibrational entropy
     S(rot)  - rotational entropy
     S(trans)- translational entropy
The entropies will be listed as mutliplied by the temperature to get
units of energy

Electronic entropy                ...      0.00000000 Eh      0.00 kcal/mol
Vibrational entropy               ...      0.00984504 Eh      6.18 kcal/mol
Rotational entropy                ...      0.01217834 Eh      7.64 kcal/mol
Translational entropy             ...      0.01890147 Eh     11.86 kcal/mol
-----------------------------------------------------------------------
Final entropy term                ...      0.04092485 Eh     25.68 kcal/mol

CAUTION: The rotational entropy is not quite correctly treated here
         because it includes a symmetry number that is not yet correctly
         implemented in ORCA!
For a nonlinear molecule the correct rotational entropy is:
    S(rot) = R*(ln(qrot/sn)+1.5)
    R    = 8.31441 J/mol/K = 1.987191683e-3 kcal/mol/K
    qrot = 267514.3487882
    sn is the rotational symmetry number. We have assumed 3 here
       if it is different for your molecule then you should correct
       the printed rotational entropy by manually evaluating the equation
       as given above

For convenience we print out the resulting values for sn=1 - 12:
 sn= 1  qrot/sn=  267514.3488 T*S(rot)=     8.29 kcal/mol T*S(tot)=    26.33 kcal/mol
 sn= 2  qrot/sn=  133757.1744 T*S(rot)=     7.88 kcal/mol T*S(tot)=    25.92 kcal/mol
 sn= 3  qrot/sn=   89171.4496 T*S(rot)=     7.64 kcal/mol T*S(tot)=    25.68 kcal/mol
 sn= 4  qrot/sn=   66878.5872 T*S(rot)=     7.47 kcal/mol T*S(tot)=    25.51 kcal/mol
 sn= 5  qrot/sn=   53502.8698 T*S(rot)=     7.34 kcal/mol T*S(tot)=    25.38 kcal/mol
 sn= 6  qrot/sn=   44585.7248 T*S(rot)=     7.23 kcal/mol T*S(tot)=    25.27 kcal/mol
 sn= 7  qrot/sn=   38216.3355 T*S(rot)=     7.14 kcal/mol T*S(tot)=    25.18 kcal/mol
 sn= 8  qrot/sn=   33439.2936 T*S(rot)=     7.06 kcal/mol T*S(tot)=    25.10 kcal/mol
 sn= 9  qrot/sn=   29723.8165 T*S(rot)=     6.99 kcal/mol T*S(tot)=    25.03 kcal/mol
 sn=10  qrot/sn=   26751.4349 T*S(rot)=     6.93 kcal/mol T*S(tot)=    24.97 kcal/mol
 sn=11  qrot/sn=   24319.4863 T*S(rot)=     6.87 kcal/mol T*S(tot)=    24.91 kcal/mol
 sn=12  qrot/sn=   22292.8624 T*S(rot)=     6.82 kcal/mol T*S(tot)=    24.86 kcal/mol

-------------------
GIBBS FREE ENTHALPY
-------------------

The Gibbs free enthalpy is G = H - T*S

Total enthalpy                    ...   -326.99225848 Eh
Total entropy correction          ...     -0.04092485 Eh    -25.68 kcal/mol
-----------------------------------------------------------------------
Final Gibbs free enthalpy         ...   -327.03318332 Eh

For completeness - the Gibbs free enthalpy minus the electronic energy
G-E(el)                           ...      0.14337912 Eh     89.97 kcal/mol

                             ****ORCA TERMINATED NORMALLY****
TOTAL RUN TIME: 0 days 0 hours 51 minutes 56 seconds 656 msec
