                         Program Version 3.0.3 - RELEASE   -
|  1> ! NORI PBE0 def2-TZVP UseSym TightOPT Freq TightSCF Grid3 FinalGrid5 XYZFile
|  2> % pal
|  3>     nprocs 8
|  4> end
|  5> %method
|  6>     SymThresh 5.0e-2
|  7> end
|  8> % geom
|  9>     MaxIter 10
| 10> end
| 11> % maxcore 2000
| 12> % output
| 13>     printlevel mini
| 14>     print[ P_Basis ] 0
| 15>     print[ P_SCFInfo ] 1
| 16>     print[ P_SCFIterInfo ] 1
| 17>     print[ P_OrbEn ] 0
| 18>     print[ P_Cartesian ] 0
| 19> end
| 20> % elprop
| 21>     Dipole false
| 22> end
| 23> *xyz 1 1
| 24>  C        1.4209918370    -1.0027525648     0.9007645987
| 25>  N        2.8289723714    -0.7220379886     1.2937010492
| 26>  C        3.2831122656     0.7155823817     1.1475666722
| 27>  C        2.5435748865     1.6177168334     2.1069325158
| 28>  C        4.7760050546     0.7503375106     1.3587472084
| 29>  C        5.7101203739     0.5990296529     0.2387912939
| 30>  O        5.3985450851     1.8678678470     0.7855863093
| 31>  H        1.2360925553    -2.0716464888     0.9946241525
| 32>  H        1.2791871839    -0.6876435944    -0.1313340547
| 33>  H        0.7516764409    -0.4529043084     1.5562745516
| 34>  H        3.4570603105    -1.3045386434     0.7358204797
| 35>  H        2.9694067236    -1.0071195792     2.2659125186
| 36>  H        3.0714642557     0.9871679433     0.1102038235
| 37>  H        2.6902667741     1.3069076678     3.1461714786
| 38>  H        1.4753272901     1.6773141188     1.8967701521
| 39>  H        2.9524515597     2.6239024230     2.0044182052
| 40>  H        5.1140038591     0.5050277667     2.3679279209
| 41>  H        6.7163973213     0.2416703443     0.4348137237
| 42>  H        5.3305438516     0.4262886781    -0.7662225993
| 43> *
| 44>
| 45>                          ****END OF INPUT****
 Total Charge           Charge          ....    1
 Multiplicity           Mult            ....    1
 Number of Electrons    NEL             ....   56
FINAL SINGLE POINT ENERGY      -327.185401469902
FINAL SINGLE POINT ENERGY      -327.185402705543

CARTESIAN COORDINATES (ANGSTROEM)
---------------------------------
  C     -0.113872    0.649339   -2.662377
  N      0.465392   -0.000359   -1.455036
  C     -0.389076    0.046149   -0.204237
  C     -1.650075   -0.767605   -0.378066
  C      0.453942   -0.438174    0.948811
  C      1.251985    0.490991    1.755386
  O     -0.000534    0.001682    2.199576
  H      0.615411    0.604868   -3.469399
  H     -0.343634    1.685517   -2.422077
  H     -1.018359    0.121677   -2.952230
  H      1.362400    0.437775   -1.234463
  H      0.674565   -0.978618   -1.667713
  H     -0.621416    1.102541   -0.046848
  H     -1.425841   -1.812745   -0.611380
  H     -2.315462   -0.363807   -1.141311
  H     -2.192435   -0.751955    0.568449
  H      0.743813   -1.490552    0.910487
  H      2.116396    0.115073    2.294285
  H      1.269609    1.550193    1.506293

FINAL SINGLE POINT ENERGY      -327.185403192403
                    ***********************HURRAY********************
 Multiplicity           Mult            ....    1
 Number of Electrons    NEL             ....   56
 Basis Dimension        Dim             ....  289
FINAL SINGLE POINT ENERGY      -327.185403394288

VIBRATIONAL FREQUENCIES
-----------------------

   0:         0.00 cm**-1
   1:         0.00 cm**-1
   2:         0.00 cm**-1
   3:         0.00 cm**-1
   4:         0.00 cm**-1
   5:         0.00 cm**-1
   6:        63.93 cm**-1
   7:        83.95 cm**-1
   8:       175.72 cm**-1
   9:       206.22 cm**-1
  10:       227.37 cm**-1
  11:       283.99 cm**-1
  12:       311.89 cm**-1
  13:       400.15 cm**-1
  14:       478.55 cm**-1
  15:       480.33 cm**-1
  16:       802.57 cm**-1
  17:       838.05 cm**-1
  18:       846.69 cm**-1
  19:       931.88 cm**-1
  20:       962.88 cm**-1
  21:       980.08 cm**-1
  22:      1019.55 cm**-1
  23:      1040.71 cm**-1
  24:      1063.55 cm**-1
  25:      1114.01 cm**-1
  26:      1149.07 cm**-1
  27:      1171.16 cm**-1
  28:      1185.32 cm**-1
  29:      1207.92 cm**-1
  30:      1222.23 cm**-1
  31:      1298.46 cm**-1
  32:      1309.26 cm**-1
  33:      1340.72 cm**-1
  34:      1396.85 cm**-1
  35:      1412.71 cm**-1
  36:      1425.72 cm**-1
  37:      1456.73 cm**-1
  38:      1457.17 cm**-1
  39:      1483.58 cm**-1
  40:      1489.68 cm**-1
  41:      1494.57 cm**-1
  42:      1502.62 cm**-1
  43:      1530.43 cm**-1
  44:      1647.52 cm**-1
  45:      3057.72 cm**-1
  46:      3094.05 cm**-1
  47:      3096.88 cm**-1
  48:      3107.01 cm**-1
  49:      3110.55 cm**-1
  50:      3141.80 cm**-1
  51:      3158.35 cm**-1
  52:      3191.99 cm**-1
  53:      3207.99 cm**-1
  54:      3211.40 cm**-1
  55:      3432.52 cm**-1
  56:      3483.80 cm**-1

IR SPECTRUM
-----------

 Mode    freq (cm**-1)   T**2         TX         TY         TZ
-------------------------------------------------------------------
   6:        63.93    3.592571  (  0.591075   1.800803   0.017650)
   7:        83.95    0.413478  ( -0.055766   0.278013  -0.577128)
   8:       175.72    3.490505  (  1.151358  -1.442549  -0.289710)
   9:       206.22    0.304870  ( -0.185525   0.468291   0.226173)
  10:       227.37    0.466159  ( -0.167521   0.579614  -0.319599)
  11:       283.99    0.043178  ( -0.157339   0.130989  -0.035565)
  12:       311.89    6.062883  ( -1.587942  -0.746685  -1.727364)
  13:       400.15    2.741972  (  0.006621  -0.459380   1.590880)
  14:       478.55   11.042793  ( -0.068463   0.317049   3.307202)
  15:       480.33    4.311431  ( -0.342198  -0.951796   1.813399)
  16:       802.57   24.332329  ( -2.704893  -2.774031   3.052972)
  17:       838.05    7.491293  (  0.587501  -0.911475  -2.513036)
  18:       846.69    4.116842  ( -1.089181  -1.048076  -1.353537)
  19:       931.88    7.681701  (  1.481771   2.183209   0.848325)
  20:       962.88   38.121952  (  5.072040  -0.649551  -3.460410)
  21:       980.08    6.468702  (  0.243003  -0.054476  -2.531143)
  22:      1019.55    1.447729  ( -0.546893   1.019925  -0.329224)
  23:      1040.71   33.145006  (  0.552366   0.264484  -5.724504)
  24:      1063.55   10.806210  (  0.533098   0.744921  -3.157073)
  25:      1114.01    5.448286  ( -0.603699   0.817558  -2.101293)
  26:      1149.07    0.076071  ( -0.237848   0.051179  -0.129924)
  27:      1171.16    0.900109  (  0.091353  -0.845871  -0.419840)
  28:      1185.32    1.845168  (  0.717817  -1.099933  -0.346488)
  29:      1207.92    0.706429  ( -0.226579   0.140666  -0.797059)
  30:      1222.23    8.070927  ( -0.541667  -0.537995  -2.736437)
  31:      1298.46    9.583712  ( -2.823206  -0.650832   1.090706)
  32:      1309.26    0.177655  (  0.034425   0.411437  -0.084790)
  33:      1340.72    7.281189  ( -0.943890  -1.424704   2.088176)
  34:      1396.85   13.772073  ( -1.382535  -0.677306   3.376674)
  35:      1412.71   54.569960  ( -2.199036  -1.978819   6.768935)
  36:      1425.72   21.523486  ( -2.643563  -1.316194  -3.578086)
  37:      1456.73    6.746734  ( -0.653912   0.448589  -2.473439)
  38:      1457.17    1.994816  (  1.232570   0.602620  -0.335314)
  39:      1483.58    2.146991  ( -0.121827  -1.449328  -0.177759)
  40:      1489.68   23.299993  ( -0.277609  -4.762499  -0.735888)
  41:      1494.57   32.387689  ( -4.550089   0.789974   3.325706)
  42:      1502.62   11.126517  (  0.723734   0.746904   3.169363)
  43:      1530.43    5.147017  ( -0.621482   1.305438   1.748316)
  44:      1647.52   51.780864  (  6.546682  -2.986635  -0.042741)
  45:      3057.72    4.825007  ( -0.528973   0.964828   1.901132)
  46:      3094.05    3.670716  (  1.158640  -1.259034  -0.862035)
  47:      3096.88    0.043413  ( -0.020522  -0.066393  -0.196429)
  48:      3107.01    7.388182  ( -0.195174  -2.452518  -1.155529)
  49:      3110.55    7.008799  ( -1.646980  -1.644922   1.261145)
  50:      3141.80    3.794082  (  0.372835  -1.697346   0.879824)
  51:      3158.35    2.746850  (  1.447842  -0.415376   0.691423)
  52:      3191.99    0.160521  (  0.341288  -0.205909  -0.040549)
  53:      3207.99    0.116991  ( -0.147974  -0.254025   0.174830)
  54:      3211.40    3.190267  ( -0.857807   1.363357  -0.771811)
  55:      3432.52   36.553422  (  5.370456  -2.757769  -0.326085)
  56:      3483.80   61.123436  (  3.426556   6.574247   2.482222)

--------------------------
THERMOCHEMISTRY AT 298.15K
--------------------------

Temperature         ... 298.15 K
Pressure            ... 1.00 atm
Total Mass          ... 102.16 AMU

Throughout the following assumptions are being made:
  (1) The electronic state is orbitally nondegenerate
  (2) There are no thermally accessible electronically excited states
  (3) Hindered rotations indicated by low frequency modes) are not
      treated as such but are treated as vibrations and this may
      case some error
  (4) All equations used are the standard statistical mechanics
      equations for an ideal gas
  (5) All vibrations are strinctly harmonic

------------
INNER ENERGY
------------

The inner energy is: U= E(el) + E(ZPE) + E(vib) + E(rot) + E(trans)
    E(el)   - is the total energy from the electronic structure calculation
              = E(kin-el) + E(nuc-el) + E(el-el) + E(nuc-nuc)
    E(ZPE)  - the the zero temperature vibrational energy from the frequency calculation
    E(vib)  - the the finite temperature correction to E(ZPE) due to population
              of excietd vibrational states
    E(rot)  - is the rotational thermal energy
    E(trans)- is the translational thermal energy

Summary of contributions to the inner energy U:
Electronic energy                ...   -327.18540339 Eh
Zero point energy                ...      0.17493564 Eh     109.77 kcal/mol
Thermal vibrational correction   ...      0.00551716 Eh       3.46 kcal/mol
Thermal rotational correction    ...      0.00141627 Eh       0.89 kcal/mol
Thermal translational correction ...      0.00141627 Eh       0.89 kcal/mol
-----------------------------------------------------------------------
Total thermal energy                   -327.00211805 Eh

Summary of corrections to the electronic energy:
(perhaps to be used in another calculation)
Total thermal correction                  0.00834971 Eh       5.24 kcal/mol
Non-thermal (ZPE) correction              0.17493564 Eh     109.77 kcal/mol
-----------------------------------------------------------------------
Total correction                          0.18328535 Eh     115.01 kcal/mol

--------
ENTHALPY
--------

The enthalpy is H = U + kB*T
                kB is Boltzmann's constant
Total free energy                 ...   -327.00211805 Eh
Thermal Enthalpy correction       ...      0.00094421 Eh       0.59 kcal/mol
-----------------------------------------------------------------------
Total Enthalpy                    ...   -327.00117384 Eh

-------
ENTROPY
-------

The entropy contributions are T*S = T*(S(el)+S(vib)+S(rot)+S(trans)
     S(el)   - electronic entropy
     S(vib)  - vibrational entropy
     S(rot)  - rotational entropy
     S(trans)- translational entropy
The entropies will be listed as mutliplied by the temperature to get
units of energy

Electronic entropy                ...      0.00000000 Eh      0.00 kcal/mol
Vibrational entropy               ...      0.01014556 Eh      6.37 kcal/mol
Rotational entropy                ...      0.01218295 Eh      7.64 kcal/mol
Translational entropy             ...      0.01890147 Eh     11.86 kcal/mol
-----------------------------------------------------------------------
Final entropy term                ...      0.04122998 Eh     25.87 kcal/mol

CAUTION: The rotational entropy is not quite correctly treated here
         because it includes a symmetry number that is not yet correctly
         implemented in ORCA!
For a nonlinear molecule the correct rotational entropy is:
    S(rot) = R*(ln(qrot/sn)+1.5)
    R    = 8.31441 J/mol/K = 1.987191683e-3 kcal/mol/K
    qrot = 268822.7492017
    sn is the rotational symmetry number. We have assumed 3 here
       if it is different for your molecule then you should correct
       the printed rotational entropy by manually evaluating the equation
       as given above

For convenience we print out the resulting values for sn=1 - 12:
 sn= 1  qrot/sn=  268822.7492 T*S(rot)=     8.30 kcal/mol T*S(tot)=    26.52 kcal/mol
 sn= 2  qrot/sn=  134411.3746 T*S(rot)=     7.89 kcal/mol T*S(tot)=    26.11 kcal/mol
 sn= 3  qrot/sn=   89607.5831 T*S(rot)=     7.64 kcal/mol T*S(tot)=    25.87 kcal/mol
 sn= 4  qrot/sn=   67205.6873 T*S(rot)=     7.47 kcal/mol T*S(tot)=    25.70 kcal/mol
 sn= 5  qrot/sn=   53764.5498 T*S(rot)=     7.34 kcal/mol T*S(tot)=    25.57 kcal/mol
 sn= 6  qrot/sn=   44803.7915 T*S(rot)=     7.23 kcal/mol T*S(tot)=    25.46 kcal/mol
 sn= 7  qrot/sn=   38403.2499 T*S(rot)=     7.14 kcal/mol T*S(tot)=    25.37 kcal/mol
 sn= 8  qrot/sn=   33602.8437 T*S(rot)=     7.06 kcal/mol T*S(tot)=    25.29 kcal/mol
 sn= 9  qrot/sn=   29869.1944 T*S(rot)=     6.99 kcal/mol T*S(tot)=    25.22 kcal/mol
 sn=10  qrot/sn=   26882.2749 T*S(rot)=     6.93 kcal/mol T*S(tot)=    25.16 kcal/mol
 sn=11  qrot/sn=   24438.4317 T*S(rot)=     6.88 kcal/mol T*S(tot)=    25.10 kcal/mol
 sn=12  qrot/sn=   22401.8958 T*S(rot)=     6.82 kcal/mol T*S(tot)=    25.05 kcal/mol

-------------------
GIBBS FREE ENTHALPY
-------------------

The Gibbs free enthalpy is G = H - T*S

Total enthalpy                    ...   -327.00117384 Eh
Total entropy correction          ...     -0.04122998 Eh    -25.87 kcal/mol
-----------------------------------------------------------------------
Final Gibbs free enthalpy         ...   -327.04240382 Eh

For completeness - the Gibbs free enthalpy minus the electronic energy
G-E(el)                           ...      0.14299958 Eh     89.73 kcal/mol

                             ****ORCA TERMINATED NORMALLY****
TOTAL RUN TIME: 0 days 0 hours 52 minutes 45 seconds 656 msec
