                         Program Version 3.0.3 - RELEASE   -
|  1> ! NORI PBE0 def2-TZVP UseSym TightOPT Freq TightSCF Grid3 FinalGrid5 XYZFile
|  2> % pal
|  3>     nprocs 8
|  4> end
|  5> %method
|  6>     SymThresh 5.0e-2
|  7> end
|  8> % geom
|  9>     MaxIter 10
| 10> end
| 11> % maxcore 2000
| 12> % output
| 13>     printlevel mini
| 14>     print[ P_Basis ] 0
| 15>     print[ P_SCFInfo ] 1
| 16>     print[ P_SCFIterInfo ] 1
| 17>     print[ P_OrbEn ] 0
| 18>     print[ P_Cartesian ] 0
| 19> end
| 20> % elprop
| 21>     Dipole false
| 22> end
| 23> *xyz 1 1
| 24>  C        0.8660463066    -0.0959948313     0.0460662957
| 25>  N        2.3517998259    -0.1402232483     0.0109921772
| 26>  C        2.9733211865    -1.0912971203     1.0081171107
| 27>  C        4.4092826925    -1.0715879026     0.9032029188
| 28>  C        5.6117968506    -1.0958106851     0.8636091874
| 29>  C        7.0753237685    -1.1330161534     0.8525707746
| 30>  O        7.6563020115    -0.2659440882     1.7839743678
| 31>  H        0.5142192439     0.6163889599    -0.6975805358
| 32>  H        0.5492346005     0.2134132286     1.0399872284
| 33>  H        0.4814209258    -1.0893481431    -0.1762387617
| 34>  H        2.7381917142     0.7906888714     0.1823813436
| 35>  H        2.6770412834    -0.4058640725    -0.9211042639
| 36>  H        2.5572350221    -2.0797370775     0.7970398090
| 37>  H        2.6275492525    -0.7771830198     1.9961511043
| 38>  H        7.4277015685    -0.9588643247    -0.1721726944
| 39>  H        7.3842935941    -2.1477119081     1.1215542633
| 40>  H        7.6579901531     0.6300815152     1.4367296750
| 41> *
| 42>
| 43>                          ****END OF INPUT****
 Total Charge           Charge          ....    1
 Multiplicity           Mult            ....    1
 Number of Electrons    NEL             ....   54
FINAL SINGLE POINT ENERGY      -325.943008976245
FINAL SINGLE POINT ENERGY      -325.943010021765
FINAL SINGLE POINT ENERGY      -325.943011988639
FINAL SINGLE POINT ENERGY      -325.943012756535

CARTESIAN COORDINATES (ANGSTROEM)
---------------------------------
  C      0.893537    0.498096   -3.515530
  N      0.759697   -0.007756   -2.123852
  C     -0.377598    0.609917   -1.340811
  C     -0.433033    0.063111   -0.009900
  C     -0.521614   -0.358315    1.113800
  C     -0.643078   -0.835707    2.492582
  O     -0.033769    0.011453    3.424627
  H      1.732964   -0.000783   -3.996249
  H      1.066288    1.572079   -3.481602
  H     -0.027201    0.284599   -4.054926
  H      1.623884    0.154729   -1.602542
  H      0.625302   -1.021229   -2.125615
  H     -1.289731    0.411835   -1.909209
  H     -0.202902    1.688852   -1.336356
  H     -0.272663   -1.867486    2.545381
  H     -1.708286   -0.872117    2.740140
  H      0.915179   -0.140367    3.429828

FINAL SINGLE POINT ENERGY      -325.943013298953
                    ***********************HURRAY********************
 Multiplicity           Mult            ....    1
 Number of Electrons    NEL             ....   54
 Basis Dimension        Dim             ....  277
FINAL SINGLE POINT ENERGY      -325.943013452277

VIBRATIONAL FREQUENCIES
-----------------------

   0:         0.00 cm**-1
   1:         0.00 cm**-1
   2:         0.00 cm**-1
   3:         0.00 cm**-1
   4:         0.00 cm**-1
   5:         0.00 cm**-1
   6:        26.36 cm**-1
   7:        68.26 cm**-1
   8:        92.31 cm**-1
   9:       143.53 cm**-1
  10:       221.32 cm**-1
  11:       227.46 cm**-1
  12:       299.74 cm**-1
  13:       308.12 cm**-1
  14:       361.61 cm**-1
  15:       468.68 cm**-1
  16:       581.26 cm**-1
  17:       796.26 cm**-1
  18:       801.37 cm**-1
  19:       896.68 cm**-1
  20:       955.91 cm**-1
  21:       959.29 cm**-1
  22:      1023.49 cm**-1
  23:      1103.69 cm**-1
  24:      1138.97 cm**-1
  25:      1160.53 cm**-1
  26:      1180.88 cm**-1
  27:      1216.67 cm**-1
  28:      1304.13 cm**-1
  29:      1364.35 cm**-1
  30:      1381.88 cm**-1
  31:      1387.70 cm**-1
  32:      1394.04 cm**-1
  33:      1423.97 cm**-1
  34:      1458.38 cm**-1
  35:      1459.21 cm**-1
  36:      1473.77 cm**-1
  37:      1492.65 cm**-1
  38:      1496.16 cm**-1
  39:      1656.35 cm**-1
  40:      2359.50 cm**-1
  41:      3034.38 cm**-1
  42:      3076.70 cm**-1
  43:      3093.01 cm**-1
  44:      3093.66 cm**-1
  45:      3126.60 cm**-1
  46:      3194.39 cm**-1
  47:      3195.31 cm**-1
  48:      3440.72 cm**-1
  49:      3489.32 cm**-1
  50:      3863.84 cm**-1

IR SPECTRUM
-----------

 Mode    freq (cm**-1)   T**2         TX         TY         TZ
-------------------------------------------------------------------
   7:        68.26    1.328001  ( -0.702041  -0.905256   0.125105)
   8:        92.31    1.934293  ( -1.339716  -0.308801  -0.209988)
   9:       143.53    6.223937  ( -0.975804  -1.207437  -1.952905)
  10:       221.32    1.024180  ( -0.398403  -0.254055  -0.894937)
  11:       227.46  108.166921  ( -0.925277  -6.210734   8.290812)
  12:       299.74   22.164555  (  3.823008  -1.849345   2.032015)
  13:       308.12   25.622747  ( -0.267213   4.675557  -1.921071)
  14:       361.61   15.695953  (  0.378858   3.622582  -1.558628)
  15:       468.68   14.091914  ( -2.296095   0.338728   2.950445)
  16:       581.26    3.350641  (  0.465527  -1.765185  -0.134338)
  17:       796.26    3.761636  ( -1.038274  -0.736791   1.463135)
  18:       801.37   14.296329  ( -2.406573  -2.765732  -0.924911)
  19:       896.68   47.893655  ( -4.092309   1.418016   5.397768)
  20:       955.91   17.936441  ( -0.929222  -1.402184  -3.886756)
  21:       959.29   14.993328  (  1.743291   2.118500   2.732439)
  22:      1023.49   18.835818  (  0.795857   0.968244  -4.155109)
  23:      1103.69   92.976186  ( -3.767937  -5.176921  -7.209600)
  24:      1138.97    0.527399  ( -0.294725  -0.285829  -0.599031)
  25:      1160.53    4.055450  ( -1.336841  -0.315740  -1.472621)
  26:      1180.88   31.180675  (  0.211228   0.293978   5.572220)
  27:      1216.67   16.492037  ( -1.184302  -2.665679  -2.825530)
  28:      1304.13    2.889929  ( -0.963779  -1.243589  -0.643853)
  29:      1364.35    6.251952  ( -1.658915   1.336502  -1.309090)
  30:      1381.88   12.140599  (  0.431809   2.133102  -2.721032)
  31:      1387.70    2.710904  (  0.449769   0.610029   1.461669)
  32:      1394.04   60.836905  (  0.660037   1.930201   7.528319)
  33:      1423.97  116.740090  (  3.762233   1.585041 -10.003666)
  34:      1458.38    3.175207  ( -0.789759  -1.590875   0.143538)
  35:      1459.21   19.845378  (  1.232236   1.955449  -3.808306)
  36:      1473.77    8.651434  (  0.031606  -1.238451   2.667710)
  37:      1492.65   23.654676  (  3.019349   3.485288   1.546277)
  38:      1496.16   31.264620  (  4.373965  -2.954755  -1.844580)
  39:      1656.35   43.886422  (  3.758024  -4.549744   3.010566)
  40:      2359.50   79.785497  (  2.110482   2.220615  -8.390484)
  41:      3034.38   13.280979  ( -0.575552  -3.097323  -1.832024)
  42:      3076.70    4.800529  (  0.535265   0.365537  -2.092941)
  43:      3093.01    0.081767  ( -0.205166   0.119007   0.159722)
  44:      3093.66    2.272900  ( -0.409499   0.291345  -1.421383)
  45:      3126.60    0.836776  (  0.550519   0.673425   0.283201)
  46:      3194.39    0.416955  (  0.474390  -0.437616  -0.020026)
  47:      3195.31    0.090401  ( -0.238288  -0.159791  -0.089923)
  48:      3440.72   43.619701  ( -4.348939   4.663401  -1.720210)
  49:      3489.32   79.516014  ( -5.489385  -6.419296  -2.859251)
  50:      3863.84   61.578545  ( -6.965302  -0.107494  -3.612694)

--------------------------
THERMOCHEMISTRY AT 298.15K
--------------------------

Temperature         ... 298.15 K
Pressure            ... 1.00 atm
Total Mass          ... 100.14 AMU

Throughout the following assumptions are being made:
  (1) The electronic state is orbitally nondegenerate
  (2) There are no thermally accessible electronically excited states
  (3) Hindered rotations indicated by low frequency modes) are not
      treated as such but are treated as vibrations and this may
      case some error
  (4) All equations used are the standard statistical mechanics
      equations for an ideal gas
  (5) All vibrations are strinctly harmonic

------------
INNER ENERGY
------------

The inner energy is: U= E(el) + E(ZPE) + E(vib) + E(rot) + E(trans)
    E(el)   - is the total energy from the electronic structure calculation
              = E(kin-el) + E(nuc-el) + E(el-el) + E(nuc-nuc)
    E(ZPE)  - the the zero temperature vibrational energy from the frequency calculation
    E(vib)  - the the finite temperature correction to E(ZPE) due to population
              of excietd vibrational states
    E(rot)  - is the rotational thermal energy
    E(trans)- is the translational thermal energy

Summary of contributions to the inner energy U:
Electronic energy                ...   -325.94301345 Eh
Zero point energy                ...      0.15096521 Eh      94.73 kcal/mol
Thermal vibrational correction   ...      0.00535824 Eh       3.36 kcal/mol
Thermal rotational correction    ...      0.00141627 Eh       0.89 kcal/mol
Thermal translational correction ...      0.00141627 Eh       0.89 kcal/mol
-----------------------------------------------------------------------
Total thermal energy                   -325.78385746 Eh

Summary of corrections to the electronic energy:
(perhaps to be used in another calculation)
Total thermal correction                  0.00819078 Eh       5.14 kcal/mol
Non-thermal (ZPE) correction              0.15096521 Eh      94.73 kcal/mol
-----------------------------------------------------------------------
Total correction                          0.15915599 Eh      99.87 kcal/mol

--------
ENTHALPY
--------

The enthalpy is H = U + kB*T
                kB is Boltzmann's constant
Total free energy                 ...   -325.78385746 Eh
Thermal Enthalpy correction       ...      0.00094421 Eh       0.59 kcal/mol
-----------------------------------------------------------------------
Total Enthalpy                    ...   -325.78291326 Eh

-------
ENTROPY
-------

The entropy contributions are T*S = T*(S(el)+S(vib)+S(rot)+S(trans)
     S(el)   - electronic entropy
     S(vib)  - vibrational entropy
     S(rot)  - rotational entropy
     S(trans)- translational entropy
The entropies will be listed as mutliplied by the temperature to get
units of energy

Electronic entropy                ...      0.00000000 Eh      0.00 kcal/mol
Vibrational entropy               ...      0.00990713 Eh      6.22 kcal/mol
Rotational entropy                ...      0.01237286 Eh      7.76 kcal/mol
Translational entropy             ...      0.01887324 Eh     11.84 kcal/mol
-----------------------------------------------------------------------
Final entropy term                ...      0.04115323 Eh     25.82 kcal/mol

CAUTION: The rotational entropy is not quite correctly treated here
         because it includes a symmetry number that is not yet correctly
         implemented in ORCA!
For a nonlinear molecule the correct rotational entropy is:
    S(rot) = R*(ln(qrot/sn)+1.5)
    R    = 8.31441 J/mol/K = 1.987191683e-3 kcal/mol/K
    qrot = 328714.1165560
    sn is the rotational symmetry number. We have assumed 3 here
       if it is different for your molecule then you should correct
       the printed rotational entropy by manually evaluating the equation
       as given above

For convenience we print out the resulting values for sn=1 - 12:
 sn= 1  qrot/sn=  328714.1166 T*S(rot)=     8.41 kcal/mol T*S(tot)=    26.47 kcal/mol
 sn= 2  qrot/sn=  164357.0583 T*S(rot)=     8.00 kcal/mol T*S(tot)=    26.06 kcal/mol
 sn= 3  qrot/sn=  109571.3722 T*S(rot)=     7.76 kcal/mol T*S(tot)=    25.82 kcal/mol
 sn= 4  qrot/sn=   82178.5291 T*S(rot)=     7.59 kcal/mol T*S(tot)=    25.65 kcal/mol
 sn= 5  qrot/sn=   65742.8233 T*S(rot)=     7.46 kcal/mol T*S(tot)=    25.52 kcal/mol
 sn= 6  qrot/sn=   54785.6861 T*S(rot)=     7.35 kcal/mol T*S(tot)=    25.41 kcal/mol
 sn= 7  qrot/sn=   46959.1595 T*S(rot)=     7.26 kcal/mol T*S(tot)=    25.32 kcal/mol
 sn= 8  qrot/sn=   41089.2646 T*S(rot)=     7.18 kcal/mol T*S(tot)=    25.24 kcal/mol
 sn= 9  qrot/sn=   36523.7907 T*S(rot)=     7.11 kcal/mol T*S(tot)=    25.17 kcal/mol
 sn=10  qrot/sn=   32871.4117 T*S(rot)=     7.05 kcal/mol T*S(tot)=    25.11 kcal/mol
 sn=11  qrot/sn=   29883.1015 T*S(rot)=     6.99 kcal/mol T*S(tot)=    25.05 kcal/mol
 sn=12  qrot/sn=   27392.8430 T*S(rot)=     6.94 kcal/mol T*S(tot)=    25.00 kcal/mol

-------------------
GIBBS FREE ENTHALPY
-------------------

The Gibbs free enthalpy is G = H - T*S

Total enthalpy                    ...   -325.78291326 Eh
Total entropy correction          ...     -0.04115323 Eh    -25.82 kcal/mol
-----------------------------------------------------------------------
Final Gibbs free enthalpy         ...   -325.82406648 Eh

For completeness - the Gibbs free enthalpy minus the electronic energy
G-E(el)                           ...      0.11894697 Eh     74.64 kcal/mol

                             ****ORCA TERMINATED NORMALLY****
TOTAL RUN TIME: 0 days 0 hours 39 minutes 33 seconds 401 msec
