                         Program Version 3.0.3 - RELEASE   -
|  1> ! NORI PBE0 def2-TZVP UseSym TightOPT Freq TightSCF Grid3 FinalGrid5 XYZFile
|  2> % pal
|  3>     nprocs 8
|  4> end
|  5> %method
|  6>     SymThresh 5.0e-2
|  7> end
|  8> % geom
|  9>     MaxIter 10
| 10> end
| 11> % maxcore 2000
| 12> % output
| 13>     printlevel mini
| 14>     print[ P_Basis ] 0
| 15>     print[ P_SCFInfo ] 1
| 16>     print[ P_SCFIterInfo ] 1
| 17>     print[ P_OrbEn ] 0
| 18>     print[ P_Cartesian ] 0
| 19> end
| 20> % elprop
| 21>     Dipole false
| 22> end
| 23> *xyz 1 1
| 24>  C        1.0711287249     2.7843156593    -0.6488180564
| 25>  N        2.5445395024     2.6607976142    -0.5969556315
| 26>  C        3.0772037639     1.3191790275    -0.9984878960
| 27>  C        4.5863528834     1.3724513886    -1.1444077297
| 28>  C        5.0824055670     2.1927928080    -2.3317176548
| 29>  C        4.8183413818     1.5567209150    -3.6788542663
| 30>  O        4.4416013132     3.4754757603    -2.2249817021
| 31>  H        0.7821732737     3.7797057774    -0.3162901338
| 32>  H        0.6231579303     2.0318107714    -0.0020884231
| 33>  H        0.7444450867     2.6300179457    -1.6754444536
| 34>  H        3.0201367284     3.3316577120    -1.2351889618
| 35>  H        2.8776505037     2.8793609643     0.3424616544
| 36>  H        2.7676481734     0.5998119897    -0.2394136175
| 37>  H        2.5809610357     1.0590794338    -1.9346960751
| 38>  H        5.0281217091     1.7618686916    -0.2206305258
| 39>  H        4.9534536270     0.3490661096    -1.2462417362
| 40>  H        6.1614425463     2.3321762934    -2.2061786002
| 41>  H        3.7534312376     1.3867727618    -3.8548672820
| 42>  H        5.3399729961     0.6010752885    -3.7577630990
| 43>  H        5.1894791778     2.1953572631    -4.4838099964
| 44>  H        4.7391828376     4.0542958247    -2.9331558131
| 45> *
| 46>
| 47>                          ****END OF INPUT****
 Total Charge           Charge          ....    1
 Multiplicity           Mult            ....    1
 Number of Electrons    NEL             ....   58
FINAL SINGLE POINT ENERGY      -328.450736742468
FINAL SINGLE POINT ENERGY      -328.450742365618
FINAL SINGLE POINT ENERGY      -328.450744398675
FINAL SINGLE POINT ENERGY      -328.450745088712

CARTESIAN COORDINATES (ANGSTROEM)
---------------------------------
  C      2.303970   -1.049048   -1.234054
  N      1.467603   -0.006993   -0.597782
  C      0.133927    0.210696   -1.244289
  C     -0.730004    1.113923   -0.384537
  C     -1.189751    0.490578    0.930315
  C     -2.204450   -0.620159    0.770253
  O      0.001108    0.019937    1.584605
  H      3.257944   -1.110360   -0.713351
  H      2.467025   -0.791353   -2.279321
  H      1.785620   -2.003454   -1.165990
  H      1.244821   -0.228868    0.394433
  H      1.973531    0.878985   -0.580470
  H      0.310835    0.637026   -2.232578
  H     -0.309285   -0.777321   -1.375664
  H     -0.192999    2.046253   -0.179116
  H     -1.610646    1.393633   -0.966714
  H     -1.626126    1.291027    1.537473
  H     -1.821247   -1.447226    0.168028
  H     -3.114630   -0.241817    0.300475
  H     -2.487286   -1.023388    1.745368
  H     -0.217549   -0.352489    2.443993

FINAL SINGLE POINT ENERGY      -328.450745987272
                    ***********************HURRAY********************
 Multiplicity           Mult            ....    1
 Number of Electrons    NEL             ....   58
 Basis Dimension        Dim             ....  301
FINAL SINGLE POINT ENERGY      -328.450746179914

VIBRATIONAL FREQUENCIES
-----------------------

   0:         0.00 cm**-1
   1:         0.00 cm**-1
   2:         0.00 cm**-1
   3:         0.00 cm**-1
   4:         0.00 cm**-1
   5:         0.00 cm**-1
   6:        60.68 cm**-1
   7:       110.71 cm**-1
   8:       185.70 cm**-1
   9:       233.30 cm**-1
  10:       246.97 cm**-1
  11:       262.85 cm**-1
  12:       314.73 cm**-1
  13:       326.47 cm**-1
  14:       366.59 cm**-1
  15:       409.12 cm**-1
  16:       448.23 cm**-1
  17:       611.09 cm**-1
  18:       791.43 cm**-1
  19:       825.03 cm**-1
  20:       845.47 cm**-1
  21:       918.53 cm**-1
  22:       951.35 cm**-1
  23:       984.39 cm**-1
  24:      1009.34 cm**-1
  25:      1048.51 cm**-1
  26:      1077.48 cm**-1
  27:      1085.35 cm**-1
  28:      1142.02 cm**-1
  29:      1176.85 cm**-1
  30:      1186.88 cm**-1
  31:      1230.96 cm**-1
  32:      1295.84 cm**-1
  33:      1309.74 cm**-1
  34:      1368.62 cm**-1
  35:      1379.05 cm**-1
  36:      1401.47 cm**-1
  37:      1409.84 cm**-1
  38:      1420.19 cm**-1
  39:      1426.19 cm**-1
  40:      1455.14 cm**-1
  41:      1468.51 cm**-1
  42:      1473.49 cm**-1
  43:      1486.86 cm**-1
  44:      1489.74 cm**-1
  45:      1494.96 cm**-1
  46:      1500.39 cm**-1
  47:      1505.37 cm**-1
  48:      1668.27 cm**-1
  49:      3052.72 cm**-1
  50:      3057.18 cm**-1
  51:      3065.26 cm**-1
  52:      3089.32 cm**-1
  53:      3096.33 cm**-1
  54:      3124.25 cm**-1
  55:      3131.62 cm**-1
  56:      3139.14 cm**-1
  57:      3142.24 cm**-1
  58:      3155.05 cm**-1
  59:      3187.70 cm**-1
  60:      3190.48 cm**-1
  61:      3483.66 cm**-1
  62:      3855.62 cm**-1

IR SPECTRUM
-----------

 Mode    freq (cm**-1)   T**2         TX         TY         TZ
-------------------------------------------------------------------
   6:        60.68    1.978750  (  0.919754   1.064322  -0.004572)
   7:       110.71    1.933458  (  0.132233  -1.333515  -0.371093)
   8:       185.70    6.950493  ( -1.800930   0.159024   1.918816)
   9:       233.30    1.608319  (  0.835467   0.320195   0.898771)
  10:       246.97    3.477749  ( -1.750133  -0.629795   0.134686)
  11:       262.85   17.165924  (  3.552221   1.265779  -1.716232)
  12:       314.73   53.091387  ( -0.389443   4.288377   5.877886)
  13:       326.47   76.109245  ( -2.890986  -7.494867  -3.402707)
  14:       366.59    6.618992  ( -0.535905  -0.302316  -2.498080)
  15:       409.12   14.504015  (  0.258971  -3.799597  -0.003640)
  16:       448.23    9.670453  ( -2.497920  -1.406824   1.204863)
  17:       611.09    4.094271  ( -1.542185  -0.395168  -1.248911)
  18:       791.43    6.791327  ( -1.679217  -0.803034   1.823922)
  19:       825.03   12.403047  ( -0.680474   1.890785  -2.892220)
  20:       845.47    7.950972  (  0.595840   1.343600  -2.406384)
  21:       918.53   17.044690  ( -3.234925   0.706397  -2.465959)
  22:       951.35    5.612155  ( -1.847549  -0.249493   1.461667)
  23:       984.39    3.446618  (  1.855416   0.032818   0.054520)
  24:      1009.34    3.144640  ( -1.264937   0.016020   1.242706)
  25:      1048.51    5.390776  (  2.015871   0.855041  -0.771975)
  26:      1077.48   34.980910  (  5.264868  -2.611932   0.663241)
  27:      1085.35   11.242556  (  2.954484   0.293002   1.558118)
  28:      1142.02   66.932321  ( -6.541777   3.530471  -3.416613)
  29:      1176.85    0.081174  (  0.008239  -0.238942   0.154962)
  30:      1186.88    1.626853  (  0.660030   0.485134   0.977680)
  31:      1230.96   35.185750  ( -4.649205   0.329757  -3.669047)
  32:      1295.84   11.719437  (  3.090333  -0.577815   1.354773)
  33:      1309.74    3.026713  ( -0.229970  -1.416680  -0.983282)
  34:      1368.62    6.919787  (  2.030097  -0.422329  -1.618682)
  35:      1379.05    8.302048  (  2.874810  -0.098935   0.166517)
  36:      1401.47    4.734138  ( -0.611231   2.072402  -0.256288)
  37:      1409.84    5.863657  ( -0.858917   2.242875  -0.308916)
  38:      1420.19   11.078600  (  1.834154  -0.559307   2.720598)
  39:      1426.19   29.187183  (  5.037527   1.785369  -0.789281)
  40:      1455.14   35.172455  ( -5.360215   0.488582   2.490348)
  41:      1468.51   11.580324  (  1.930646   1.912726  -2.048026)
  42:      1473.49   62.612121  ( -6.564914   2.599592   3.571576)
  43:      1486.86    5.156621  ( -0.920910  -0.363234   2.043675)
  44:      1489.74    6.449562  (  1.445944   1.781419  -1.088739)
  45:      1494.96   20.668630  (  3.292606   0.979863  -2.977792)
  46:      1500.39   77.039571  (  8.412516  -2.489733   0.265285)
  47:      1505.37   31.120672  ( -0.789036   4.515092   3.179943)
  48:      1668.27   31.939916  (  1.094250   2.652308   4.869065)
  49:      3052.72    7.785740  ( -2.563527  -0.254864   1.071966)
  50:      3057.18    6.986606  (  0.979114  -2.288147  -0.890127)
  51:      3065.26   12.407744  (  0.223633  -3.372371  -0.992394)
  52:      3089.32   12.036873  ( -1.864303   0.508338   2.881465)
  53:      3096.33   27.465965  (  2.159011  -0.801722  -4.707640)
  54:      3124.25    5.719068  (  0.458047  -0.973758  -2.135663)
  55:      3131.62    6.283998  (  0.639806  -1.264606  -2.067708)
  56:      3139.14  285.981831  ( -9.591213   0.565652  13.916555)
  57:      3142.24  111.635403  ( -4.130166  -2.114054   9.492518)
  58:      3155.05   61.666337  ( -3.847257   1.182195   6.742949)
  59:      3187.70    6.765843  ( -1.318563   0.177294   2.235129)
  60:      3190.48    0.321355  ( -0.430958  -0.121160   0.347780)
  61:      3483.66   58.294493  ( -4.871625  -5.723333   1.343586)
  62:      3855.62   83.952155  (  0.084939  -3.195147   8.586965)

--------------------------
THERMOCHEMISTRY AT 298.15K
--------------------------

Temperature         ... 298.15 K
Pressure            ... 1.00 atm
Total Mass          ... 104.17 AMU

Throughout the following assumptions are being made:
  (1) The electronic state is orbitally nondegenerate
  (2) There are no thermally accessible electronically excited states
  (3) Hindered rotations indicated by low frequency modes) are not
      treated as such but are treated as vibrations and this may
      case some error
  (4) All equations used are the standard statistical mechanics
      equations for an ideal gas
  (5) All vibrations are strinctly harmonic

------------
INNER ENERGY
------------

The inner energy is: U= E(el) + E(ZPE) + E(vib) + E(rot) + E(trans)
    E(el)   - is the total energy from the electronic structure calculation
              = E(kin-el) + E(nuc-el) + E(el-el) + E(nuc-nuc)
    E(ZPE)  - the the zero temperature vibrational energy from the frequency calculation
    E(vib)  - the the finite temperature correction to E(ZPE) due to population
              of excietd vibrational states
    E(rot)  - is the rotational thermal energy
    E(trans)- is the translational thermal energy

Summary of contributions to the inner energy U:
Electronic energy                ...   -328.45074618 Eh
Zero point energy                ...      0.19859761 Eh     124.62 kcal/mol
Thermal vibrational correction   ...      0.00608943 Eh       3.82 kcal/mol
Thermal rotational correction    ...      0.00141627 Eh       0.89 kcal/mol
Thermal translational correction ...      0.00141627 Eh       0.89 kcal/mol
-----------------------------------------------------------------------
Total thermal energy                   -328.24322660 Eh

Summary of corrections to the electronic energy:
(perhaps to be used in another calculation)
Total thermal correction                  0.00892197 Eh       5.60 kcal/mol
Non-thermal (ZPE) correction              0.19859761 Eh     124.62 kcal/mol
-----------------------------------------------------------------------
Total correction                          0.20751958 Eh     130.22 kcal/mol

--------
ENTHALPY
--------

The enthalpy is H = U + kB*T
                kB is Boltzmann's constant
Total free energy                 ...   -328.24322660 Eh
Thermal Enthalpy correction       ...      0.00094421 Eh       0.59 kcal/mol
-----------------------------------------------------------------------
Total Enthalpy                    ...   -328.24228239 Eh

-------
ENTROPY
-------

The entropy contributions are T*S = T*(S(el)+S(vib)+S(rot)+S(trans)
     S(el)   - electronic entropy
     S(vib)  - vibrational entropy
     S(rot)  - rotational entropy
     S(trans)- translational entropy
The entropies will be listed as mutliplied by the temperature to get
units of energy

Electronic entropy                ...      0.00000000 Eh      0.00 kcal/mol
Vibrational entropy               ...      0.01080831 Eh      6.78 kcal/mol
Rotational entropy                ...      0.01226050 Eh      7.69 kcal/mol
Translational entropy             ...      0.01892914 Eh     11.88 kcal/mol
-----------------------------------------------------------------------
Final entropy term                ...      0.04199795 Eh     26.35 kcal/mol

CAUTION: The rotational entropy is not quite correctly treated here
         because it includes a symmetry number that is not yet correctly
         implemented in ORCA!
For a nonlinear molecule the correct rotational entropy is:
    S(rot) = R*(ln(qrot/sn)+1.5)
    R    = 8.31441 J/mol/K = 1.987191683e-3 kcal/mol/K
    qrot = 291834.7237427
    sn is the rotational symmetry number. We have assumed 3 here
       if it is different for your molecule then you should correct
       the printed rotational entropy by manually evaluating the equation
       as given above

For convenience we print out the resulting values for sn=1 - 12:
 sn= 1  qrot/sn=  291834.7237 T*S(rot)=     8.34 kcal/mol T*S(tot)=    27.00 kcal/mol
 sn= 2  qrot/sn=  145917.3619 T*S(rot)=     7.93 kcal/mol T*S(tot)=    26.59 kcal/mol
 sn= 3  qrot/sn=   97278.2412 T*S(rot)=     7.69 kcal/mol T*S(tot)=    26.35 kcal/mol
 sn= 4  qrot/sn=   72958.6809 T*S(rot)=     7.52 kcal/mol T*S(tot)=    26.18 kcal/mol
 sn= 5  qrot/sn=   58366.9447 T*S(rot)=     7.39 kcal/mol T*S(tot)=    26.05 kcal/mol
 sn= 6  qrot/sn=   48639.1206 T*S(rot)=     7.28 kcal/mol T*S(tot)=    25.94 kcal/mol
 sn= 7  qrot/sn=   41690.6748 T*S(rot)=     7.19 kcal/mol T*S(tot)=    25.85 kcal/mol
 sn= 8  qrot/sn=   36479.3405 T*S(rot)=     7.11 kcal/mol T*S(tot)=    25.77 kcal/mol
 sn= 9  qrot/sn=   32426.0804 T*S(rot)=     7.04 kcal/mol T*S(tot)=    25.70 kcal/mol
 sn=10  qrot/sn=   29183.4724 T*S(rot)=     6.98 kcal/mol T*S(tot)=    25.64 kcal/mol
 sn=11  qrot/sn=   26530.4294 T*S(rot)=     6.92 kcal/mol T*S(tot)=    25.58 kcal/mol
 sn=12  qrot/sn=   24319.5603 T*S(rot)=     6.87 kcal/mol T*S(tot)=    25.53 kcal/mol

-------------------
GIBBS FREE ENTHALPY
-------------------

The Gibbs free enthalpy is G = H - T*S

Total enthalpy                    ...   -328.24228239 Eh
Total entropy correction          ...     -0.04199795 Eh    -26.35 kcal/mol
-----------------------------------------------------------------------
Final Gibbs free enthalpy         ...   -328.28428035 Eh

For completeness - the Gibbs free enthalpy minus the electronic energy
G-E(el)                           ...      0.16646583 Eh    104.46 kcal/mol

                             ****ORCA TERMINATED NORMALLY****
TOTAL RUN TIME: 0 days 1 hours 3 minutes 36 seconds 226 msec
