                         Program Version 3.0.3 - RELEASE   -
|  1> ! NORI PBE0 def2-TZVP UseSym TightOPT Freq TightSCF Grid3 FinalGrid5 XYZFile
|  2> % pal
|  3>     nprocs 8
|  4> end
|  5> %method
|  6>     SymThresh 5.0e-2
|  7> end
|  8> % geom
|  9>     MaxIter 10
| 10> end
| 11> % maxcore 2000
| 12> % output
| 13>     printlevel mini
| 14>     print[ P_Basis ] 0
| 15>     print[ P_SCFInfo ] 1
| 16>     print[ P_SCFIterInfo ] 1
| 17>     print[ P_OrbEn ] 0
| 18>     print[ P_Cartesian ] 0
| 19> end
| 20> % elprop
| 21>     Dipole false
| 22> end
| 23> *xyz 1 1
| 24>  C        1.2698578203    -0.3940368347    -0.1770270774
| 25>  N        2.7363018050    -0.1616559777    -0.2970586463
| 26>  C        3.4419505417    -0.0378726681     1.0202605583
| 27>  C        4.9251349515     0.1921827504     0.8451514473
| 28>  C        5.5831819702     0.2818441537     2.2247935084
| 29>  C        7.0539802635     0.5382538344     2.2579903335
| 30>  O        4.8995223374     0.1477218387     3.2056755465
| 31>  H        0.8372715683    -0.4718659449    -1.1727042941
| 32>  H        0.8297110280     0.4429379874     0.3610986127
| 33>  H        1.1099157416    -1.3167627557     0.3769755974
| 34>  H        2.9001802420     0.6848096702    -0.8454390412
| 35>  H        3.1569147322    -0.9248595388    -0.8306745253
| 36>  H        3.2433888562    -0.9534922292     1.5770633172
| 37>  H        2.9694899768     0.7829850725     1.5596281432
| 38>  H        5.1353732633     1.1165334544     0.2943724166
| 39>  H        5.4018644691    -0.6217289343     0.2863852322
| 40>  H        7.5901206520    -0.2064532520     1.6634338194
| 41>  H        7.4093780143     0.5183860362     3.2857896303
| 42>  H        7.2728517669     1.5150233376     1.8157754212
| 43> *
| 44>
| 45>                          ****END OF INPUT****
 Total Charge           Charge          ....    1
 Multiplicity           Mult            ....    1
 Number of Electrons    NEL             ....   56
FINAL SINGLE POINT ENERGY      -327.228602850874

CARTESIAN COORDINATES (ANGSTROEM)
---------------------------------
  C      2.363296   -0.042485   -2.347539
  N      0.921533    0.000024   -1.975616
  C      0.674258   -0.025734   -0.496669
  C     -0.800667    0.022727   -0.171575
  C     -0.978575    0.018267    1.349456
  C     -2.379267    0.031127    1.867258
  O     -0.000730    0.001137    2.050235
  H      2.453876   -0.019951   -3.432044
  H      2.795867   -0.959084   -1.951950
  H      2.859232    0.821220   -1.909576
  H      0.437331   -0.788070   -2.409852
  H      0.495174    0.840320   -2.370889
  H      1.205353    0.823959   -0.068378
  H      1.140449   -0.932077   -0.110823
  H     -1.341920   -0.833156   -0.590966
  H     -1.278201    0.924073   -0.573351
  H     -2.936840    0.876059    1.453740
  H     -2.371111    0.088089    2.953570
  H     -2.901816   -0.878022    1.554141

FINAL SINGLE POINT ENERGY      -327.228603594806
                    ***********************HURRAY********************
 Multiplicity           Mult            ....    1
 Number of Electrons    NEL             ....   56
 Basis Dimension        Dim             ....  289
FINAL SINGLE POINT ENERGY      -327.228603916263

VIBRATIONAL FREQUENCIES
-----------------------

   0:         0.00 cm**-1
   1:         0.00 cm**-1
   2:         0.00 cm**-1
   3:         0.00 cm**-1
   4:         0.00 cm**-1
   5:         0.00 cm**-1
   6:        32.65 cm**-1
   7:        73.46 cm**-1
   8:        85.25 cm**-1
   9:       126.22 cm**-1
  10:       129.58 cm**-1
  11:       231.37 cm**-1
  12:       300.60 cm**-1
  13:       317.52 cm**-1
  14:       460.28 cm**-1
  15:       479.42 cm**-1
  16:       599.53 cm**-1
  17:       750.33 cm**-1
  18:       813.74 cm**-1
  19:       818.01 cm**-1
  20:       920.99 cm**-1
  21:       934.52 cm**-1
  22:       979.10 cm**-1
  23:      1026.84 cm**-1
  24:      1041.17 cm**-1
  25:      1085.85 cm**-1
  26:      1143.98 cm**-1
  27:      1165.52 cm**-1
  28:      1196.45 cm**-1
  29:      1278.62 cm**-1
  30:      1318.59 cm**-1
  31:      1329.97 cm**-1
  32:      1385.90 cm**-1
  33:      1392.87 cm**-1
  34:      1394.29 cm**-1
  35:      1423.68 cm**-1
  36:      1446.52 cm**-1
  37:      1458.61 cm**-1
  38:      1462.43 cm**-1
  39:      1468.31 cm**-1
  40:      1482.80 cm**-1
  41:      1492.88 cm**-1
  42:      1498.69 cm**-1
  43:      1657.91 cm**-1
  44:      1829.73 cm**-1
  45:      3044.61 cm**-1
  46:      3056.18 cm**-1
  47:      3088.77 cm**-1
  48:      3093.49 cm**-1
  49:      3115.05 cm**-1
  50:      3120.84 cm**-1
  51:      3171.79 cm**-1
  52:      3182.46 cm**-1
  53:      3194.61 cm**-1
  54:      3198.28 cm**-1
  55:      3443.51 cm**-1
  56:      3492.32 cm**-1

IR SPECTRUM
-----------

 Mode    freq (cm**-1)   T**2         TX         TY         TZ
-------------------------------------------------------------------
   7:        73.46    0.028506  (  0.019682  -0.157605  -0.057261)
   8:        85.25    0.132822  ( -0.006108  -0.362344   0.038619)
   9:       126.22    1.721397  (  0.165062   1.281586  -0.227355)
  10:       129.58    2.821086  ( -0.530491   0.273088   1.570060)
  11:       231.37    1.415575  (  0.048674   1.188499   0.025972)
  12:       300.60   10.568262  ( -0.248456  -0.014407   3.241346)
  13:       317.52   13.897078  ( -2.802742   0.041977   2.457632)
  14:       460.28    1.241658  (  0.880400  -0.003089  -0.683040)
  15:       479.42    0.035207  ( -0.123797  -0.021746   0.139313)
  16:       599.53   12.081167  (  2.152443  -0.029186  -2.728975)
  17:       750.33    7.965475  (  0.032167   2.821819   0.042175)
  18:       813.74    8.665122  (  0.057978   2.912887   0.420536)
  19:       818.01    8.322071  ( -1.019611  -0.422913   2.665260)
  20:       920.99   29.271757  (  2.564044   0.070393  -4.763662)
  21:       934.52    0.238287  (  0.025799   0.233795  -0.427739)
  22:       979.10    1.693596  (  0.941863   0.049749   0.896669)
  23:      1026.84   21.117733  (  3.701306  -0.124381  -2.720771)
  24:      1041.17    2.820865  (  0.200888   1.667176  -0.032144)
  25:      1085.85    0.411553  ( -0.627814   0.024791   0.129569)
  26:      1143.98    1.099776  (  0.160350   1.035988  -0.028150)
  27:      1165.52    0.009942  (  0.018983  -0.042645  -0.088110)
  28:      1196.45   69.661232  ( -4.810393  -0.003415   6.820655)
  29:      1278.62    0.037982  (  0.004057  -0.192982   0.026901)
  30:      1318.59   82.796033  (  3.240464  -0.097715  -8.502110)
  31:      1329.97    2.665841  (  0.183856   1.550312  -0.478090)
  32:      1385.90   23.390643  ( -4.819749  -0.102541  -0.387487)
  33:      1392.87    2.689516  (  1.204772   0.311174  -1.068275)
  34:      1394.29   61.256064  ( -5.110246  -0.185003   5.925135)
  35:      1423.68   36.208958  (  3.133993  -0.098282  -5.135892)
  36:      1446.52    8.154834  (  1.673191  -0.075565   2.312910)
  37:      1458.61    5.797061  ( -0.436977   0.403140  -2.333150)
  38:      1462.43   16.463475  ( -0.481856   4.017048   0.307592)
  39:      1468.31   12.204833  (  3.283680   0.314934   1.150260)
  40:      1482.80    9.887952  ( -3.008026   0.033856   0.915742)
  41:      1492.88   23.645249  ( -0.169610  -4.858499  -0.107107)
  42:      1498.69   29.516759  (  1.041232  -0.152721   5.330035)
  43:      1657.91   44.573727  ( -5.048495   0.286599  -4.359390)
  44:      1829.73  150.046259  ( 10.033998  -0.109709   7.025176)
  45:      3044.61    2.717144  (  1.631850  -0.079327   0.218898)
  46:      3056.18    2.318282  ( -0.186405  -0.067066   1.509648)
  47:      3088.77    1.506411  (  0.146783   1.216113   0.077043)
  48:      3093.49    0.002954  (  0.041764  -0.006297  -0.034205)
  49:      3115.05    1.744520  ( -0.813436   0.054833   1.039151)
  50:      3120.84    0.963249  ( -0.231672   0.949828  -0.086042)
  51:      3171.79    0.008292  ( -0.001727  -0.016626  -0.089513)
  52:      3182.46    0.324338  (  0.450852   0.078700  -0.338935)
  53:      3194.61    0.291363  ( -0.465213   0.028928  -0.272219)
  54:      3198.28    0.140846  ( -0.027791  -0.373618  -0.021992)
  55:      3443.51   40.427918  ( -4.049175   0.265550  -4.895057)
  56:      3492.32   68.709188  ( -0.304544  -8.280810  -0.211268)

--------------------------
THERMOCHEMISTRY AT 298.15K
--------------------------

Temperature         ... 298.15 K
Pressure            ... 1.00 atm
Total Mass          ... 102.16 AMU

Throughout the following assumptions are being made:
  (1) The electronic state is orbitally nondegenerate
  (2) There are no thermally accessible electronically excited states
  (3) Hindered rotations indicated by low frequency modes) are not
      treated as such but are treated as vibrations and this may
      case some error
  (4) All equations used are the standard statistical mechanics
      equations for an ideal gas
  (5) All vibrations are strinctly harmonic

------------
INNER ENERGY
------------

The inner energy is: U= E(el) + E(ZPE) + E(vib) + E(rot) + E(trans)
    E(el)   - is the total energy from the electronic structure calculation
              = E(kin-el) + E(nuc-el) + E(el-el) + E(nuc-nuc)
    E(ZPE)  - the the zero temperature vibrational energy from the frequency calculation
    E(vib)  - the the finite temperature correction to E(ZPE) due to population
              of excietd vibrational states
    E(rot)  - is the rotational thermal energy
    E(trans)- is the translational thermal energy

Summary of contributions to the inner energy U:
Electronic energy                ...   -327.22860392 Eh
Zero point energy                ...      0.17360425 Eh     108.94 kcal/mol
Thermal vibrational correction   ...      0.00553388 Eh       3.47 kcal/mol
Thermal rotational correction    ...      0.00141627 Eh       0.89 kcal/mol
Thermal translational correction ...      0.00141627 Eh       0.89 kcal/mol
-----------------------------------------------------------------------
Total thermal energy                   -327.04663324 Eh

Summary of corrections to the electronic energy:
(perhaps to be used in another calculation)
Total thermal correction                  0.00836643 Eh       5.25 kcal/mol
Non-thermal (ZPE) correction              0.17360425 Eh     108.94 kcal/mol
-----------------------------------------------------------------------
Total correction                          0.18197067 Eh     114.19 kcal/mol

--------
ENTHALPY
--------

The enthalpy is H = U + kB*T
                kB is Boltzmann's constant
Total free energy                 ...   -327.04663324 Eh
Thermal Enthalpy correction       ...      0.00094421 Eh       0.59 kcal/mol
-----------------------------------------------------------------------
Total Enthalpy                    ...   -327.04568903 Eh

-------
ENTROPY
-------

The entropy contributions are T*S = T*(S(el)+S(vib)+S(rot)+S(trans)
     S(el)   - electronic entropy
     S(vib)  - vibrational entropy
     S(rot)  - rotational entropy
     S(trans)- translational entropy
The entropies will be listed as mutliplied by the temperature to get
units of energy

Electronic entropy                ...      0.00000000 Eh      0.00 kcal/mol
Vibrational entropy               ...      0.01041937 Eh      6.54 kcal/mol
Rotational entropy                ...      0.01231182 Eh      7.73 kcal/mol
Translational entropy             ...      0.01890147 Eh     11.86 kcal/mol
-----------------------------------------------------------------------
Final entropy term                ...      0.04163266 Eh     26.12 kcal/mol

CAUTION: The rotational entropy is not quite correctly treated here
         because it includes a symmetry number that is not yet correctly
         implemented in ORCA!
For a nonlinear molecule the correct rotational entropy is:
    S(rot) = R*(ln(qrot/sn)+1.5)
    R    = 8.31441 J/mol/K = 1.987191683e-3 kcal/mol/K
    qrot = 308135.6714107
    sn is the rotational symmetry number. We have assumed 3 here
       if it is different for your molecule then you should correct
       the printed rotational entropy by manually evaluating the equation
       as given above

For convenience we print out the resulting values for sn=1 - 12:
 sn= 1  qrot/sn=  308135.6714 T*S(rot)=     8.38 kcal/mol T*S(tot)=    26.78 kcal/mol
 sn= 2  qrot/sn=  154067.8357 T*S(rot)=     7.97 kcal/mol T*S(tot)=    26.37 kcal/mol
 sn= 3  qrot/sn=  102711.8905 T*S(rot)=     7.73 kcal/mol T*S(tot)=    26.12 kcal/mol
 sn= 4  qrot/sn=   77033.9179 T*S(rot)=     7.56 kcal/mol T*S(tot)=    25.95 kcal/mol
 sn= 5  qrot/sn=   61627.1343 T*S(rot)=     7.42 kcal/mol T*S(tot)=    25.82 kcal/mol
 sn= 6  qrot/sn=   51355.9452 T*S(rot)=     7.32 kcal/mol T*S(tot)=    25.71 kcal/mol
 sn= 7  qrot/sn=   44019.3816 T*S(rot)=     7.22 kcal/mol T*S(tot)=    25.62 kcal/mol
 sn= 8  qrot/sn=   38516.9589 T*S(rot)=     7.14 kcal/mol T*S(tot)=    25.54 kcal/mol
 sn= 9  qrot/sn=   34237.2968 T*S(rot)=     7.07 kcal/mol T*S(tot)=    25.47 kcal/mol
 sn=10  qrot/sn=   30813.5671 T*S(rot)=     7.01 kcal/mol T*S(tot)=    25.41 kcal/mol
 sn=11  qrot/sn=   28012.3338 T*S(rot)=     6.96 kcal/mol T*S(tot)=    25.36 kcal/mol
 sn=12  qrot/sn=   25677.9726 T*S(rot)=     6.90 kcal/mol T*S(tot)=    25.30 kcal/mol

-------------------
GIBBS FREE ENTHALPY
-------------------

The Gibbs free enthalpy is G = H - T*S

Total enthalpy                    ...   -327.04568903 Eh
Total entropy correction          ...     -0.04163266 Eh    -26.12 kcal/mol
-----------------------------------------------------------------------
Final Gibbs free enthalpy         ...   -327.08732169 Eh

For completeness - the Gibbs free enthalpy minus the electronic energy
G-E(el)                           ...      0.14128223 Eh     88.66 kcal/mol

                             ****ORCA TERMINATED NORMALLY****
TOTAL RUN TIME: 0 days 0 hours 43 minutes 48 seconds 552 msec
