                         Program Version 3.0.3 - RELEASE   -
|  1> ! NORI PBE0 def2-TZVP UseSym TightOPT Freq TightSCF Grid3 FinalGrid5 XYZFile
|  2> % pal
|  3>     nprocs 8
|  4> end
|  5> %method
|  6>     SymThresh 5.0e-2
|  7> end
|  8> % geom
|  9>     MaxIter 10
| 10> end
| 11> % maxcore 2000
| 12> % output
| 13>     printlevel mini
| 14>     print[ P_Basis ] 0
| 15>     print[ P_SCFInfo ] 1
| 16>     print[ P_SCFIterInfo ] 1
| 17>     print[ P_OrbEn ] 0
| 18>     print[ P_Cartesian ] 0
| 19> end
| 20> % elprop
| 21>     Dipole false
| 22> end
| 23> *xyz 1 1
| 24>  C        0.9205371985     0.1376088522    -0.1979811155
| 25>  N        2.2853822917    -0.0735140786     0.3553305844
| 26>  C        2.3349639883     0.2212169026     1.8117949028
| 27>  C        2.8050633966    -1.4648012828     0.0609536683
| 28>  C        3.0737703284    -1.6786523744    -1.3838508640
| 29>  N        2.2393805607    -2.3879407728    -2.0289377630
| 30>  O        2.5798798054    -2.5552221784    -3.3201677690
| 31>  H        0.9199235984    -0.1221324401    -1.2539707262
| 32>  H        0.6425929827     1.1810518580    -0.0607320930
| 33>  H        0.2294618754    -0.5079055799     0.3414049947
| 34>  H        2.9100247368     0.5843821985    -0.1146376088
| 35>  H        1.7109404950    -0.5038469258     2.3318457907
| 36>  H        1.9570632289     1.2271516214     1.9857210618
| 37>  H        3.3638048041     0.1434411375     2.1584314557
| 38>  H        3.7136593076    -1.5824155648     0.6541906139
| 39>  H        2.0473820950    -2.1634369485     0.4164854233
| 40>  H        3.9728842775    -1.2766999384    -1.8531393045
| 41>  H        1.8992550289    -3.1357144858    -3.6824112516
| 42> *
| 43>
| 44>                          ****END OF INPUT****
 Total Charge           Charge          ....    1
 Multiplicity           Mult            ....    1
 Number of Electrons    NEL             ....   56
FINAL SINGLE POINT ENERGY      -343.199349156502
FINAL SINGLE POINT ENERGY      -343.199350732718
FINAL SINGLE POINT ENERGY      -343.199352104462
FINAL SINGLE POINT ENERGY      -343.199352915414

CARTESIAN COORDINATES (ANGSTROEM)
---------------------------------
  C      0.501269   -1.461082   -1.165282
  N      0.420366    0.001990   -1.423281
  C      0.032012    0.284661   -2.830614
  C     -0.505584    0.699451   -0.449490
  C      0.021782    0.697236    0.938577
  N     -0.529483   -0.093784    1.766613
  O     -0.009307   -0.003045    3.004585
  H      0.765234   -1.626188   -0.123347
  H      1.253491   -1.892838   -1.823046
  H     -0.474257   -1.898561   -1.372322
  H      1.354461    0.389745   -1.277136
  H     -0.979804   -0.085263   -2.989420
  H      0.722454   -0.225531   -3.499795
  H      0.067156    1.358864   -3.003844
  H     -0.629596    1.717638   -0.823569
  H     -1.461486    0.177475   -0.497685
  H      0.819420    1.379426    1.236393
  H     -0.533376   -0.612715    3.538493

FINAL SINGLE POINT ENERGY      -343.199353473088
                    ***********************HURRAY********************
 Multiplicity           Mult            ....    1
 Number of Electrons    NEL             ....   56
 Basis Dimension        Dim             ....  283
FINAL SINGLE POINT ENERGY      -343.199353637451

VIBRATIONAL FREQUENCIES
-----------------------

   0:         0.00 cm**-1
   1:         0.00 cm**-1
   2:         0.00 cm**-1
   3:         0.00 cm**-1
   4:         0.00 cm**-1
   5:         0.00 cm**-1
   6:        57.24 cm**-1
   7:        85.72 cm**-1
   8:       185.54 cm**-1
   9:       208.90 cm**-1
  10:       249.96 cm**-1
  11:       312.92 cm**-1
  12:       351.17 cm**-1
  13:       354.81 cm**-1
  14:       442.21 cm**-1
  15:       458.56 cm**-1
  16:       545.20 cm**-1
  17:       623.61 cm**-1
  18:       830.95 cm**-1
  19:       922.65 cm**-1
  20:       939.97 cm**-1
  21:       962.56 cm**-1
  22:      1025.75 cm**-1
  23:      1050.93 cm**-1
  24:      1088.34 cm**-1
  25:      1142.08 cm**-1
  26:      1167.52 cm**-1
  27:      1200.87 cm**-1
  28:      1249.56 cm**-1
  29:      1294.10 cm**-1
  30:      1311.83 cm**-1
  31:      1375.03 cm**-1
  32:      1420.13 cm**-1
  33:      1424.15 cm**-1
  34:      1442.25 cm**-1
  35:      1456.13 cm**-1
  36:      1471.61 cm**-1
  37:      1473.64 cm**-1
  38:      1482.58 cm**-1
  39:      1489.50 cm**-1
  40:      1498.46 cm**-1
  41:      1505.22 cm**-1
  42:      1727.04 cm**-1
  43:      3087.12 cm**-1
  44:      3091.24 cm**-1
  45:      3094.06 cm**-1
  46:      3128.01 cm**-1
  47:      3161.74 cm**-1
  48:      3187.73 cm**-1
  49:      3188.92 cm**-1
  50:      3190.58 cm**-1
  51:      3199.92 cm**-1
  52:      3453.96 cm**-1
  53:      3816.01 cm**-1

IR SPECTRUM
-----------

 Mode    freq (cm**-1)   T**2         TX         TY         TZ
-------------------------------------------------------------------
   6:        57.24    0.792218  (  0.186882   0.354697  -0.794659)
   7:        85.72    0.956400  (  0.072613  -0.148085  -0.963949)
   8:       185.54    0.192996  (  0.202051   0.384008  -0.068619)
   9:       208.90    0.136346  ( -0.077466   0.338607   0.125261)
  10:       249.96    0.196346  ( -0.426562  -0.095882   0.072098)
  11:       312.92    3.249128  ( -0.028984   1.527310  -0.956877)
  12:       351.17    4.052636  (  1.461021   0.104114  -1.381019)
  13:       354.81    1.711919  ( -0.882643  -0.556325  -0.789533)
  14:       442.21    0.171779  ( -0.097313  -0.397729   0.064197)
  15:       458.56    3.180978  (  0.261303  -0.192073   1.753798)
  16:       545.20  145.648051  ( -7.592158   8.956091   2.792063)
  17:       623.61   13.535760  ( -1.861931   0.008929  -3.173152)
  18:       830.95    3.175405  ( -1.040140  -0.486211   1.362759)
  19:       922.65   24.531989  (  2.191828  -1.576234  -4.152513)
  20:       939.97   54.054567  ( -0.559961   1.774467   7.112825)
  21:       962.56   32.125203  ( -2.494189   2.254091   4.563255)
  22:      1025.75   23.955841  ( -1.398593   3.476988  -3.148068)
  23:      1050.93    2.432248  (  0.106075  -0.957418   1.226518)
  24:      1088.34   13.536308  (  0.116787  -2.277757   2.886952)
  25:      1142.08  126.364989  (  0.255018   3.087749 -10.805821)
  26:      1167.52   11.656119  (  1.461008  -0.038440  -3.085465)
  27:      1200.87   18.433106  ( -1.120424  -1.575207   3.833599)
  28:      1249.56    1.814781  (  0.095751  -0.219789   1.325634)
  29:      1294.10   50.158922  (  2.731012   1.236912   6.416428)
  30:      1311.83   15.833473  ( -0.212220   0.462149  -3.946499)
  31:      1375.03   11.735800  (  1.225192   0.093807   3.197797)
  32:      1420.13   10.985237  (  1.095357   0.151718  -3.124486)
  33:      1424.15    6.321953  ( -0.422037   2.072615   1.359451)
  34:      1442.25    6.473033  (  0.631041  -2.406634   0.531913)
  35:      1456.13   38.098477  (  1.910435  -1.316966   5.719643)
  36:      1471.61   30.631326  (  0.081311   1.358874  -5.364529)
  37:      1473.64   14.995234  ( -0.786214  -2.185731  -3.098335)
  38:      1482.58    5.280612  (  0.735016   1.111865  -1.871929)
  39:      1489.50   28.806957  (  2.310895  -1.875371   4.466510)
  40:      1498.46   21.437469  (  1.833753   3.964079   1.536522)
  41:      1505.22   50.544956  ( -6.505809   1.555558   2.408244)
  42:      1727.04   26.794461  (  0.309971   0.551039  -5.137581)
  43:      3087.12    0.063243  (  0.087023  -0.139601  -0.190215)
  44:      3091.24    0.296825  ( -0.137618   0.521700   0.075600)
  45:      3094.06    2.476863  (  0.071928   0.438750  -1.509698)
  46:      3128.01    0.994928  ( -0.774366  -0.390145  -0.493025)
  47:      3161.74    0.378693  (  0.324942   0.038747  -0.521157)
  48:      3187.73    0.137970  (  0.105625  -0.315248   0.165626)
  49:      3188.92    0.085987  (  0.022734  -0.147813  -0.252233)
  50:      3190.58    0.061383  ( -0.013882   0.181891   0.167648)
  51:      3199.92    0.688444  (  0.160334  -0.468645  -0.665665)
  52:      3453.96   49.346920  (  6.482091   2.657546   0.516589)
  53:      3816.01  204.726130  ( -4.930715  -6.749217  11.613021)

--------------------------
THERMOCHEMISTRY AT 298.15K
--------------------------

Temperature         ... 298.15 K
Pressure            ... 1.00 atm
Total Mass          ... 103.14 AMU

Throughout the following assumptions are being made:
  (1) The electronic state is orbitally nondegenerate
  (2) There are no thermally accessible electronically excited states
  (3) Hindered rotations indicated by low frequency modes) are not
      treated as such but are treated as vibrations and this may
      case some error
  (4) All equations used are the standard statistical mechanics
      equations for an ideal gas
  (5) All vibrations are strinctly harmonic

------------
INNER ENERGY
------------

The inner energy is: U= E(el) + E(ZPE) + E(vib) + E(rot) + E(trans)
    E(el)   - is the total energy from the electronic structure calculation
              = E(kin-el) + E(nuc-el) + E(el-el) + E(nuc-nuc)
    E(ZPE)  - the the zero temperature vibrational energy from the frequency calculation
    E(vib)  - the the finite temperature correction to E(ZPE) due to population
              of excietd vibrational states
    E(rot)  - is the rotational thermal energy
    E(trans)- is the translational thermal energy

Summary of contributions to the inner energy U:
Electronic energy                ...   -343.19935364 Eh
Zero point energy                ...      0.16272490 Eh     102.11 kcal/mol
Thermal vibrational correction   ...      0.00564504 Eh       3.54 kcal/mol
Thermal rotational correction    ...      0.00141627 Eh       0.89 kcal/mol
Thermal translational correction ...      0.00141627 Eh       0.89 kcal/mol
-----------------------------------------------------------------------
Total thermal energy                   -343.02815115 Eh

Summary of corrections to the electronic energy:
(perhaps to be used in another calculation)
Total thermal correction                  0.00847758 Eh       5.32 kcal/mol
Non-thermal (ZPE) correction              0.16272490 Eh     102.11 kcal/mol
-----------------------------------------------------------------------
Total correction                          0.17120248 Eh     107.43 kcal/mol

--------
ENTHALPY
--------

The enthalpy is H = U + kB*T
                kB is Boltzmann's constant
Total free energy                 ...   -343.02815115 Eh
Thermal Enthalpy correction       ...      0.00094421 Eh       0.59 kcal/mol
-----------------------------------------------------------------------
Total Enthalpy                    ...   -343.02720695 Eh

-------
ENTROPY
-------

The entropy contributions are T*S = T*(S(el)+S(vib)+S(rot)+S(trans)
     S(el)   - electronic entropy
     S(vib)  - vibrational entropy
     S(rot)  - rotational entropy
     S(trans)- translational entropy
The entropies will be listed as mutliplied by the temperature to get
units of energy

Electronic entropy                ...      0.00000000 Eh      0.00 kcal/mol
Vibrational entropy               ...      0.01032186 Eh      6.48 kcal/mol
Rotational entropy                ...      0.01224253 Eh      7.68 kcal/mol
Translational entropy             ...      0.01891510 Eh     11.87 kcal/mol
-----------------------------------------------------------------------
Final entropy term                ...      0.04147949 Eh     26.03 kcal/mol

CAUTION: The rotational entropy is not quite correctly treated here
         because it includes a symmetry number that is not yet correctly
         implemented in ORCA!
For a nonlinear molecule the correct rotational entropy is:
    S(rot) = R*(ln(qrot/sn)+1.5)
    R    = 8.31441 J/mol/K = 1.987191683e-3 kcal/mol/K
    qrot = 286333.4813771
    sn is the rotational symmetry number. We have assumed 3 here
       if it is different for your molecule then you should correct
       the printed rotational entropy by manually evaluating the equation
       as given above

For convenience we print out the resulting values for sn=1 - 12:
 sn= 1  qrot/sn=  286333.4814 T*S(rot)=     8.33 kcal/mol T*S(tot)=    26.68 kcal/mol
 sn= 2  qrot/sn=  143166.7407 T*S(rot)=     7.92 kcal/mol T*S(tot)=    26.27 kcal/mol
 sn= 3  qrot/sn=   95444.4938 T*S(rot)=     7.68 kcal/mol T*S(tot)=    26.03 kcal/mol
 sn= 4  qrot/sn=   71583.3703 T*S(rot)=     7.51 kcal/mol T*S(tot)=    25.86 kcal/mol
 sn= 5  qrot/sn=   57266.6963 T*S(rot)=     7.38 kcal/mol T*S(tot)=    25.73 kcal/mol
 sn= 6  qrot/sn=   47722.2469 T*S(rot)=     7.27 kcal/mol T*S(tot)=    25.62 kcal/mol
 sn= 7  qrot/sn=   40904.7831 T*S(rot)=     7.18 kcal/mol T*S(tot)=    25.53 kcal/mol
 sn= 8  qrot/sn=   35791.6852 T*S(rot)=     7.10 kcal/mol T*S(tot)=    25.45 kcal/mol
 sn= 9  qrot/sn=   31814.8313 T*S(rot)=     7.03 kcal/mol T*S(tot)=    25.38 kcal/mol
 sn=10  qrot/sn=   28633.3481 T*S(rot)=     6.97 kcal/mol T*S(tot)=    25.32 kcal/mol
 sn=11  qrot/sn=   26030.3165 T*S(rot)=     6.91 kcal/mol T*S(tot)=    25.26 kcal/mol
 sn=12  qrot/sn=   23861.1234 T*S(rot)=     6.86 kcal/mol T*S(tot)=    25.21 kcal/mol

-------------------
GIBBS FREE ENTHALPY
-------------------

The Gibbs free enthalpy is G = H - T*S

Total enthalpy                    ...   -343.02720695 Eh
Total entropy correction          ...     -0.04147949 Eh    -26.03 kcal/mol
-----------------------------------------------------------------------
Final Gibbs free enthalpy         ...   -343.06868643 Eh

For completeness - the Gibbs free enthalpy minus the electronic energy
G-E(el)                           ...      0.13066720 Eh     81.99 kcal/mol

                             ****ORCA TERMINATED NORMALLY****
TOTAL RUN TIME: 0 days 0 hours 49 minutes 22 seconds 792 msec
