                         Program Version 3.0.3 - RELEASE   -
|  1> ! NORI PBE0 def2-TZVP UseSym TightOPT Freq TightSCF Grid3 FinalGrid5 XYZFile
|  2> % pal
|  3>     nprocs 8
|  4> end
|  5> %method
|  6>     SymThresh 5.0e-2
|  7> end
|  8> % geom
|  9>     MaxIter 10
| 10> end
| 11> % maxcore 2000
| 12> % output
| 13>     printlevel mini
| 14>     print[ P_Basis ] 0
| 15>     print[ P_SCFInfo ] 1
| 16>     print[ P_SCFIterInfo ] 1
| 17>     print[ P_OrbEn ] 0
| 18>     print[ P_Cartesian ] 0
| 19> end
| 20> % elprop
| 21>     Dipole false
| 22> end
| 23> *xyz 1 1
| 24>  C        1.3670623224    -0.7133303873    -0.4752060666
| 25>  N        2.2512486321     0.4228909939    -0.8252850883
| 26>  C        1.6592067596     1.2993652685    -1.8672337560
| 27>  C        2.7427934244     1.1878229002     0.3486466174
| 28>  C        4.2576496210     1.3117739939     0.1410616908
| 29>  N        4.9231514344     2.0977031866     0.9797954103
| 30>  O        4.7556790043     0.6705685382    -0.7688438460
| 31>  H        1.1244999607    -1.2608490895    -1.3842455835
| 32>  H        0.4541285277    -0.3329003468    -0.0192352309
| 33>  H        1.8890631929    -1.3701033827     0.2188738607
| 34>  H        3.1636819137     0.0700838433    -1.2072729652
| 35>  H        0.7371779265     1.7365020916    -1.4865709778
| 36>  H        1.4489123980     0.7004485129    -2.7512927693
| 37>  H        2.3753418240     2.0797258263    -2.1186974954
| 38>  H        2.5373343109     0.6279809766     1.2620678852
| 39>  H        2.2430794110     2.1544203662     0.4075915952
| 40>  H        4.4733750832     2.6064031423     1.7214758467
| 41>  H        5.9248642534     2.1715135659     0.8856508726
| 42> *
| 43>
| 44>                          ****END OF INPUT****
 Total Charge           Charge          ....    1
 Multiplicity           Mult            ....    1
 Number of Electrons    NEL             ....   56
FINAL SINGLE POINT ENERGY      -343.295112723124
FINAL SINGLE POINT ENERGY      -343.295114778134
FINAL SINGLE POINT ENERGY      -343.295116535561
FINAL SINGLE POINT ENERGY      -343.295117632393
FINAL SINGLE POINT ENERGY      -343.295118829379

CARTESIAN COORDINATES (ANGSTROEM)
---------------------------------
  C      1.590130   -1.036496   -1.444000
  N      0.877704    0.009951   -0.673940
  C      1.235665    1.380320   -1.118391
  C     -0.590363   -0.198303   -0.592625
  C     -0.929993   -0.084483    0.899198
  N     -2.215638   -0.087030    1.231461
  O      0.000821   -0.016502    1.684462
  H      2.660379   -0.845807   -1.386792
  H      1.264962   -1.004785   -2.483109
  H      1.369084   -2.010345   -1.010011
  H      1.125707   -0.059447    0.345182
  H      0.933195    1.511027   -2.156637
  H      2.312533    1.508949   -1.026277
  H      0.727548    2.101982   -0.480814
  H     -0.839299   -1.196967   -0.954268
  H     -1.113354    0.537633   -1.203019
  H     -2.953216   -0.142629    0.550191
  H     -2.465805   -0.048753    2.207947

FINAL SINGLE POINT ENERGY      -343.295119829302
                    ***********************HURRAY********************
 Multiplicity           Mult            ....    1
 Number of Electrons    NEL             ....   56
 Basis Dimension        Dim             ....  283
FINAL SINGLE POINT ENERGY      -343.295120807122

VIBRATIONAL FREQUENCIES
-----------------------

   0:         0.00 cm**-1
   1:         0.00 cm**-1
   2:         0.00 cm**-1
   3:         0.00 cm**-1
   4:         0.00 cm**-1
   5:         0.00 cm**-1
   6:        32.65 cm**-1
   7:       103.79 cm**-1
   8:       213.21 cm**-1
   9:       227.97 cm**-1
  10:       265.78 cm**-1
  11:       339.09 cm**-1
  12:       396.52 cm**-1
  13:       432.27 cm**-1
  14:       466.74 cm**-1
  15:       480.07 cm**-1
  16:       510.36 cm**-1
  17:       646.90 cm**-1
  18:       666.59 cm**-1
  19:       848.07 cm**-1
  20:       892.14 cm**-1
  21:       976.11 cm**-1
  22:      1027.85 cm**-1
  23:      1038.98 cm**-1
  24:      1069.17 cm**-1
  25:      1114.70 cm**-1
  26:      1152.08 cm**-1
  27:      1222.86 cm**-1
  28:      1262.09 cm**-1
  29:      1295.17 cm**-1
  30:      1311.66 cm**-1
  31:      1402.18 cm**-1
  32:      1442.37 cm**-1
  33:      1453.61 cm**-1
  34:      1464.18 cm**-1
  35:      1473.68 cm**-1
  36:      1479.79 cm**-1
  37:      1493.99 cm**-1
  38:      1504.19 cm**-1
  39:      1507.62 cm**-1
  40:      1526.94 cm**-1
  41:      1639.62 cm**-1
  42:      1807.71 cm**-1
  43:      3013.33 cm**-1
  44:      3083.97 cm**-1
  45:      3087.14 cm**-1
  46:      3104.55 cm**-1
  47:      3162.15 cm**-1
  48:      3183.13 cm**-1
  49:      3185.22 cm**-1
  50:      3186.12 cm**-1
  51:      3189.32 cm**-1
  52:      3594.89 cm**-1
  53:      3721.51 cm**-1

IR SPECTRUM
-----------

 Mode    freq (cm**-1)   T**2         TX         TY         TZ
-------------------------------------------------------------------
   7:       103.79   11.015118  (  0.453189  -3.285562  -0.121744)
   8:       213.21   27.765991  ( -3.059962  -0.367736   4.274037)
   9:       227.97    3.295012  (  1.050005   0.220419  -1.464212)
  10:       265.78    8.719528  (  1.773508   0.118422  -2.358002)
  11:       339.09    1.280260  ( -1.000529  -0.034993  -0.527236)
  12:       396.52    2.904346  (  0.687750  -1.147057  -1.056222)
  13:       432.27  127.850504  ( -0.154732  11.286221  -0.669160)
  14:       466.74   11.750234  ( -3.015786   1.435486   0.771135)
  15:       480.07   22.119054  ( -3.225670   1.133437   3.229463)
  16:       510.36   59.157171  (  0.653092   7.578915  -1.136087)
  17:       646.90   17.539441  ( -2.296088   1.037990   3.345146)
  18:       666.59   15.297252  ( -0.246304  -3.815246   0.824915)
  19:       848.07   13.890228  ( -3.015408  -0.099198   2.188082)
  20:       892.14    4.383748  (  1.921717  -0.613357   0.560842)
  21:       976.11   12.411008  (  0.760008   3.438251  -0.108760)
  22:      1027.85   11.377072  (  3.030017   1.319007  -0.675492)
  23:      1038.98    8.601323  (  1.085844  -2.688159  -0.442795)
  24:      1069.17    3.651084  ( -1.357126   0.684701   1.157790)
  25:      1114.70    7.279702  (  2.512183   0.111053  -0.977908)
  26:      1152.08    1.846112  ( -0.843022  -0.800297   0.703527)
  27:      1222.86    4.328443  ( -0.730710   0.523687   1.876235)
  28:      1262.09   36.699804  (  4.767613  -0.127681  -3.735421)
  29:      1295.17    1.349984  (  0.261734  -1.037633  -0.452546)
  30:      1311.66    4.037161  ( -1.179657  -0.487895   1.551622)
  31:      1402.18  288.485776  (-14.093040  -0.087008   9.479685)
  32:      1442.37    4.174006  (  0.632105  -1.775888  -0.787826)
  33:      1453.61   42.062325  ( -0.522424  -0.143703  -6.462875)
  34:      1464.18    9.722286  (  2.986628   0.257529  -0.857916)
  35:      1473.68    4.450687  (  2.012984  -0.174174   0.606831)
  36:      1479.79    4.082363  (  0.233320  -1.988857  -0.269024)
  37:      1493.99   13.786470  ( -2.602852  -0.875385  -2.499066)
  38:      1504.19   17.809077  (  0.476070  -1.133431   4.037050)
  39:      1507.62   42.894218  (  6.020004  -1.058710  -2.352213)
  40:      1526.94   34.115655  ( -3.444283  -4.716132  -0.103272)
  41:      1639.62  105.633864  (  8.406571  -0.033914  -5.912891)
  42:      1807.71  315.377120  (-17.099151  -0.678815  -4.747143)
  43:      3013.33  376.540604  ( -5.861634  -1.128938  18.463676)
  44:      3083.97    0.536232  (  0.203321  -0.688860  -0.142702)
  45:      3087.14    1.755575  (  0.414598   0.092256  -1.255059)
  46:      3104.55   10.934449  ( -1.403050   0.067786   2.993544)
  47:      3162.15    1.139509  ( -0.065691  -1.038669   0.237401)
  48:      3183.13    0.071670  (  0.130459  -0.073128  -0.222043)
  49:      3185.22    0.789287  ( -0.368152   0.003238   0.808542)
  50:      3186.12    0.035651  (  0.132224  -0.072030  -0.113926)
  51:      3189.32    0.547041  (  0.458054   0.128528  -0.566311)
  52:      3594.89  133.534902  ( 10.172959   0.069831  -5.480961)
  53:      3721.51   95.437221  (  3.410981   0.512175   9.140028)

--------------------------
THERMOCHEMISTRY AT 298.15K
--------------------------

Temperature         ... 298.15 K
Pressure            ... 1.00 atm
Total Mass          ... 103.14 AMU

Throughout the following assumptions are being made:
  (1) The electronic state is orbitally nondegenerate
  (2) There are no thermally accessible electronically excited states
  (3) Hindered rotations indicated by low frequency modes) are not
      treated as such but are treated as vibrations and this may
      case some error
  (4) All equations used are the standard statistical mechanics
      equations for an ideal gas
  (5) All vibrations are strinctly harmonic

------------
INNER ENERGY
------------

The inner energy is: U= E(el) + E(ZPE) + E(vib) + E(rot) + E(trans)
    E(el)   - is the total energy from the electronic structure calculation
              = E(kin-el) + E(nuc-el) + E(el-el) + E(nuc-nuc)
    E(ZPE)  - the the zero temperature vibrational energy from the frequency calculation
    E(vib)  - the the finite temperature correction to E(ZPE) due to population
              of excietd vibrational states
    E(rot)  - is the rotational thermal energy
    E(trans)- is the translational thermal energy

Summary of contributions to the inner energy U:
Electronic energy                ...   -343.29512081 Eh
Zero point energy                ...      0.16327029 Eh     102.45 kcal/mol
Thermal vibrational correction   ...      0.00459289 Eh       2.88 kcal/mol
Thermal rotational correction    ...      0.00141627 Eh       0.89 kcal/mol
Thermal translational correction ...      0.00141627 Eh       0.89 kcal/mol
-----------------------------------------------------------------------
Total thermal energy                   -343.12442508 Eh

Summary of corrections to the electronic energy:
(perhaps to be used in another calculation)
Total thermal correction                  0.00742543 Eh       4.66 kcal/mol
Non-thermal (ZPE) correction              0.16327029 Eh     102.45 kcal/mol
-----------------------------------------------------------------------
Total correction                          0.17069573 Eh     107.11 kcal/mol

--------
ENTHALPY
--------

The enthalpy is H = U + kB*T
                kB is Boltzmann's constant
Total free energy                 ...   -343.12442508 Eh
Thermal Enthalpy correction       ...      0.00094421 Eh       0.59 kcal/mol
-----------------------------------------------------------------------
Total Enthalpy                    ...   -343.12348087 Eh

-------
ENTROPY
-------

The entropy contributions are T*S = T*(S(el)+S(vib)+S(rot)+S(trans)
     S(el)   - electronic entropy
     S(vib)  - vibrational entropy
     S(rot)  - rotational entropy
     S(trans)- translational entropy
The entropies will be listed as mutliplied by the temperature to get
units of energy

Electronic entropy                ...      0.00000000 Eh      0.00 kcal/mol
Vibrational entropy               ...      0.00750743 Eh      4.71 kcal/mol
Rotational entropy                ...      0.01213308 Eh      7.61 kcal/mol
Translational entropy             ...      0.01891510 Eh     11.87 kcal/mol
-----------------------------------------------------------------------
Final entropy term                ...      0.03855560 Eh     24.19 kcal/mol

CAUTION: The rotational entropy is not quite correctly treated here
         because it includes a symmetry number that is not yet correctly
         implemented in ORCA!
For a nonlinear molecule the correct rotational entropy is:
    S(rot) = R*(ln(qrot/sn)+1.5)
    R    = 8.31441 J/mol/K = 1.987191683e-3 kcal/mol/K
    qrot = 254990.9511046
    sn is the rotational symmetry number. We have assumed 3 here
       if it is different for your molecule then you should correct
       the printed rotational entropy by manually evaluating the equation
       as given above

For convenience we print out the resulting values for sn=1 - 12:
 sn= 1  qrot/sn=  254990.9511 T*S(rot)=     8.26 kcal/mol T*S(tot)=    24.84 kcal/mol
 sn= 2  qrot/sn=  127495.4756 T*S(rot)=     7.85 kcal/mol T*S(tot)=    24.43 kcal/mol
 sn= 3  qrot/sn=   84996.9837 T*S(rot)=     7.61 kcal/mol T*S(tot)=    24.19 kcal/mol
 sn= 4  qrot/sn=   63747.7378 T*S(rot)=     7.44 kcal/mol T*S(tot)=    24.02 kcal/mol
 sn= 5  qrot/sn=   50998.1902 T*S(rot)=     7.31 kcal/mol T*S(tot)=    23.89 kcal/mol
 sn= 6  qrot/sn=   42498.4919 T*S(rot)=     7.20 kcal/mol T*S(tot)=    23.78 kcal/mol
 sn= 7  qrot/sn=   36427.2787 T*S(rot)=     7.11 kcal/mol T*S(tot)=    23.69 kcal/mol
 sn= 8  qrot/sn=   31873.8689 T*S(rot)=     7.03 kcal/mol T*S(tot)=    23.61 kcal/mol
 sn= 9  qrot/sn=   28332.3279 T*S(rot)=     6.96 kcal/mol T*S(tot)=    23.54 kcal/mol
 sn=10  qrot/sn=   25499.0951 T*S(rot)=     6.90 kcal/mol T*S(tot)=    23.48 kcal/mol
 sn=11  qrot/sn=   23180.9956 T*S(rot)=     6.84 kcal/mol T*S(tot)=    23.42 kcal/mol
 sn=12  qrot/sn=   21249.2459 T*S(rot)=     6.79 kcal/mol T*S(tot)=    23.37 kcal/mol

-------------------
GIBBS FREE ENTHALPY
-------------------

The Gibbs free enthalpy is G = H - T*S

Total enthalpy                    ...   -343.12348087 Eh
Total entropy correction          ...     -0.03855560 Eh    -24.19 kcal/mol
-----------------------------------------------------------------------
Final Gibbs free enthalpy         ...   -343.16203647 Eh

For completeness - the Gibbs free enthalpy minus the electronic energy
G-E(el)                           ...      0.13308434 Eh     83.51 kcal/mol

                             ****ORCA TERMINATED NORMALLY****
TOTAL RUN TIME: 0 days 0 hours 52 minutes 49 seconds 975 msec
