                         Program Version 3.0.3 - RELEASE   -
|  1> ! NORI PBE0 def2-TZVP UseSym TightOPT Freq TightSCF Grid3 FinalGrid5 XYZFile
|  2> % pal
|  3>     nprocs 8
|  4> end
|  5> %method
|  6>     SymThresh 5.0e-2
|  7> end
|  8> % geom
|  9>     MaxIter 10
| 10> end
| 11> % maxcore 2000
| 12> % output
| 13>     printlevel mini
| 14>     print[ P_Basis ] 0
| 15>     print[ P_SCFInfo ] 1
| 16>     print[ P_SCFIterInfo ] 1
| 17>     print[ P_OrbEn ] 0
| 18>     print[ P_Cartesian ] 0
| 19> end
| 20> % elprop
| 21>     Dipole false
| 22> end
| 23> *xyz 1 1
| 24>  C        1.4041625482    -0.0411779348    -0.1795335192
| 25>  N        2.7072521489    -0.6594090372     0.1612689211
| 26>  C        2.9624371147    -0.8676219968     1.6305082216
| 27>  C        2.5770351781    -2.2694044553     2.0583428559
| 28>  C        4.4058673892    -0.5415085648     1.8840694900
| 29>  N        5.0738356291    -0.0431188095     0.9328393103
| 30>  O        6.3571408606     0.2445431319     1.2408788080
| 31>  H        1.3117040111     0.0169713792    -1.2628065357
| 32>  H        1.3709319778     0.9584994861     0.2480553028
| 33>  H        0.5991716708    -0.6492128806     0.2285236352
| 34>  H        3.5084400764    -0.0871673191    -0.1666009810
| 35>  H        2.8004896669    -1.5593264684    -0.3117954458
| 36>  H        2.3366261054    -0.1359160475     2.1518330120
| 37>  H        3.1846332858    -3.0208887286     1.5480709732
| 38>  H        1.5203242998    -2.4693398704     1.8701053418
| 39>  H        2.7437088356    -2.3811590298     3.1307308290
| 40>  H        4.8258132603    -0.7249627844     2.8716341108
| 41>  H        6.7386659413     0.6042299298     0.4313756702
| 42> *
| 43>
| 44>                          ****END OF INPUT****
 Total Charge           Charge          ....    1
 Multiplicity           Mult            ....    1
 Number of Electrons    NEL             ....   56
FINAL SINGLE POINT ENERGY      -343.213777904086

CARTESIAN COORDINATES (ANGSTROEM)
---------------------------------
  C      1.381486    0.880839   -2.073899
  N      0.880745   -0.000095   -0.992332
  C     -0.598481    0.079232   -0.722700
  C     -1.349352   -1.000138   -1.475825
  C     -0.786246    0.009254    0.765188
  N      0.247640    0.045586    1.492471
  O     -0.000473   -0.000070    2.819413
  H      2.447328    0.705165   -2.209441
  H      1.211580    1.916364   -1.786265
  H      0.849299    0.657131   -2.996602
  H      1.326681    0.210798   -0.079313
  H      1.118210   -0.971980   -1.196148
  H     -0.916558    1.066244   -1.074640
  H     -1.047324   -1.997555   -1.145741
  H     -1.199730   -0.914566   -2.553861
  H     -2.418753   -0.898533   -1.286594
  H     -1.794694   -0.052878    1.170490
  H      0.866336    0.026682    3.241452

FINAL SINGLE POINT ENERGY      -343.213778620553
                    ***********************HURRAY********************
 Multiplicity           Mult            ....    1
 Number of Electrons    NEL             ....   56
 Basis Dimension        Dim             ....  283
FINAL SINGLE POINT ENERGY      -343.213778840862

VIBRATIONAL FREQUENCIES
-----------------------

   0:         0.00 cm**-1
   1:         0.00 cm**-1
   2:         0.00 cm**-1
   3:         0.00 cm**-1
   4:         0.00 cm**-1
   5:         0.00 cm**-1
   6:        54.02 cm**-1
   7:       124.94 cm**-1
   8:       191.66 cm**-1
   9:       223.86 cm**-1
  10:       232.63 cm**-1
  11:       244.01 cm**-1
  12:       334.99 cm**-1
  13:       378.23 cm**-1
  14:       453.94 cm**-1
  15:       470.71 cm**-1
  16:       482.05 cm**-1
  17:       670.97 cm**-1
  18:       818.78 cm**-1
  19:       854.95 cm**-1
  20:       943.36 cm**-1
  21:       970.71 cm**-1
  22:      1029.46 cm**-1
  23:      1046.66 cm**-1
  24:      1066.73 cm**-1
  25:      1139.29 cm**-1
  26:      1142.56 cm**-1
  27:      1186.71 cm**-1
  28:      1233.40 cm**-1
  29:      1284.56 cm**-1
  30:      1314.43 cm**-1
  31:      1359.44 cm**-1
  32:      1396.35 cm**-1
  33:      1416.98 cm**-1
  34:      1428.76 cm**-1
  35:      1456.90 cm**-1
  36:      1463.47 cm**-1
  37:      1483.36 cm**-1
  38:      1490.62 cm**-1
  39:      1497.37 cm**-1
  40:      1499.08 cm**-1
  41:      1655.36 cm**-1
  42:      1753.04 cm**-1
  43:      3057.82 cm**-1
  44:      3070.25 cm**-1
  45:      3091.09 cm**-1
  46:      3140.59 cm**-1
  47:      3153.34 cm**-1
  48:      3164.22 cm**-1
  49:      3187.96 cm**-1
  50:      3192.65 cm**-1
  51:      3211.05 cm**-1
  52:      3476.21 cm**-1
  53:      3825.01 cm**-1

IR SPECTRUM
-----------

 Mode    freq (cm**-1)   T**2         TX         TY         TZ
-------------------------------------------------------------------
   6:        54.02    1.560170  ( -0.602725  -1.081469   0.165275)
   7:       124.94    1.042715  (  0.224078  -0.035371  -0.995617)
   8:       191.66    7.415743  ( -0.654306   0.257598   2.630831)
   9:       223.86    0.651509  ( -0.129279   0.497406   0.622401)
  10:       232.63    3.351146  ( -0.631428  -0.405998   1.669614)
  11:       244.01    1.052295  ( -0.226056  -0.002112   1.000595)
  12:       334.99    0.236111  (  0.355902   0.330333  -0.018004)
  13:       378.23   11.579276  ( -0.321030   0.060959  -3.387108)
  14:       453.94   20.322250  ( -2.786718  -2.129488   2.832267)
  15:       470.71   83.409140  ( -0.821300   9.095001   0.124741)
  16:       482.05   61.463881  ( -0.420194   7.772419   0.936391)
  17:       670.97    2.014627  ( -0.596406  -0.354387  -1.238280)
  18:       818.78    8.049793  (  2.288926   1.628324  -0.398964)
  19:       854.95   11.608143  (  1.222329   1.920874   2.534620)
  20:       943.36   11.821375  (  0.233962   3.310320   0.899122)
  21:       970.71    9.227681  ( -0.178666   0.381192  -3.008397)
  22:      1029.46   17.321279  (  3.764813  -1.445745   1.028243)
  23:      1046.66    5.208153  (  2.209269   0.525371   0.226424)
  24:      1066.73    2.463770  ( -0.534245  -1.416606  -0.414222)
  25:      1139.29  138.438465  ( -2.194147   0.300536 -11.555685)
  26:      1142.56   19.087033  ( -3.245551  -1.569226  -2.467987)
  27:      1186.71    6.667926  (  2.547119   0.362552   0.220601)
  28:      1233.40    0.968542  (  0.431901  -0.878157  -0.104131)
  29:      1284.56   18.712343  (  1.849538   0.018517  -3.910398)
  30:      1314.43   72.030351  ( -4.559020  -0.824929   7.110920)
  31:      1359.44    8.127402  ( -2.511236   0.135754   1.342634)
  32:      1396.35    9.276508  (  1.123542  -0.076482  -2.829896)
  33:      1416.98   20.945445  ( -3.662011  -2.723497  -0.343054)
  34:      1428.76  111.736859  (  5.518522   1.163916  -8.940250)
  35:      1456.90   57.126599  ( -0.718167   0.678175  -7.493391)
  36:      1463.47    6.929469  ( -2.161397  -0.953513   1.161313)
  37:      1483.36   11.245753  ( -2.591091   1.309174  -1.678709)
  38:      1490.62    6.769438  ( -1.709974  -1.898099  -0.492592)
  39:      1497.37   13.357349  ( -1.089653  -2.783194  -2.103292)
  40:      1499.08   34.943419  (  5.277327  -2.050587  -1.699509)
  41:      1655.36   40.392524  (  4.508292  -3.454824   2.851670)
  42:      1753.04    3.728747  ( -0.323415  -0.363965  -1.868604)
  43:      3057.82    2.041805  (  0.909869  -0.601474  -0.923132)
  44:      3070.25    0.538036  (  0.013418  -0.727902   0.089521)
  45:      3091.09    1.359734  ( -0.072603  -0.194039   1.147524)
  46:      3140.59    3.471835  (  0.264205  -1.050486   1.516083)
  47:      3153.34    0.287250  (  0.124468  -0.253790  -0.455354)
  48:      3164.22    1.917169  (  0.855728   0.152239   1.077832)
  49:      3187.96   12.035929  (  0.152724  -0.233422  -3.458051)
  50:      3192.65    4.426234  ( -0.050614  -0.122856   2.099661)
  51:      3211.05  212.119891  ( -0.155020   0.272488  14.560962)
  52:      3476.21   60.018357  (  2.129043  -6.681953  -3.291965)
  53:      3825.01  180.301691  ( -8.926475  -0.277507 -10.027099)

--------------------------
THERMOCHEMISTRY AT 298.15K
--------------------------

Temperature         ... 298.15 K
Pressure            ... 1.00 atm
Total Mass          ... 103.14 AMU

Throughout the following assumptions are being made:
  (1) The electronic state is orbitally nondegenerate
  (2) There are no thermally accessible electronically excited states
  (3) Hindered rotations indicated by low frequency modes) are not
      treated as such but are treated as vibrations and this may
      case some error
  (4) All equations used are the standard statistical mechanics
      equations for an ideal gas
  (5) All vibrations are strinctly harmonic

------------
INNER ENERGY
------------

The inner energy is: U= E(el) + E(ZPE) + E(vib) + E(rot) + E(trans)
    E(el)   - is the total energy from the electronic structure calculation
              = E(kin-el) + E(nuc-el) + E(el-el) + E(nuc-nuc)
    E(ZPE)  - the the zero temperature vibrational energy from the frequency calculation
    E(vib)  - the the finite temperature correction to E(ZPE) due to population
              of excietd vibrational states
    E(rot)  - is the rotational thermal energy
    E(trans)- is the translational thermal energy

Summary of contributions to the inner energy U:
Electronic energy                ...   -343.21377884 Eh
Zero point energy                ...      0.16258041 Eh     102.02 kcal/mol
Thermal vibrational correction   ...      0.00567775 Eh       3.56 kcal/mol
Thermal rotational correction    ...      0.00141627 Eh       0.89 kcal/mol
Thermal translational correction ...      0.00141627 Eh       0.89 kcal/mol
-----------------------------------------------------------------------
Total thermal energy                   -343.04268814 Eh

Summary of corrections to the electronic energy:
(perhaps to be used in another calculation)
Total thermal correction                  0.00851029 Eh       5.34 kcal/mol
Non-thermal (ZPE) correction              0.16258041 Eh     102.02 kcal/mol
-----------------------------------------------------------------------
Total correction                          0.17109070 Eh     107.36 kcal/mol

--------
ENTHALPY
--------

The enthalpy is H = U + kB*T
                kB is Boltzmann's constant
Total free energy                 ...   -343.04268814 Eh
Thermal Enthalpy correction       ...      0.00094421 Eh       0.59 kcal/mol
-----------------------------------------------------------------------
Total Enthalpy                    ...   -343.04174393 Eh

-------
ENTROPY
-------

The entropy contributions are T*S = T*(S(el)+S(vib)+S(rot)+S(trans)
     S(el)   - electronic entropy
     S(vib)  - vibrational entropy
     S(rot)  - rotational entropy
     S(trans)- translational entropy
The entropies will be listed as mutliplied by the temperature to get
units of energy

Electronic entropy                ...      0.00000000 Eh      0.00 kcal/mol
Vibrational entropy               ...      0.01022499 Eh      6.42 kcal/mol
Rotational entropy                ...      0.01232275 Eh      7.73 kcal/mol
Translational entropy             ...      0.01891510 Eh     11.87 kcal/mol
-----------------------------------------------------------------------
Final entropy term                ...      0.04146284 Eh     26.02 kcal/mol

CAUTION: The rotational entropy is not quite correctly treated here
         because it includes a symmetry number that is not yet correctly
         implemented in ORCA!
For a nonlinear molecule the correct rotational entropy is:
    S(rot) = R*(ln(qrot/sn)+1.5)
    R    = 8.31441 J/mol/K = 1.987191683e-3 kcal/mol/K
    qrot = 311722.4637554
    sn is the rotational symmetry number. We have assumed 3 here
       if it is different for your molecule then you should correct
       the printed rotational entropy by manually evaluating the equation
       as given above

For convenience we print out the resulting values for sn=1 - 12:
 sn= 1  qrot/sn=  311722.4638 T*S(rot)=     8.38 kcal/mol T*S(tot)=    26.67 kcal/mol
 sn= 2  qrot/sn=  155861.2319 T*S(rot)=     7.97 kcal/mol T*S(tot)=    26.26 kcal/mol
 sn= 3  qrot/sn=  103907.4879 T*S(rot)=     7.73 kcal/mol T*S(tot)=    26.02 kcal/mol
 sn= 4  qrot/sn=   77930.6159 T*S(rot)=     7.56 kcal/mol T*S(tot)=    25.85 kcal/mol
 sn= 5  qrot/sn=   62344.4928 T*S(rot)=     7.43 kcal/mol T*S(tot)=    25.72 kcal/mol
 sn= 6  qrot/sn=   51953.7440 T*S(rot)=     7.32 kcal/mol T*S(tot)=    25.61 kcal/mol
 sn= 7  qrot/sn=   44531.7805 T*S(rot)=     7.23 kcal/mol T*S(tot)=    25.52 kcal/mol
 sn= 8  qrot/sn=   38965.3080 T*S(rot)=     7.15 kcal/mol T*S(tot)=    25.44 kcal/mol
 sn= 9  qrot/sn=   34635.8293 T*S(rot)=     7.08 kcal/mol T*S(tot)=    25.37 kcal/mol
 sn=10  qrot/sn=   31172.2464 T*S(rot)=     7.02 kcal/mol T*S(tot)=    25.30 kcal/mol
 sn=11  qrot/sn=   28338.4058 T*S(rot)=     6.96 kcal/mol T*S(tot)=    25.25 kcal/mol
 sn=12  qrot/sn=   25976.8720 T*S(rot)=     6.91 kcal/mol T*S(tot)=    25.20 kcal/mol

-------------------
GIBBS FREE ENTHALPY
-------------------

The Gibbs free enthalpy is G = H - T*S

Total enthalpy                    ...   -343.04174393 Eh
Total entropy correction          ...     -0.04146284 Eh    -26.02 kcal/mol
-----------------------------------------------------------------------
Final Gibbs free enthalpy         ...   -343.08320677 Eh

For completeness - the Gibbs free enthalpy minus the electronic energy
G-E(el)                           ...      0.13057207 Eh     81.94 kcal/mol

                             ****ORCA TERMINATED NORMALLY****
TOTAL RUN TIME: 0 days 0 hours 43 minutes 35 seconds 856 msec
