                         Program Version 3.0.3 - RELEASE   -
|  1> ! NORI PBE0 def2-TZVP UseSym TightOPT Freq TightSCF Grid3 FinalGrid5 XYZFile
|  2> % pal
|  3>     nprocs 8
|  4> end
|  5> %method
|  6>     SymThresh 5.0e-2
|  7> end
|  8> % geom
|  9>     MaxIter 10
| 10> end
| 11> % maxcore 2000
| 12> % output
| 13>     printlevel mini
| 14>     print[ P_Basis ] 0
| 15>     print[ P_SCFInfo ] 1
| 16>     print[ P_SCFIterInfo ] 1
| 17>     print[ P_OrbEn ] 0
| 18>     print[ P_Cartesian ] 0
| 19> end
| 20> % elprop
| 21>     Dipole false
| 22> end
| 23> *xyz 1 1
| 24>  C        1.6416549286     0.1771060037    -0.5353550515
| 25>  N        2.2684726870    -0.5572924153     0.5894999703
| 26>  C        2.8776843750     0.2913753873     1.6584019961
| 27>  C        2.5480519973    -0.2492000722     3.0379798696
| 28>  C        4.3843055365     0.2157788957     1.3447087499
| 29>  N        5.1861270257     1.0564281236     1.9881042877
| 30>  O        4.7547482337    -0.6252272852     0.5407771760
| 31>  H        1.2938998656    -0.5420639049    -1.2747130591
| 32>  H        2.3911810988     0.8262336672    -0.9850939745
| 33>  H        0.8049450982     0.7661734373    -0.1641188881
| 34>  H        3.1195586258    -1.0748054450     0.2418641288
| 35>  H        1.6099321588    -1.2207941391     0.9939209143
| 36>  H        2.5058965391     1.3105182693     1.5349496850
| 37>  H        2.9155925777    -1.2709538966     3.1594423880
| 38>  H        1.4712245077    -0.2293345208     3.2184833942
| 39>  H        3.0186367873     0.3633347639     3.8066273709
| 40>  H        4.8455842078     1.7547186544     2.6262902525
| 41>  H        6.1796137495     1.0050744768     1.8201807899
| 42> *
| 43>
| 44>                          ****END OF INPUT****
 Total Charge           Charge          ....    1
 Multiplicity           Mult            ....    1
 Number of Electrons    NEL             ....   56
FINAL SINGLE POINT ENERGY      -343.303117471547

CARTESIAN COORDINATES (ANGSTROEM)
---------------------------------
  C      1.956093    1.304734   -0.768554
  N      1.344512   -0.000241   -0.420760
  C     -0.120599   -0.122534   -0.690798
  C     -0.450313   -1.469369   -1.308427
  C     -0.745821    0.049846    0.707030
  N     -2.061450    0.218003    0.772496
  O      0.000849    0.000657    1.672052
  H      3.002423    1.294119   -0.468286
  H      1.430744    2.088430   -0.225546
  H      1.876706    1.469627   -1.841602
  H      1.361773   -0.129366    0.626285
  H      1.853483   -0.762641   -0.864615
  H     -0.413375    0.696411   -1.350948
  H     -0.152425   -2.288727   -0.649720
  H      0.042396   -1.586660   -2.275963
  H     -1.523760   -1.556071   -1.477165
  H     -2.644830    0.278800   -0.043907
  H     -2.495905    0.303289    1.678836

FINAL SINGLE POINT ENERGY      -343.303118416512
                    ***********************HURRAY********************
 Multiplicity           Mult            ....    1
 Number of Electrons    NEL             ....   56
 Basis Dimension        Dim             ....  283
FINAL SINGLE POINT ENERGY      -343.303118869332

VIBRATIONAL FREQUENCIES
-----------------------

   0:         0.00 cm**-1
   1:         0.00 cm**-1
   2:         0.00 cm**-1
   3:         0.00 cm**-1
   4:         0.00 cm**-1
   5:         0.00 cm**-1
   6:        42.73 cm**-1
   7:       120.69 cm**-1
   8:       214.21 cm**-1
   9:       225.59 cm**-1
  10:       236.14 cm**-1
  11:       271.13 cm**-1
  12:       377.96 cm**-1
  13:       424.51 cm**-1
  14:       446.06 cm**-1
  15:       468.50 cm**-1
  16:       590.45 cm**-1
  17:       652.19 cm**-1
  18:       741.57 cm**-1
  19:       792.48 cm**-1
  20:       867.89 cm**-1
  21:       887.35 cm**-1
  22:      1027.60 cm**-1
  23:      1057.31 cm**-1
  24:      1077.77 cm**-1
  25:      1112.25 cm**-1
  26:      1114.00 cm**-1
  27:      1186.47 cm**-1
  28:      1220.12 cm**-1
  29:      1293.24 cm**-1
  30:      1347.03 cm**-1
  31:      1389.70 cm**-1
  32:      1412.20 cm**-1
  33:      1430.55 cm**-1
  34:      1455.16 cm**-1
  35:      1467.01 cm**-1
  36:      1486.21 cm**-1
  37:      1492.95 cm**-1
  38:      1497.55 cm**-1
  39:      1499.35 cm**-1
  40:      1607.30 cm**-1
  41:      1639.04 cm**-1
  42:      1802.16 cm**-1
  43:      2968.25 cm**-1
  44:      3061.09 cm**-1
  45:      3089.52 cm**-1
  46:      3107.94 cm**-1
  47:      3142.80 cm**-1
  48:      3156.16 cm**-1
  49:      3188.85 cm**-1
  50:      3190.60 cm**-1
  51:      3506.07 cm**-1
  52:      3597.10 cm**-1
  53:      3724.41 cm**-1

IR SPECTRUM
-----------

 Mode    freq (cm**-1)   T**2         TX         TY         TZ
-------------------------------------------------------------------
   6:        42.73    3.508973  (  0.199580   1.758918  -0.612656)
   7:       120.69   10.475544  ( -0.598632  -3.166589   0.299833)
   8:       214.21    3.781793  (  1.399162   0.555589  -1.231039)
   9:       225.59    1.090868  ( -0.324809   0.879408   0.460443)
  10:       236.14    0.417490  (  0.315213  -0.288591  -0.484609)
  11:       271.13   17.220905  ( -3.090816  -0.509364   2.721821)
  12:       377.96   56.808351  (  4.656671  -0.733851  -5.880921)
  13:       424.51   11.847432  (  0.968132  -3.259954  -0.531840)
  14:       446.06  151.788113  (  3.341015  11.817039  -0.991618)
  15:       468.50   39.309018  (  5.046555  -3.241174  -1.826496)
  16:       590.45   30.460856  (  0.770406   5.454277   0.343795)
  17:       652.19    7.891027  (  1.916416   0.860166  -1.865072)
  18:       741.57    8.530705  (  1.674738  -2.226632  -0.876395)
  19:       792.48   23.036031  ( -3.057350  -0.763198   3.620244)
  20:       867.89   17.641780  (  1.852013  -0.744184  -3.695676)
  21:       887.35    3.799672  (  1.206882  -0.354654  -1.489069)
  22:      1027.60    5.958979  ( -1.685333   1.102343  -1.379664)
  23:      1057.31   14.139067  (  1.792298   2.901819   1.583093)
  24:      1077.77   17.568468  (  4.157377   0.526693   0.085293)
  25:      1112.25    2.931020  ( -1.113976  -0.944433   0.893378)
  26:      1114.00   11.172753  ( -3.254693   0.140810   0.748264)
  27:      1186.47   11.996713  (  1.560233  -0.012328  -3.092286)
  28:      1220.12    1.687346  (  0.420674  -0.779870  -0.949833)
  29:      1293.24    1.291850  (  0.030413  -0.599542   0.965129)
  30:      1347.03   12.403165  (  3.479531   0.158091   0.520612)
  31:      1389.70  150.257324  ( 11.059715  -0.907992  -5.207262)
  32:      1412.20   30.051488  (  4.663915   2.867909  -0.272914)
  33:      1430.55  126.276692  (-11.145296  -0.971129   1.056397)
  34:      1455.16   14.698479  ( -2.589502   1.138530   2.587799)
  35:      1467.01   28.346042  ( -4.422712  -2.927652   0.463159)
  36:      1486.21   32.510320  ( -4.591624   1.727830  -2.905497)
  37:      1492.95   14.182190  (  3.624441   0.744099   0.701378)
  38:      1497.55   24.072460  (  1.663752   0.890954   4.528862)
  39:      1499.35   21.613123  ( -3.081407   1.082801   3.308413)
  40:      1607.30   40.075136  (  4.149269  -4.607639   1.276075)
  41:      1639.04  118.971887  ( -9.812286   2.521455   4.041434)
  42:      1802.16  275.122127  ( 14.443830  -0.974282   8.096214)
  43:      2968.25  348.654196  ( -8.297989  -2.619613  16.520751)
  44:      3061.09    1.278326  ( -0.795378   0.375154   0.710606)
  45:      3089.52    0.219289  ( -0.290728   0.302736   0.207648)
  46:      3107.94    3.266948  (  0.974563  -0.450692  -1.453978)
  47:      3142.80    1.242888  (  0.189639   0.323981  -1.049743)
  48:      3156.16    1.476982  ( -1.040833   0.487799   0.394590)
  49:      3188.85    0.266011  ( -0.120379  -0.240307   0.440196)
  50:      3190.60    0.084692  ( -0.021977  -0.265231  -0.117733)
  51:      3506.07   64.125210  ( -4.774430   5.231488   3.736517)
  52:      3597.10  126.198034  ( 10.478413  -1.631407  -3.706670)
  53:      3724.41   90.503877  (  1.407508  -0.037444   9.408581)

--------------------------
THERMOCHEMISTRY AT 298.15K
--------------------------

Temperature         ... 298.15 K
Pressure            ... 1.00 atm
Total Mass          ... 103.14 AMU

Throughout the following assumptions are being made:
  (1) The electronic state is orbitally nondegenerate
  (2) There are no thermally accessible electronically excited states
  (3) Hindered rotations indicated by low frequency modes) are not
      treated as such but are treated as vibrations and this may
      case some error
  (4) All equations used are the standard statistical mechanics
      equations for an ideal gas
  (5) All vibrations are strinctly harmonic

------------
INNER ENERGY
------------

The inner energy is: U= E(el) + E(ZPE) + E(vib) + E(rot) + E(trans)
    E(el)   - is the total energy from the electronic structure calculation
              = E(kin-el) + E(nuc-el) + E(el-el) + E(nuc-nuc)
    E(ZPE)  - the the zero temperature vibrational energy from the frequency calculation
    E(vib)  - the the finite temperature correction to E(ZPE) due to population
              of excietd vibrational states
    E(rot)  - is the rotational thermal energy
    E(trans)- is the translational thermal energy

Summary of contributions to the inner energy U:
Electronic energy                ...   -343.30311887 Eh
Zero point energy                ...      0.16336105 Eh     102.51 kcal/mol
Thermal vibrational correction   ...      0.00554918 Eh       3.48 kcal/mol
Thermal rotational correction    ...      0.00141627 Eh       0.89 kcal/mol
Thermal translational correction ...      0.00141627 Eh       0.89 kcal/mol
-----------------------------------------------------------------------
Total thermal energy                   -343.13137609 Eh

Summary of corrections to the electronic energy:
(perhaps to be used in another calculation)
Total thermal correction                  0.00838173 Eh       5.26 kcal/mol
Non-thermal (ZPE) correction              0.16336105 Eh     102.51 kcal/mol
-----------------------------------------------------------------------
Total correction                          0.17174277 Eh     107.77 kcal/mol

--------
ENTHALPY
--------

The enthalpy is H = U + kB*T
                kB is Boltzmann's constant
Total free energy                 ...   -343.13137609 Eh
Thermal Enthalpy correction       ...      0.00094421 Eh       0.59 kcal/mol
-----------------------------------------------------------------------
Total Enthalpy                    ...   -343.13043189 Eh

-------
ENTROPY
-------

The entropy contributions are T*S = T*(S(el)+S(vib)+S(rot)+S(trans)
     S(el)   - electronic entropy
     S(vib)  - vibrational entropy
     S(rot)  - rotational entropy
     S(trans)- translational entropy
The entropies will be listed as mutliplied by the temperature to get
units of energy

Electronic entropy                ...      0.00000000 Eh      0.00 kcal/mol
Vibrational entropy               ...      0.01010565 Eh      6.34 kcal/mol
Rotational entropy                ...      0.01214175 Eh      7.62 kcal/mol
Translational entropy             ...      0.01891510 Eh     11.87 kcal/mol
-----------------------------------------------------------------------
Final entropy term                ...      0.04116249 Eh     25.83 kcal/mol

CAUTION: The rotational entropy is not quite correctly treated here
         because it includes a symmetry number that is not yet correctly
         implemented in ORCA!
For a nonlinear molecule the correct rotational entropy is:
    S(rot) = R*(ln(qrot/sn)+1.5)
    R    = 8.31441 J/mol/K = 1.987191683e-3 kcal/mol/K
    qrot = 257344.2393581
    sn is the rotational symmetry number. We have assumed 3 here
       if it is different for your molecule then you should correct
       the printed rotational entropy by manually evaluating the equation
       as given above

For convenience we print out the resulting values for sn=1 - 12:
 sn= 1  qrot/sn=  257344.2394 T*S(rot)=     8.27 kcal/mol T*S(tot)=    26.48 kcal/mol
 sn= 2  qrot/sn=  128672.1197 T*S(rot)=     7.86 kcal/mol T*S(tot)=    26.07 kcal/mol
 sn= 3  qrot/sn=   85781.4131 T*S(rot)=     7.62 kcal/mol T*S(tot)=    25.83 kcal/mol
 sn= 4  qrot/sn=   64336.0598 T*S(rot)=     7.45 kcal/mol T*S(tot)=    25.66 kcal/mol
 sn= 5  qrot/sn=   51468.8479 T*S(rot)=     7.32 kcal/mol T*S(tot)=    25.53 kcal/mol
 sn= 6  qrot/sn=   42890.7066 T*S(rot)=     7.21 kcal/mol T*S(tot)=    25.42 kcal/mol
 sn= 7  qrot/sn=   36763.4628 T*S(rot)=     7.12 kcal/mol T*S(tot)=    25.33 kcal/mol
 sn= 8  qrot/sn=   32168.0299 T*S(rot)=     7.04 kcal/mol T*S(tot)=    25.25 kcal/mol
 sn= 9  qrot/sn=   28593.8044 T*S(rot)=     6.97 kcal/mol T*S(tot)=    25.18 kcal/mol
 sn=10  qrot/sn=   25734.4239 T*S(rot)=     6.91 kcal/mol T*S(tot)=    25.12 kcal/mol
 sn=11  qrot/sn=   23394.9309 T*S(rot)=     6.85 kcal/mol T*S(tot)=    25.06 kcal/mol
 sn=12  qrot/sn=   21445.3533 T*S(rot)=     6.80 kcal/mol T*S(tot)=    25.01 kcal/mol

-------------------
GIBBS FREE ENTHALPY
-------------------

The Gibbs free enthalpy is G = H - T*S

Total enthalpy                    ...   -343.13043189 Eh
Total entropy correction          ...     -0.04116249 Eh    -25.83 kcal/mol
-----------------------------------------------------------------------
Final Gibbs free enthalpy         ...   -343.17159438 Eh

For completeness - the Gibbs free enthalpy minus the electronic energy
G-E(el)                           ...      0.13152449 Eh     82.53 kcal/mol

                             ****ORCA TERMINATED NORMALLY****
TOTAL RUN TIME: 0 days 0 hours 45 minutes 39 seconds 582 msec
