                         Program Version 3.0.3 - RELEASE   -
|  1> ! NORI PBE0 def2-TZVP UseSym TightOPT Freq TightSCF Grid3 FinalGrid5 XYZFile
|  2> % pal
|  3>     nprocs 8
|  4> end
|  5> %method
|  6>     SymThresh 5.0e-2
|  7> end
|  8> % geom
|  9>     MaxIter 10
| 10> end
| 11> % maxcore 2000
| 12> % output
| 13>     printlevel mini
| 14>     print[ P_Basis ] 0
| 15>     print[ P_SCFInfo ] 1
| 16>     print[ P_SCFIterInfo ] 1
| 17>     print[ P_OrbEn ] 0
| 18>     print[ P_Cartesian ] 0
| 19> end
| 20> % elprop
| 21>     Dipole false
| 22> end
| 23> *xyz 1 1
| 24>  C        1.1400702149     0.1576776929     0.3495567031
| 25>  N        2.6106242030     0.0501943330     0.1469570279
| 26>  C        3.0155904852    -0.6259243628    -1.1305386785
| 27>  C        4.5270733447    -0.7148507456    -1.2459546684
| 28>  C        4.9198248264    -1.3786477820    -2.5259555103
| 29>  N        5.3388649782    -2.5726210176    -2.4668954084
| 30>  O        5.6556865024    -3.0764998924    -3.6877137448
| 31>  H        0.9448715155     0.6583355017     1.2963502195
| 32>  H        0.7164948672    -0.8444212066     0.3614146868
| 33>  H        0.7166449401     0.7313331656    -0.4724393626
| 34>  H        3.0280670635     0.9827908362     0.1717881243
| 35>  H        3.0266562515    -0.4594843976     0.9295684294
| 36>  H        2.5607040376    -1.6170336978    -1.1188031094
| 37>  H        2.5705655123    -0.0489853158    -1.9431739477
| 38>  H        4.9684274979     0.2883846991    -1.2034993035
| 39>  H        4.9360671302    -1.3052228220    -0.4207934468
| 40>  H        4.8415262816    -0.8442368443    -3.4738189817
| 41>  H        5.9880803478    -3.9615281439    -3.5013890289
| 42> *
| 43>
| 44>                          ****END OF INPUT****
 Total Charge           Charge          ....    1
 Multiplicity           Mult            ....    1
 Number of Electrons    NEL             ....   56
FINAL SINGLE POINT ENERGY      -343.203703503377

CARTESIAN COORDINATES (ANGSTROEM)
---------------------------------
  C      0.195316    1.135206   -3.377086
  N      0.158552   -0.000023   -2.415209
  C     -0.174873    0.389608   -1.004351
  C     -0.168833   -0.821037   -0.087547
  C     -0.513366   -0.424389    1.311611
  N      0.425692   -0.382421    2.160781
  O      0.000115   -0.000017    3.392592
  H      0.444070    0.757299   -4.367260
  H      0.949736    1.846162   -3.046650
  H     -0.783398    1.610431   -3.391809
  H     -0.519696   -0.695470   -2.733349
  H      1.063236   -0.476366   -2.414840
  H      0.571718    1.122876   -0.696334
  H     -1.149638    0.879598   -1.038412
  H     -0.888459   -1.567760   -0.444541
  H      0.823974   -1.280307   -0.072891
  H     -1.541573   -0.178374    1.580417
  H      0.790692   -0.042573    3.941819

FINAL SINGLE POINT ENERGY      -343.203704048111
                    ***********************HURRAY********************
 Multiplicity           Mult            ....    1
 Number of Electrons    NEL             ....   56
 Basis Dimension        Dim             ....  283
FINAL SINGLE POINT ENERGY      -343.203704388854

VIBRATIONAL FREQUENCIES
-----------------------

   0:         0.00 cm**-1
   1:         0.00 cm**-1
   2:         0.00 cm**-1
   3:         0.00 cm**-1
   4:         0.00 cm**-1
   5:         0.00 cm**-1
   6:        51.32 cm**-1
   7:        81.33 cm**-1
   8:       105.18 cm**-1
   9:       159.65 cm**-1
  10:       229.96 cm**-1
  11:       262.88 cm**-1
  12:       335.49 cm**-1
  13:       354.04 cm**-1
  14:       447.21 cm**-1
  15:       498.74 cm**-1
  16:       612.83 cm**-1
  17:       774.37 cm**-1
  18:       827.92 cm**-1
  19:       916.72 cm**-1
  20:       943.19 cm**-1
  21:       991.97 cm**-1
  22:      1022.36 cm**-1
  23:      1060.17 cm**-1
  24:      1063.38 cm**-1
  25:      1111.31 cm**-1
  26:      1168.82 cm**-1
  27:      1181.71 cm**-1
  28:      1286.42 cm**-1
  29:      1291.67 cm**-1
  30:      1318.17 cm**-1
  31:      1335.20 cm**-1
  32:      1393.19 cm**-1
  33:      1398.91 cm**-1
  34:      1424.78 cm**-1
  35:      1456.21 cm**-1
  36:      1460.62 cm**-1
  37:      1469.83 cm**-1
  38:      1491.00 cm**-1
  39:      1493.50 cm**-1
  40:      1503.18 cm**-1
  41:      1657.37 cm**-1
  42:      1744.14 cm**-1
  43:      3038.43 cm**-1
  44:      3092.30 cm**-1
  45:      3094.35 cm**-1
  46:      3100.18 cm**-1
  47:      3129.91 cm**-1
  48:      3156.03 cm**-1
  49:      3193.34 cm**-1
  50:      3197.41 cm**-1
  51:      3438.56 cm**-1
  52:      3486.83 cm**-1
  53:      3834.66 cm**-1

IR SPECTRUM
-----------

 Mode    freq (cm**-1)   T**2         TX         TY         TZ
-------------------------------------------------------------------
   6:        51.32    0.648472  (  0.082132  -0.168301  -0.783199)
   7:        81.33    3.182058  ( -1.691371  -0.065393  -0.563068)
   8:       105.18    2.559192  (  1.473863   0.303012   0.543234)
   9:       159.65    1.135415  (  0.318584   0.044351   1.015851)
  10:       229.96    2.007129  ( -1.326503  -0.164261  -0.469612)
  11:       262.88    3.886561  (  0.724680  -0.804093  -1.647676)
  12:       335.49    6.762195  (  0.746617  -0.812722   2.354621)
  13:       354.04    5.025092  ( -1.220105  -0.517224   1.808014)
  14:       447.21    2.794763  ( -0.409303  -1.413312  -0.793590)
  15:       498.74  144.381841  (  2.577482  11.412109  -2.739015)
  16:       612.83    8.215435  (  0.902138  -1.130376  -2.474638)
  17:       774.37    8.557389  (  2.904648   0.345543  -0.031793)
  18:       827.92    8.379613  (  2.430212   0.358009   1.531506)
  19:       916.72   11.057069  ( -0.266739   1.478290   2.966577)
  20:       943.19   13.654858  (  0.859424   2.702153  -2.369519)
  21:       991.97    3.610555  (  0.611795   1.797902  -0.061713)
  22:      1022.36   44.396966  (  0.510275   2.587255  -6.119044)
  23:      1060.17    8.199027  ( -1.244260  -0.452993  -2.538827)
  24:      1063.38    6.220820  (  1.897861   0.322082   1.585941)
  25:      1111.31  173.626580  ( -2.243969  -1.749974 -12.865799)
  26:      1168.82    4.085088  (  1.278261   0.351505  -1.525641)
  27:      1181.71   11.761825  ( -1.796682   0.257136  -2.909921)
  28:      1286.42   14.969941  (  1.802727  -0.936965  -3.292752)
  29:      1291.67   22.284802  (  1.351843  -1.049864  -4.399444)
  30:      1318.17   45.680720  (  1.663488  -0.769246  -6.505520)
  31:      1335.20    3.832404  ( -1.902364  -0.242858   0.392984)
  32:      1393.19    3.149978  ( -0.681185   1.568435   0.475371)
  33:      1398.91    0.446394  ( -0.135774  -0.339881   0.558964)
  34:      1424.78   45.299898  (  0.815404   1.722969  -6.454951)
  35:      1456.21   53.094802  ( -1.018745   1.645100   7.024999)
  36:      1460.62    2.023540  ( -0.105939  -1.176482   0.792595)
  37:      1469.83    1.461828  ( -1.005896   0.658459  -0.128194)
  38:      1491.00   24.249130  (  0.555417   0.737557  -4.837008)
  39:      1493.50   24.179955  (  4.801593   0.687838   0.807179)
  40:      1503.18   22.076508  (  0.975132  -4.198630  -1.870063)
  41:      1657.37   46.060222  ( -1.293968   6.505451   1.437003)
  42:      1744.14    6.424010  ( -0.163675  -0.060555  -2.528548)
  43:      3038.43   13.936728  ( -0.573725  -1.804282  -3.217473)
  44:      3092.30    0.398957  (  0.041737   0.582081  -0.241655)
  45:      3094.35    1.412892  ( -0.026732  -1.081665   0.492116)
  46:      3100.18    1.058370  ( -1.016744   0.145209  -0.059296)
  47:      3129.91    4.528824  ( -1.742921   0.361747   1.166271)
  48:      3156.03    0.663130  (  0.810885  -0.040130  -0.063129)
  49:      3193.34    0.241052  (  0.082047  -0.480954  -0.054807)
  50:      3197.41    0.083139  (  0.263629   0.085506   0.079548)
  51:      3438.56   43.433575  ( -1.364608   5.943449   2.499368)
  52:      3486.83   69.574626  (  8.086706   1.232679   1.631048)
  53:      3834.66  173.684106  (  7.612954   0.322766  10.752807)

--------------------------
THERMOCHEMISTRY AT 298.15K
--------------------------

Temperature         ... 298.15 K
Pressure            ... 1.00 atm
Total Mass          ... 103.14 AMU

Throughout the following assumptions are being made:
  (1) The electronic state is orbitally nondegenerate
  (2) There are no thermally accessible electronically excited states
  (3) Hindered rotations indicated by low frequency modes) are not
      treated as such but are treated as vibrations and this may
      case some error
  (4) All equations used are the standard statistical mechanics
      equations for an ideal gas
  (5) All vibrations are strinctly harmonic

------------
INNER ENERGY
------------

The inner energy is: U= E(el) + E(ZPE) + E(vib) + E(rot) + E(trans)
    E(el)   - is the total energy from the electronic structure calculation
              = E(kin-el) + E(nuc-el) + E(el-el) + E(nuc-nuc)
    E(ZPE)  - the the zero temperature vibrational energy from the frequency calculation
    E(vib)  - the the finite temperature correction to E(ZPE) due to population
              of excietd vibrational states
    E(rot)  - is the rotational thermal energy
    E(trans)- is the translational thermal energy

Summary of contributions to the inner energy U:
Electronic energy                ...   -343.20370439 Eh
Zero point energy                ...      0.16331435 Eh     102.48 kcal/mol
Thermal vibrational correction   ...      0.00586335 Eh       3.68 kcal/mol
Thermal rotational correction    ...      0.00141627 Eh       0.89 kcal/mol
Thermal translational correction ...      0.00141627 Eh       0.89 kcal/mol
-----------------------------------------------------------------------
Total thermal energy                   -343.03169414 Eh

Summary of corrections to the electronic energy:
(perhaps to be used in another calculation)
Total thermal correction                  0.00869589 Eh       5.46 kcal/mol
Non-thermal (ZPE) correction              0.16331435 Eh     102.48 kcal/mol
-----------------------------------------------------------------------
Total correction                          0.17201024 Eh     107.94 kcal/mol

--------
ENTHALPY
--------

The enthalpy is H = U + kB*T
                kB is Boltzmann's constant
Total free energy                 ...   -343.03169414 Eh
Thermal Enthalpy correction       ...      0.00094421 Eh       0.59 kcal/mol
-----------------------------------------------------------------------
Total Enthalpy                    ...   -343.03074993 Eh

-------
ENTROPY
-------

The entropy contributions are T*S = T*(S(el)+S(vib)+S(rot)+S(trans)
     S(el)   - electronic entropy
     S(vib)  - vibrational entropy
     S(rot)  - rotational entropy
     S(trans)- translational entropy
The entropies will be listed as mutliplied by the temperature to get
units of energy

Electronic entropy                ...      0.00000000 Eh      0.00 kcal/mol
Vibrational entropy               ...      0.01127032 Eh      7.07 kcal/mol
Rotational entropy                ...      0.01235181 Eh      7.75 kcal/mol
Translational entropy             ...      0.01891510 Eh     11.87 kcal/mol
-----------------------------------------------------------------------
Final entropy term                ...      0.04253723 Eh     26.69 kcal/mol

CAUTION: The rotational entropy is not quite correctly treated here
         because it includes a symmetry number that is not yet correctly
         implemented in ORCA!
For a nonlinear molecule the correct rotational entropy is:
    S(rot) = R*(ln(qrot/sn)+1.5)
    R    = 8.31441 J/mol/K = 1.987191683e-3 kcal/mol/K
    qrot = 321468.0859987
    sn is the rotational symmetry number. We have assumed 3 here
       if it is different for your molecule then you should correct
       the printed rotational entropy by manually evaluating the equation
       as given above

For convenience we print out the resulting values for sn=1 - 12:
 sn= 1  qrot/sn=  321468.0860 T*S(rot)=     8.40 kcal/mol T*S(tot)=    27.34 kcal/mol
 sn= 2  qrot/sn=  160734.0430 T*S(rot)=     7.99 kcal/mol T*S(tot)=    26.93 kcal/mol
 sn= 3  qrot/sn=  107156.0287 T*S(rot)=     7.75 kcal/mol T*S(tot)=    26.69 kcal/mol
 sn= 4  qrot/sn=   80367.0215 T*S(rot)=     7.58 kcal/mol T*S(tot)=    26.52 kcal/mol
 sn= 5  qrot/sn=   64293.6172 T*S(rot)=     7.45 kcal/mol T*S(tot)=    26.39 kcal/mol
 sn= 6  qrot/sn=   53578.0143 T*S(rot)=     7.34 kcal/mol T*S(tot)=    26.28 kcal/mol
 sn= 7  qrot/sn=   45924.0123 T*S(rot)=     7.25 kcal/mol T*S(tot)=    26.19 kcal/mol
 sn= 8  qrot/sn=   40183.5107 T*S(rot)=     7.17 kcal/mol T*S(tot)=    26.11 kcal/mol
 sn= 9  qrot/sn=   35718.6762 T*S(rot)=     7.10 kcal/mol T*S(tot)=    26.04 kcal/mol
 sn=10  qrot/sn=   32146.8086 T*S(rot)=     7.04 kcal/mol T*S(tot)=    25.98 kcal/mol
 sn=11  qrot/sn=   29224.3715 T*S(rot)=     6.98 kcal/mol T*S(tot)=    25.92 kcal/mol
 sn=12  qrot/sn=   26789.0072 T*S(rot)=     6.93 kcal/mol T*S(tot)=    25.87 kcal/mol

-------------------
GIBBS FREE ENTHALPY
-------------------

The Gibbs free enthalpy is G = H - T*S

Total enthalpy                    ...   -343.03074993 Eh
Total entropy correction          ...     -0.04253723 Eh    -26.69 kcal/mol
-----------------------------------------------------------------------
Final Gibbs free enthalpy         ...   -343.07328717 Eh

For completeness - the Gibbs free enthalpy minus the electronic energy
G-E(el)                           ...      0.13041722 Eh     81.84 kcal/mol

                             ****ORCA TERMINATED NORMALLY****
TOTAL RUN TIME: 0 days 0 hours 38 minutes 28 seconds 229 msec
