                         Program Version 3.0.3 - RELEASE   -
|  1> ! NORI PBE0 def2-TZVP UseSym TightOPT Freq TightSCF Grid3 FinalGrid5 XYZFile
|  2> % pal
|  3>     nprocs 8
|  4> end
|  5> %method
|  6>     SymThresh 5.0e-2
|  7> end
|  8> % geom
|  9>     MaxIter 10
| 10> end
| 11> % maxcore 2000
| 12> % output
| 13>     printlevel mini
| 14>     print[ P_Basis ] 0
| 15>     print[ P_SCFInfo ] 1
| 16>     print[ P_SCFIterInfo ] 1
| 17>     print[ P_OrbEn ] 0
| 18>     print[ P_Cartesian ] 0
| 19> end
| 20> % elprop
| 21>     Dipole false
| 22> end
| 23> *xyz 1 1
| 24>  C        1.2960151555    -0.2183523818     0.5055538523
| 25>  N        2.7690072808    -0.0301119740     0.3945410267
| 26>  C        3.2005326729     0.6239850331    -0.8829988366
| 27>  C        4.7006165976     0.8033210652    -0.9468992971
| 28>  C        5.0121099890     1.7102031213    -2.1424794446
| 29>  N        6.2898213621     1.7106898604    -2.5525738378
| 30>  O        4.1328462689     2.3751920259    -2.6443790798
| 31>  H        1.0659143419    -0.6880093456     1.4603042221
| 32>  H        0.9644287699    -0.8516176258    -0.3148662452
| 33>  H        0.8166158231     0.7560443528     0.4397354537
| 34>  H        3.0974540614     0.5333859056     1.1813993535
| 35>  H        3.2334901299    -0.9354198989     0.4866862654
| 36>  H        2.8297708569     0.0015602283    -1.6976062074
| 37>  H        2.6990382933     1.5887736774    -0.9457501669
| 38>  H        5.0757680003     1.3036830197    -0.0461456171
| 39>  H        5.2231758566    -0.1534799182    -1.0353062087
| 40>  H        6.5469937479     2.3184272062    -3.3138059192
| 41>  H        7.0046107920     1.1558456482    -2.1176893133
| 42> *
| 43>
| 44>                          ****END OF INPUT****
 Total Charge           Charge          ....    1
 Multiplicity           Mult            ....    1
 Number of Electrons    NEL             ....   56
FINAL SINGLE POINT ENERGY      -343.292382347098
FINAL SINGLE POINT ENERGY      -343.292383364393
FINAL SINGLE POINT ENERGY      -343.292383889484

CARTESIAN COORDINATES (ANGSTROEM)
---------------------------------
  C      2.313765   -0.538514   -2.321434
  N      0.976303    0.000792   -1.948808
  C      0.583617   -0.285651   -0.531006
  C     -0.773721    0.288420   -0.192713
  C     -0.956815    0.189985    1.325624
  N     -2.214511    0.341860    1.768472
  O      0.001987    0.000798    2.041042
  H      2.527442   -0.281386   -3.357321
  H      2.298817   -1.619238   -2.196942
  H      3.058747   -0.099166   -1.661290
  H      0.967280    1.012059   -2.095773
  H      0.270037   -0.379656   -2.581505
  H      0.610583   -1.368597   -0.408119
  H      1.348901    0.142263    0.115947
  H     -0.830983    1.349515   -0.464082
  H     -1.580519   -0.231958   -0.717127
  H     -2.376923    0.321872    2.762484
  H     -2.994208    0.503007    1.156817

FINAL SINGLE POINT ENERGY      -343.292384171898
                    ***********************HURRAY********************
 Multiplicity           Mult            ....    1
 Number of Electrons    NEL             ....   56
 Basis Dimension        Dim             ....  283
FINAL SINGLE POINT ENERGY      -343.292384473703

VIBRATIONAL FREQUENCIES
-----------------------

   0:         0.00 cm**-1
   1:         0.00 cm**-1
   2:         0.00 cm**-1
   3:         0.00 cm**-1
   4:         0.00 cm**-1
   5:         0.00 cm**-1
   6:       -18.55 cm**-1
   7:        67.06 cm**-1
   8:       109.51 cm**-1
   9:       144.24 cm**-1
  10:       230.62 cm**-1
  11:       314.59 cm**-1
  12:       336.69 cm**-1
  13:       345.42 cm**-1
  14:       478.74 cm**-1
  15:       525.46 cm**-1
  16:       616.98 cm**-1
  17:       663.57 cm**-1
  18:       780.85 cm**-1
  19:       837.06 cm**-1
  20:       853.37 cm**-1
  21:       938.79 cm**-1
  22:      1012.62 cm**-1
  23:      1025.18 cm**-1
  24:      1085.29 cm**-1
  25:      1099.91 cm**-1
  26:      1125.63 cm**-1
  27:      1171.62 cm**-1
  28:      1274.56 cm**-1
  29:      1280.60 cm**-1
  30:      1326.55 cm**-1
  31:      1373.41 cm**-1
  32:      1391.69 cm**-1
  33:      1415.81 cm**-1
  34:      1430.65 cm**-1
  35:      1460.20 cm**-1
  36:      1472.44 cm**-1
  37:      1487.16 cm**-1
  38:      1492.70 cm**-1
  39:      1500.68 cm**-1
  40:      1633.50 cm**-1
  41:      1657.97 cm**-1
  42:      1811.97 cm**-1
  43:      3046.17 cm**-1
  44:      3093.41 cm**-1
  45:      3100.95 cm**-1
  46:      3112.50 cm**-1
  47:      3172.10 cm**-1
  48:      3194.81 cm**-1
  49:      3197.92 cm**-1
  50:      3442.93 cm**-1
  51:      3492.28 cm**-1
  52:      3608.06 cm**-1
  53:      3739.94 cm**-1

IR SPECTRUM
-----------

 Mode    freq (cm**-1)   T**2         TX         TY         TZ
-------------------------------------------------------------------
   7:        67.06    1.240710  ( -0.245031   0.768229   0.768436)
   8:       109.51    1.698388  (  0.816232   0.969761  -0.302848)
   9:       144.24    5.528240  ( -0.280513   0.752286   2.209891)
  10:       230.62    1.227649  ( -0.479140  -0.877560  -0.477455)
  11:       314.59   25.299231  ( -1.434217   0.832525   4.748595)
  12:       336.69    7.155093  ( -2.294501   1.215997   0.641644)
  13:       345.42  172.227885  (  2.543005  12.872127   0.263340)
  14:       478.74    4.484546  (  1.140900   1.767700   0.241097)
  15:       525.46   21.084739  (  0.013038  -4.515247  -0.834933)
  16:       616.98   12.189378  (  1.940905   1.603344  -2.418999)
  17:       663.57    7.231814  (  0.044973   2.588650   0.727107)
  18:       780.85   15.471419  (  1.274878   3.465063   1.356261)
  19:       837.06    6.870342  (  1.966267   1.045335  -1.382538)
  20:       853.37    4.122241  ( -0.600777   0.232228   1.925455)
  21:       938.79   27.712810  ( -2.731826  -0.361346   4.485462)
  22:      1012.62    2.619316  (  0.325853   1.572594  -0.200209)
  23:      1025.18   20.943325  (  3.785354  -1.104117  -2.322789)
  24:      1085.29    3.700620  (  1.259891  -0.286817  -1.425142)
  25:      1099.91    4.879229  (  0.877066   0.005527  -2.027302)
  26:      1125.63    1.572151  ( -0.991902   0.527372   0.556921)
  27:      1171.62    6.976097  ( -1.048105   0.291218   2.406817)
  28:      1274.56    7.700566  (  2.752933  -0.209118  -0.279630)
  29:      1280.60    1.736819  ( -1.196942  -0.137902   0.533978)
  30:      1326.55   16.427445  ( -2.541487   1.812841   2.584936)
  31:      1373.41   52.986272  ( -5.697346   0.452160   4.508001)
  32:      1391.69   17.590970  (  2.689438   0.177187  -3.213487)
  33:      1415.81  152.765846  (  6.290859  -0.402991 -10.631488)
  34:      1430.65    8.857943  ( -1.476150  -0.301800   2.566679)
  35:      1460.20    3.544830  ( -1.154806   0.282724   1.459904)
  36:      1472.44    4.148156  ( -1.607572   0.940952  -0.823698)
  37:      1487.16   12.089496  (  3.068370  -0.284533  -1.610478)
  38:      1492.70   23.724426  (  1.828558   4.214074   1.619377)
  39:      1500.68   27.981421  (  0.939150  -2.109058   4.759337)
  40:      1633.50  117.962505  ( -8.698405   1.082244   6.413190)
  41:      1657.97   42.859105  ( -3.670257   3.441288  -4.188777)
  42:      1811.97  354.467117  ( 17.745483  -3.031152   5.511539)
  43:      3046.17    3.550992  ( -1.065323   0.963942  -1.219384)
  44:      3093.41    0.007525  ( -0.002811   0.049489   0.071193)
  45:      3100.95    3.719407  ( -1.553165  -0.870082  -0.741648)
  46:      3112.50    3.837580  (  0.699996  -0.753342  -1.667352)
  47:      3172.10    1.744983  ( -0.114678   0.009403   1.315957)
  48:      3194.81    0.284848  ( -0.403267   0.246444  -0.247970)
  49:      3197.92    0.183566  (  0.232447   0.275708   0.231343)
  50:      3442.93   39.812258  (  2.988599  -3.293580   4.475809)
  51:      3492.28   68.748578  ( -3.554917  -6.967985  -2.749242)
  52:      3608.06   98.934929  ( -8.065004   1.004533   5.734244)
  53:      3739.94   72.221250  (  3.456667  -0.926172   7.708107)

--------------------------
THERMOCHEMISTRY AT 298.15K
--------------------------

Temperature         ... 298.15 K
Pressure            ... 1.00 atm
Total Mass          ... 103.14 AMU

Throughout the following assumptions are being made:
  (1) The electronic state is orbitally nondegenerate
  (2) There are no thermally accessible electronically excited states
  (3) Hindered rotations indicated by low frequency modes) are not
      treated as such but are treated as vibrations and this may
      case some error
  (4) All equations used are the standard statistical mechanics
      equations for an ideal gas
  (5) All vibrations are strinctly harmonic

------------
INNER ENERGY
------------

The inner energy is: U= E(el) + E(ZPE) + E(vib) + E(rot) + E(trans)
    E(el)   - is the total energy from the electronic structure calculation
              = E(kin-el) + E(nuc-el) + E(el-el) + E(nuc-nuc)
    E(ZPE)  - the the zero temperature vibrational energy from the frequency calculation
    E(vib)  - the the finite temperature correction to E(ZPE) due to population
              of excietd vibrational states
    E(rot)  - is the rotational thermal energy
    E(trans)- is the translational thermal energy

Summary of contributions to the inner energy U:
Electronic energy                ...   -343.29238447 Eh
Zero point energy                ...      0.16396925 Eh     102.89 kcal/mol
Thermal vibrational correction   ...      0.00507611 Eh       3.19 kcal/mol
Thermal rotational correction    ...      0.00141627 Eh       0.89 kcal/mol
Thermal translational correction ...      0.00141627 Eh       0.89 kcal/mol
-----------------------------------------------------------------------
Total thermal energy                   -343.12050657 Eh

Summary of corrections to the electronic energy:
(perhaps to be used in another calculation)
Total thermal correction                  0.00790866 Eh       4.96 kcal/mol
Non-thermal (ZPE) correction              0.16396925 Eh     102.89 kcal/mol
-----------------------------------------------------------------------
Total correction                          0.17187791 Eh     107.85 kcal/mol

--------
ENTHALPY
--------

The enthalpy is H = U + kB*T
                kB is Boltzmann's constant
Total free energy                 ...   -343.12050657 Eh
Thermal Enthalpy correction       ...      0.00094421 Eh       0.59 kcal/mol
-----------------------------------------------------------------------
Total Enthalpy                    ...   -343.11956236 Eh

-------
ENTROPY
-------

The entropy contributions are T*S = T*(S(el)+S(vib)+S(rot)+S(trans)
     S(el)   - electronic entropy
     S(vib)  - vibrational entropy
     S(rot)  - rotational entropy
     S(trans)- translational entropy
The entropies will be listed as mutliplied by the temperature to get
units of energy

Electronic entropy                ...      0.00000000 Eh      0.00 kcal/mol
Vibrational entropy               ...      0.00917202 Eh      5.76 kcal/mol
Rotational entropy                ...      0.01228194 Eh      7.71 kcal/mol
Translational entropy             ...      0.01891510 Eh     11.87 kcal/mol
-----------------------------------------------------------------------
Final entropy term                ...      0.04036906 Eh     25.33 kcal/mol

CAUTION: The rotational entropy is not quite correctly treated here
         because it includes a symmetry number that is not yet correctly
         implemented in ORCA!
For a nonlinear molecule the correct rotational entropy is:
    S(rot) = R*(ln(qrot/sn)+1.5)
    R    = 8.31441 J/mol/K = 1.987191683e-3 kcal/mol/K
    qrot = 298537.2039078
    sn is the rotational symmetry number. We have assumed 3 here
       if it is different for your molecule then you should correct
       the printed rotational entropy by manually evaluating the equation
       as given above

For convenience we print out the resulting values for sn=1 - 12:
 sn= 1  qrot/sn=  298537.2039 T*S(rot)=     8.36 kcal/mol T*S(tot)=    25.98 kcal/mol
 sn= 2  qrot/sn=  149268.6020 T*S(rot)=     7.95 kcal/mol T*S(tot)=    25.57 kcal/mol
 sn= 3  qrot/sn=   99512.4013 T*S(rot)=     7.71 kcal/mol T*S(tot)=    25.33 kcal/mol
 sn= 4  qrot/sn=   74634.3010 T*S(rot)=     7.54 kcal/mol T*S(tot)=    25.16 kcal/mol
 sn= 5  qrot/sn=   59707.4408 T*S(rot)=     7.40 kcal/mol T*S(tot)=    25.03 kcal/mol
 sn= 6  qrot/sn=   49756.2007 T*S(rot)=     7.30 kcal/mol T*S(tot)=    24.92 kcal/mol
 sn= 7  qrot/sn=   42648.1720 T*S(rot)=     7.21 kcal/mol T*S(tot)=    24.83 kcal/mol
 sn= 8  qrot/sn=   37317.1505 T*S(rot)=     7.13 kcal/mol T*S(tot)=    24.75 kcal/mol
 sn= 9  qrot/sn=   33170.8004 T*S(rot)=     7.06 kcal/mol T*S(tot)=    24.68 kcal/mol
 sn=10  qrot/sn=   29853.7204 T*S(rot)=     6.99 kcal/mol T*S(tot)=    24.62 kcal/mol
 sn=11  qrot/sn=   27139.7458 T*S(rot)=     6.94 kcal/mol T*S(tot)=    24.56 kcal/mol
 sn=12  qrot/sn=   24878.1003 T*S(rot)=     6.89 kcal/mol T*S(tot)=    24.51 kcal/mol

-------------------
GIBBS FREE ENTHALPY
-------------------

The Gibbs free enthalpy is G = H - T*S

Total enthalpy                    ...   -343.11956236 Eh
Total entropy correction          ...     -0.04036906 Eh    -25.33 kcal/mol
-----------------------------------------------------------------------
Final Gibbs free enthalpy         ...   -343.15993142 Eh

For completeness - the Gibbs free enthalpy minus the electronic energy
G-E(el)                           ...      0.13245306 Eh     83.12 kcal/mol

                             ****ORCA TERMINATED NORMALLY****
TOTAL RUN TIME: 0 days 0 hours 43 minutes 29 seconds 875 msec
