                         Program Version 3.0.3 - RELEASE   -
|  1> ! NORI PBE0 def2-TZVP UseSym TightOPT Freq TightSCF Grid3 FinalGrid5 XYZFile
|  2> % pal
|  3>     nprocs 8
|  4> end
|  5> %method
|  6>     SymThresh 5.0e-2
|  7> end
|  8> % geom
|  9>     MaxIter 10
| 10> end
| 11> % maxcore 2000
| 12> % output
| 13>     printlevel mini
| 14>     print[ P_Basis ] 0
| 15>     print[ P_SCFInfo ] 1
| 16>     print[ P_SCFIterInfo ] 1
| 17>     print[ P_OrbEn ] 0
| 18>     print[ P_Cartesian ] 0
| 19> end
| 20> % elprop
| 21>     Dipole false
| 22> end
| 23> *xyz 1 1
| 24>  C        0.6138094942    -1.2639497106    -2.3428238811
| 25>  N        2.0068871133    -0.7471651820    -2.3866326023
| 26>  C        2.8188130550    -1.0275662544    -1.1521761709
| 27>  C        4.2257076365    -0.4922860358    -1.2847812730
| 28>  C        5.0993118302    -1.2673161885    -2.2559757519
| 29>  O        6.2965104608    -0.5794212877    -2.3729192487
| 30>  C        7.2481697929    -1.2428431570    -3.1781956949
| 31>  H        0.1055642028    -1.0042319101    -3.2702130178
| 32>  H        0.1009723014    -0.8122460728    -1.4960100062
| 33>  H        0.6466751733    -2.3451480743    -2.2239820772
| 34>  H        1.9934532710     0.2635047156    -2.5388384314
| 35>  H        2.4956640441    -1.1404035811    -3.1936814463
| 36>  H        2.7961128627    -2.1099326743    -1.0090260288
| 37>  H        2.2828945270    -0.5613920672    -0.3248748726
| 38>  H        4.2109963880     0.5642317851    -1.5753734967
| 39>  H        4.6886973378    -0.5221117528    -0.2955047380
| 40>  H        5.2564799139    -2.2934436936    -1.8861781209
| 41>  H        4.6186883237    -1.3657788281    -3.2516722789
| 42>  H        8.1399493532    -0.6195673451    -3.1967777555
| 43>  H        6.8786939040    -1.3726173510    -4.2030575581
| 44>  H        7.5026990141    -2.2246253342    -2.7625355488
| 45> *
| 46>
| 47>                          ****END OF INPUT****
 Total Charge           Charge          ....    1
 Multiplicity           Mult            ....    1
 Number of Electrons    NEL             ....   58
FINAL SINGLE POINT ENERGY      -328.413385859486
FINAL SINGLE POINT ENERGY      -328.413388536794
FINAL SINGLE POINT ENERGY      -328.413390381726
FINAL SINGLE POINT ENERGY      -328.413391051772

CARTESIAN COORDINATES (ANGSTROEM)
---------------------------------
  C      0.485189   -0.249029   -3.400222
  N      0.661400   -0.002677   -1.944611
  C     -0.438259    0.801134   -1.307695
  C     -0.202968    0.979835    0.174028
  C     -0.379342   -0.288672    0.990649
  O     -0.012467    0.004450    2.294153
  C     -0.210848   -1.070824    3.187514
  H      1.330669   -0.825695   -3.771118
  H      0.432115    0.710052   -3.911582
  H     -0.439896   -0.801726   -3.550501
  H      1.547701    0.480050   -1.782840
  H      0.738538   -0.893724   -1.449725
  H     -1.368538    0.270021   -1.520479
  H     -0.461200    1.755685   -1.834450
  H      0.794101    1.394811    0.360516
  H     -0.909566    1.730783    0.535063
  H     -1.424815   -0.632867    0.932399
  H      0.245097   -1.118849    0.598488
  H      0.102032   -0.729414    4.172200
  H      0.392784   -1.940920    2.900584
  H     -1.266494   -1.363958    3.225575

FINAL SINGLE POINT ENERGY      -328.413391744714
                    ***********************HURRAY********************
 Multiplicity           Mult            ....    1
 Number of Electrons    NEL             ....   58
 Basis Dimension        Dim             ....  301
FINAL SINGLE POINT ENERGY      -328.413392025013

VIBRATIONAL FREQUENCIES
-----------------------

   0:         0.00 cm**-1
   1:         0.00 cm**-1
   2:         0.00 cm**-1
   3:         0.00 cm**-1
   4:         0.00 cm**-1
   5:         0.00 cm**-1
   6:        54.24 cm**-1
   7:        67.72 cm**-1
   8:        79.86 cm**-1
   9:       138.35 cm**-1
  10:       196.14 cm**-1
  11:       215.78 cm**-1
  12:       231.27 cm**-1
  13:       276.32 cm**-1
  14:       322.60 cm**-1
  15:       426.18 cm**-1
  16:       525.39 cm**-1
  17:       760.36 cm**-1
  18:       799.71 cm**-1
  19:       878.79 cm**-1
  20:       902.09 cm**-1
  21:      1006.57 cm**-1
  22:      1028.86 cm**-1
  23:      1043.14 cm**-1
  24:      1054.00 cm**-1
  25:      1095.73 cm**-1
  26:      1158.03 cm**-1
  27:      1170.11 cm**-1
  28:      1186.88 cm**-1
  29:      1198.43 cm**-1
  30:      1243.62 cm**-1
  31:      1257.71 cm**-1
  32:      1310.50 cm**-1
  33:      1315.68 cm**-1
  34:      1349.65 cm**-1
  35:      1380.54 cm**-1
  36:      1397.15 cm**-1
  37:      1424.48 cm**-1
  38:      1438.55 cm**-1
  39:      1461.00 cm**-1
  40:      1476.49 cm**-1
  41:      1476.56 cm**-1
  42:      1484.99 cm**-1
  43:      1489.89 cm**-1
  44:      1492.97 cm**-1
  45:      1495.82 cm**-1
  46:      1502.18 cm**-1
  47:      1515.09 cm**-1
  48:      1658.30 cm**-1
  49:      2880.82 cm**-1
  50:      2983.61 cm**-1
  51:      3012.75 cm**-1
  52:      3058.40 cm**-1
  53:      3075.17 cm**-1
  54:      3091.11 cm**-1
  55:      3093.25 cm**-1
  56:      3119.41 cm**-1
  57:      3151.12 cm**-1
  58:      3167.19 cm**-1
  59:      3192.95 cm**-1
  60:      3196.01 cm**-1
  61:      3437.85 cm**-1
  62:      3485.33 cm**-1

IR SPECTRUM
-----------

 Mode    freq (cm**-1)   T**2         TX         TY         TZ
-------------------------------------------------------------------
   6:        54.24    4.338558  ( -0.814135   1.310571   1.399337)
   7:        67.72    2.499542  (  1.332867   0.834392  -0.163700)
   8:        79.86    3.849304  ( -0.502189   1.592801  -1.029609)
   9:       138.35    8.846317  (  2.222173   0.069612  -1.975707)
  10:       196.14    2.442170  (  0.363950   0.971416   1.168787)
  11:       215.78    3.868786  (  1.677786  -0.600636  -0.832499)
  12:       231.27    1.902926  (  0.596535   0.893312  -0.865486)
  13:       276.32    2.215906  (  0.406550  -0.662029  -1.269780)
  14:       322.60   10.295803  (  0.474367   0.221156   3.165734)
  15:       426.18    0.931774  ( -0.296572  -0.525609  -0.753361)
  16:       525.39    0.300969  (  0.513614  -0.166823   0.096640)
  17:       760.36    2.657311  ( -1.018983  -1.145186   0.554558)
  18:       799.71   14.814801  ( -1.606646  -3.296373   1.169365)
  19:       878.79    6.393178  ( -1.359006   1.335996   1.661744)
  20:       902.09    0.368172  (  0.396122  -0.445199   0.114268)
  21:      1006.57   20.648109  ( -2.029266  -4.021206   0.600073)
  22:      1028.86    9.699537  (  0.101252   2.597120  -1.715882)
  23:      1043.14   23.270507  (  0.625402  -3.331702  -3.432075)
  24:      1054.00   17.487088  ( -2.624239   1.935882   2.617789)
  25:      1095.73    2.502781  ( -1.151193  -0.005600   1.085129)
  26:      1158.03    2.079086  (  0.509410  -1.187452  -0.639957)
  27:      1170.11    8.815074  ( -1.161640   0.259040   2.720030)
  28:      1186.88   72.777140  (  1.006739  -3.676146   7.632140)
  29:      1198.43   52.121029  (  1.627336   2.885803  -6.414433)
  30:      1243.62   80.692421  ( -0.967367   1.128750  -8.859037)
  31:      1257.71    9.925233  (  0.225703   0.402846  -3.116409)
  32:      1310.50    2.100144  (  0.182165   0.404980  -1.379475)
  33:      1315.68    2.766323  (  0.230057  -1.641231   0.140561)
  34:      1349.65    2.652993  (  0.267707   1.426301   0.739588)
  35:      1380.54   23.549053  (  1.862809  -1.329555  -4.279168)
  36:      1397.15    3.630322  (  0.866545   1.272613  -1.122442)
  37:      1424.48   55.982522  (  2.986184  -2.703332  -6.305333)
  38:      1438.55   27.474083  ( -0.201442  -1.175800   5.104018)
  39:      1461.00    2.773218  (  0.066362  -0.444265  -1.603572)
  40:      1476.49    3.273674  ( -0.151111   0.575823  -1.708586)
  41:      1476.56    8.584555  (  1.163268   2.474138   1.053566)
  42:      1484.99   13.174357  ( -3.374673   1.178696   0.629773)
  43:      1489.89   27.578956  ( -2.153462   1.241493   4.626041)
  44:      1492.97   17.837958  ( -2.200258  -3.537599  -0.694418)
  45:      1495.82   10.296944  ( -0.132227  -2.324070   2.208656)
  46:      1502.18   23.841406  ( -4.361215   1.435529  -1.661466)
  47:      1515.09    4.734888  (  0.110673   2.172081  -0.068587)
  48:      1658.30   39.528328  (  4.526892  -2.305944   3.703808)
  49:      2880.82  124.900050  ( -4.333834   5.704660   8.577575)
  50:      2983.61   32.490811  (  5.377687   0.339377   1.859063)
  51:      3012.75   40.732950  (  0.922569   5.821443  -2.447983)
  52:      3058.40    8.991447  ( -2.532176  -1.259699   0.996338)
  53:      3075.17   34.159415  ( -5.425183   1.677345   1.383229)
  54:      3091.11    2.087558  ( -0.670597  -0.213492  -1.261856)
  55:      3093.25    1.242297  ( -0.463665  -0.108022  -1.007791)
  56:      3119.41    1.696601  (  1.245415  -0.017386   0.381103)
  57:      3151.12    1.304915  ( -0.655104  -0.744744   0.566666)
  58:      3167.19    7.491522  (  0.804579   0.848526   2.474708)
  59:      3192.95    0.210884  (  0.322559  -0.214572   0.246574)
  60:      3196.01    0.034078  (  0.086364   0.153456   0.055412)
  61:      3437.85   44.335435  (  4.407178  -2.235373   4.462659)
  62:      3485.33   76.914268  ( -4.923584  -6.540403   3.145746)

--------------------------
THERMOCHEMISTRY AT 298.15K
--------------------------

Temperature         ... 298.15 K
Pressure            ... 1.00 atm
Total Mass          ... 104.17 AMU

Throughout the following assumptions are being made:
  (1) The electronic state is orbitally nondegenerate
  (2) There are no thermally accessible electronically excited states
  (3) Hindered rotations indicated by low frequency modes) are not
      treated as such but are treated as vibrations and this may
      case some error
  (4) All equations used are the standard statistical mechanics
      equations for an ideal gas
  (5) All vibrations are strinctly harmonic

------------
INNER ENERGY
------------

The inner energy is: U= E(el) + E(ZPE) + E(vib) + E(rot) + E(trans)
    E(el)   - is the total energy from the electronic structure calculation
              = E(kin-el) + E(nuc-el) + E(el-el) + E(nuc-nuc)
    E(ZPE)  - the the zero temperature vibrational energy from the frequency calculation
    E(vib)  - the the finite temperature correction to E(ZPE) due to population
              of excietd vibrational states
    E(rot)  - is the rotational thermal energy
    E(trans)- is the translational thermal energy

Summary of contributions to the inner energy U:
Electronic energy                ...   -328.41339203 Eh
Zero point energy                ...      0.19804722 Eh     124.28 kcal/mol
Thermal vibrational correction   ...      0.00665797 Eh       4.18 kcal/mol
Thermal rotational correction    ...      0.00141627 Eh       0.89 kcal/mol
Thermal translational correction ...      0.00141627 Eh       0.89 kcal/mol
-----------------------------------------------------------------------
Total thermal energy                   -328.20585429 Eh

Summary of corrections to the electronic energy:
(perhaps to be used in another calculation)
Total thermal correction                  0.00949051 Eh       5.96 kcal/mol
Non-thermal (ZPE) correction              0.19804722 Eh     124.28 kcal/mol
-----------------------------------------------------------------------
Total correction                          0.20753773 Eh     130.23 kcal/mol

--------
ENTHALPY
--------

The enthalpy is H = U + kB*T
                kB is Boltzmann's constant
Total free energy                 ...   -328.20585429 Eh
Thermal Enthalpy correction       ...      0.00094421 Eh       0.59 kcal/mol
-----------------------------------------------------------------------
Total Enthalpy                    ...   -328.20491008 Eh

-------
ENTROPY
-------

The entropy contributions are T*S = T*(S(el)+S(vib)+S(rot)+S(trans)
     S(el)   - electronic entropy
     S(vib)  - vibrational entropy
     S(rot)  - rotational entropy
     S(trans)- translational entropy
The entropies will be listed as mutliplied by the temperature to get
units of energy

Electronic entropy                ...      0.00000000 Eh      0.00 kcal/mol
Vibrational entropy               ...      0.01310941 Eh      8.23 kcal/mol
Rotational entropy                ...      0.01245169 Eh      7.81 kcal/mol
Translational entropy             ...      0.01892914 Eh     11.88 kcal/mol
-----------------------------------------------------------------------
Final entropy term                ...      0.04449024 Eh     27.92 kcal/mol

CAUTION: The rotational entropy is not quite correctly treated here
         because it includes a symmetry number that is not yet correctly
         implemented in ORCA!
For a nonlinear molecule the correct rotational entropy is:
    S(rot) = R*(ln(qrot/sn)+1.5)
    R    = 8.31441 J/mol/K = 1.987191683e-3 kcal/mol/K
    qrot = 357336.4747429
    sn is the rotational symmetry number. We have assumed 3 here
       if it is different for your molecule then you should correct
       the printed rotational entropy by manually evaluating the equation
       as given above

For convenience we print out the resulting values for sn=1 - 12:
 sn= 1  qrot/sn=  357336.4747 T*S(rot)=     8.46 kcal/mol T*S(tot)=    28.57 kcal/mol
 sn= 2  qrot/sn=  178668.2374 T*S(rot)=     8.05 kcal/mol T*S(tot)=    28.16 kcal/mol
 sn= 3  qrot/sn=  119112.1582 T*S(rot)=     7.81 kcal/mol T*S(tot)=    27.92 kcal/mol
 sn= 4  qrot/sn=   89334.1187 T*S(rot)=     7.64 kcal/mol T*S(tot)=    27.75 kcal/mol
 sn= 5  qrot/sn=   71467.2949 T*S(rot)=     7.51 kcal/mol T*S(tot)=    27.62 kcal/mol
 sn= 6  qrot/sn=   59556.0791 T*S(rot)=     7.40 kcal/mol T*S(tot)=    27.51 kcal/mol
 sn= 7  qrot/sn=   51048.0678 T*S(rot)=     7.31 kcal/mol T*S(tot)=    27.42 kcal/mol
 sn= 8  qrot/sn=   44667.0593 T*S(rot)=     7.23 kcal/mol T*S(tot)=    27.34 kcal/mol
 sn= 9  qrot/sn=   39704.0527 T*S(rot)=     7.16 kcal/mol T*S(tot)=    27.27 kcal/mol
 sn=10  qrot/sn=   35733.6475 T*S(rot)=     7.10 kcal/mol T*S(tot)=    27.20 kcal/mol
 sn=11  qrot/sn=   32485.1341 T*S(rot)=     7.04 kcal/mol T*S(tot)=    27.15 kcal/mol
 sn=12  qrot/sn=   29778.0396 T*S(rot)=     6.99 kcal/mol T*S(tot)=    27.10 kcal/mol

-------------------
GIBBS FREE ENTHALPY
-------------------

The Gibbs free enthalpy is G = H - T*S

Total enthalpy                    ...   -328.20491008 Eh
Total entropy correction          ...     -0.04449024 Eh    -27.92 kcal/mol
-----------------------------------------------------------------------
Final Gibbs free enthalpy         ...   -328.24940032 Eh

For completeness - the Gibbs free enthalpy minus the electronic energy
G-E(el)                           ...      0.16399170 Eh    102.91 kcal/mol

                             ****ORCA TERMINATED NORMALLY****
TOTAL RUN TIME: 0 days 0 hours 54 minutes 48 seconds 21 msec
