                         Program Version 3.0.3 - RELEASE   -
|  1> ! NORI PBE0 def2-TZVP UseSym TightOPT Freq TightSCF Grid3 FinalGrid5 XYZFile
|  2> % pal
|  3>     nprocs 8
|  4> end
|  5> %method
|  6>     SymThresh 5.0e-2
|  7> end
|  8> % geom
|  9>     MaxIter 10
| 10> end
| 11> % maxcore 2000
| 12> % output
| 13>     printlevel mini
| 14>     print[ P_Basis ] 0
| 15>     print[ P_SCFInfo ] 1
| 16>     print[ P_SCFIterInfo ] 1
| 17>     print[ P_OrbEn ] 0
| 18>     print[ P_Cartesian ] 0
| 19> end
| 20> % elprop
| 21>     Dipole false
| 22> end
| 23> *xyz 1 1
| 24>  C        0.1288333482    -1.7343544358    -0.9184083324
| 25>  N        0.5591493035    -2.4943977530     0.2815564527
| 26>  C        2.0247051257    -2.8700435969     0.3756299764
| 27>  C        2.5497805515    -3.5208714304    -0.8791763080
| 28>  C        2.7698437693    -1.6151910901     0.7960349256
| 29>  O        2.0170843563    -1.0344526957     1.8236331941
| 30>  C        2.6304228127     0.0960753875     2.4254031530
| 31>  H       -0.9161872129    -1.4562404543    -0.7940455385
| 32>  H        0.2426533010    -2.3557251282    -1.8030266580
| 33>  H        0.7357753629    -0.8372109386    -1.0068815934
| 34>  H       -0.0097061284    -3.3349820490     0.3737407679
| 35>  H        0.4082248708    -1.9126907622     1.1185000917
| 36>  H        2.0543588157    -3.5741906874     1.2120136817
| 37>  H        2.5892860609    -2.8302866455    -1.7229876816
| 38>  H        1.9619739282    -4.3966682393    -1.1623917414
| 39>  H        3.5673068204    -3.8663204747    -0.6909506871
| 40>  H        2.8982149940    -0.9193054682    -0.0468086726
| 41>  H        3.7713326266    -1.9059072593     1.1365688313
| 42>  H        1.9523070374     0.4533040671     3.1976500507
| 43>  H        2.7967951177     0.8883926748     1.6883229230
| 44>  H        3.5849451383    -0.1829230209     2.8811631649
| 45> *
| 46>
| 47>                          ****END OF INPUT****
 Total Charge           Charge          ....    1
 Multiplicity           Mult            ....    1
 Number of Electrons    NEL             ....   58
FINAL SINGLE POINT ENERGY      -328.426911831500
FINAL SINGLE POINT ENERGY      -328.426916307353
FINAL SINGLE POINT ENERGY      -328.426918655357

CARTESIAN COORDINATES (ANGSTROEM)
---------------------------------
  C      1.120533   -1.336516   -1.387319
  N      1.200893    0.006438   -0.761128
  C     -0.082138    0.808992   -0.677465
  C     -0.813917    0.888274   -1.993371
  C     -0.894049    0.217128    0.461293
  O      0.001144   -0.000983    1.515179
  C     -0.611714   -0.456089    2.712281
  H      2.088977   -1.823153   -1.285830
  H      0.867498   -1.233418   -2.439228
  H      0.362920   -1.923174   -0.873120
  H      1.913688    0.560518   -1.234355
  H      1.480588   -0.100691    0.224492
  H      0.257515    1.801266   -0.368565
  H     -1.212335   -0.077658   -2.307334
  H     -0.181169    1.288245   -2.788708
  H     -1.658084    1.570790   -1.882185
  H     -1.390474   -0.717606    0.160839
  H     -1.679723    0.932831    0.733586
  H      0.181645   -0.597890    3.443030
  H     -1.131174   -1.405675    2.547532
  H     -1.321625    0.287325    3.086532

FINAL SINGLE POINT ENERGY      -328.426919094065
                    ***********************HURRAY********************
 Multiplicity           Mult            ....    1
 Number of Electrons    NEL             ....   58
 Basis Dimension        Dim             ....  301
FINAL SINGLE POINT ENERGY      -328.426919288625

VIBRATIONAL FREQUENCIES
-----------------------

   0:         0.00 cm**-1
   1:         0.00 cm**-1
   2:         0.00 cm**-1
   3:         0.00 cm**-1
   4:         0.00 cm**-1
   5:         0.00 cm**-1
   6:        79.67 cm**-1
   7:        97.05 cm**-1
   8:       136.47 cm**-1
   9:       178.62 cm**-1
  10:       208.54 cm**-1
  11:       222.18 cm**-1
  12:       251.63 cm**-1
  13:       283.99 cm**-1
  14:       342.17 cm**-1
  15:       395.57 cm**-1
  16:       484.78 cm**-1
  17:       547.44 cm**-1
  18:       765.80 cm**-1
  19:       830.39 cm**-1
  20:       925.71 cm**-1
  21:       960.62 cm**-1
  22:       990.05 cm**-1
  23:      1012.15 cm**-1
  24:      1083.76 cm**-1
  25:      1102.99 cm**-1
  26:      1132.52 cm**-1
  27:      1169.26 cm**-1
  28:      1181.38 cm**-1
  29:      1197.69 cm**-1
  30:      1219.36 cm**-1
  31:      1236.78 cm**-1
  32:      1266.98 cm**-1
  33:      1335.95 cm**-1
  34:      1379.43 cm**-1
  35:      1391.31 cm**-1
  36:      1418.08 cm**-1
  37:      1438.66 cm**-1
  38:      1453.92 cm**-1
  39:      1458.93 cm**-1
  40:      1477.49 cm**-1
  41:      1484.48 cm**-1
  42:      1485.53 cm**-1
  43:      1492.56 cm**-1
  44:      1494.33 cm**-1
  45:      1500.50 cm**-1
  46:      1504.61 cm**-1
  47:      1521.47 cm**-1
  48:      1618.26 cm**-1
  49:      3002.94 cm**-1
  50:      3035.20 cm**-1
  51:      3057.17 cm**-1
  52:      3066.24 cm**-1
  53:      3092.61 cm**-1
  54:      3100.08 cm**-1
  55:      3107.23 cm**-1
  56:      3144.35 cm**-1
  57:      3152.22 cm**-1
  58:      3173.74 cm**-1
  59:      3192.94 cm**-1
  60:      3206.55 cm**-1
  61:      3339.28 cm**-1
  62:      3501.45 cm**-1

IR SPECTRUM
-----------

 Mode    freq (cm**-1)   T**2         TX         TY         TZ
-------------------------------------------------------------------
   6:        79.67    0.439653  (  0.055250   0.642977   0.152250)
   7:        97.05    6.948934  ( -0.109276  -2.614224  -0.320665)
   8:       136.47    4.409302  ( -0.704536   0.611508   1.881220)
   9:       178.62    9.199422  ( -1.043116   0.223907   2.839225)
  10:       208.54    2.081786  (  0.257722   1.062893  -0.941076)
  11:       222.18    6.094550  (  0.469060  -1.896323  -1.509467)
  12:       251.63    1.841404  ( -0.093990  -0.396253   1.294432)
  13:       283.99    0.465479  (  0.282763  -0.312020   0.536813)
  14:       342.17   15.752314  (  1.662041   0.538134  -3.563754)
  15:       395.57    9.073850  ( -2.958583   0.210961   0.525480)
  16:       484.78    1.948209  (  1.069174  -0.300976  -0.845275)
  17:       547.44    1.860058  ( -0.592258  -1.225031   0.092676)
  18:       765.80    1.657258  ( -0.879828   0.476589  -0.809953)
  19:       830.39   38.355780  (  1.860110   1.417446  -5.734686)
  20:       925.71    2.295111  (  0.388341   1.437110  -0.281099)
  21:       960.62    1.001887  (  0.688578   0.425702   0.588663)
  22:       990.05   27.144888  (  4.759368   1.483641  -1.513972)
  23:      1012.15   32.569943  (  4.661703  -1.509698  -2.925625)
  24:      1083.76    1.449361  (  0.272666  -0.974367  -0.652398)
  25:      1102.99    4.312166  ( -1.512570   1.184978   0.787481)
  26:      1132.52   18.972867  ( -2.915269   2.065524   2.491522)
  27:      1169.26   72.914040  ( -0.020166  -3.769149   7.662059)
  28:      1181.38   75.529912  ( -0.275230   2.239997  -8.392650)
  29:      1197.69   28.884192  (  0.748050   1.586494  -5.080123)
  30:      1219.36   11.940600  (  1.667727  -1.493391  -2.632313)
  31:      1236.78   33.214185  ( -1.646344   0.511600  -5.499273)
  32:      1266.98    1.958479  ( -0.346240   1.282221  -0.441029)
  33:      1335.95    0.909759  ( -0.425231   0.789224  -0.325673)
  34:      1379.43   36.825322  (  4.915756  -3.163540  -1.628706)
  35:      1391.31   15.402810  (  2.492674   0.751393  -2.936801)
  36:      1418.08   20.952834  ( -3.446138   2.040975  -2.216164)
  37:      1438.66    4.867484  (  1.736679   1.260587  -0.512200)
  38:      1453.92    2.885198  ( -0.503785  -1.532714  -0.531213)
  39:      1458.93   32.401372  (  2.258684  -2.527153  -4.573097)
  40:      1477.49    3.356956  ( -1.177948  -0.491087  -1.314621)
  41:      1484.48   17.029313  (  0.023825   3.962938   1.150593)
  42:      1485.53    1.409100  (  0.528934  -0.883063  -0.591210)
  43:      1492.56   20.182831  ( -3.550402   1.717875   2.150902)
  44:      1494.33    5.003524  (  1.650784   1.471417   0.336703)
  45:      1500.50   29.196925  (  3.008949  -3.215743   3.130838)
  46:      1504.61    5.176366  (  1.811974  -0.769725  -1.140456)
  47:      1521.47   15.380406  (  3.264122   1.212656  -1.804267)
  48:      1618.26   72.336781  ( -7.946441  -3.012407   0.340976)
  49:      3002.94   23.614755  ( -2.697731  -2.093257  -3.457641)
  50:      3035.20   29.763360  (  3.089204   2.298818  -3.864662)
  51:      3057.17   11.727505  (  1.658676  -2.979667  -0.312866)
  52:      3066.24    1.636934  (  0.391745  -0.460420  -1.127601)
  53:      3092.61    3.956355  (  0.445407   1.635089   1.041371)
  54:      3100.08    0.464410  (  0.191367   0.391680   0.523808)
  55:      3107.23   17.950715  (  0.438555  -3.867712  -1.673077)
  56:      3144.35    3.152811  ( -1.047929  -1.037584   0.988977)
  57:      3152.22    3.121376  ( -0.609393  -1.592176  -0.463672)
  58:      3173.74    4.850545  (  1.654376  -0.262540   1.429915)
  59:      3192.94    0.102983  (  0.029347  -0.129663  -0.292078)
  60:      3206.55    0.280326  (  0.208223   0.016262  -0.486523)
  61:      3339.28  142.416821  (  0.709388   0.188887  11.911251)
  62:      3501.45   79.163198  ( -5.895125  -3.852837   5.437495)

--------------------------
THERMOCHEMISTRY AT 298.15K
--------------------------

Temperature         ... 298.15 K
Pressure            ... 1.00 atm
Total Mass          ... 104.17 AMU

Throughout the following assumptions are being made:
  (1) The electronic state is orbitally nondegenerate
  (2) There are no thermally accessible electronically excited states
  (3) Hindered rotations indicated by low frequency modes) are not
      treated as such but are treated as vibrations and this may
      case some error
  (4) All equations used are the standard statistical mechanics
      equations for an ideal gas
  (5) All vibrations are strinctly harmonic

------------
INNER ENERGY
------------

The inner energy is: U= E(el) + E(ZPE) + E(vib) + E(rot) + E(trans)
    E(el)   - is the total energy from the electronic structure calculation
              = E(kin-el) + E(nuc-el) + E(el-el) + E(nuc-nuc)
    E(ZPE)  - the the zero temperature vibrational energy from the frequency calculation
    E(vib)  - the the finite temperature correction to E(ZPE) due to population
              of excietd vibrational states
    E(rot)  - is the rotational thermal energy
    E(trans)- is the translational thermal energy

Summary of contributions to the inner energy U:
Electronic energy                ...   -328.42691929 Eh
Zero point energy                ...      0.19804349 Eh     124.27 kcal/mol
Thermal vibrational correction   ...      0.00647443 Eh       4.06 kcal/mol
Thermal rotational correction    ...      0.00141627 Eh       0.89 kcal/mol
Thermal translational correction ...      0.00141627 Eh       0.89 kcal/mol
-----------------------------------------------------------------------
Total thermal energy                   -328.21956883 Eh

Summary of corrections to the electronic energy:
(perhaps to be used in another calculation)
Total thermal correction                  0.00930698 Eh       5.84 kcal/mol
Non-thermal (ZPE) correction              0.19804349 Eh     124.27 kcal/mol
-----------------------------------------------------------------------
Total correction                          0.20735046 Eh     130.11 kcal/mol

--------
ENTHALPY
--------

The enthalpy is H = U + kB*T
                kB is Boltzmann's constant
Total free energy                 ...   -328.21956883 Eh
Thermal Enthalpy correction       ...      0.00094421 Eh       0.59 kcal/mol
-----------------------------------------------------------------------
Total Enthalpy                    ...   -328.21862462 Eh

-------
ENTROPY
-------

The entropy contributions are T*S = T*(S(el)+S(vib)+S(rot)+S(trans)
     S(el)   - electronic entropy
     S(vib)  - vibrational entropy
     S(rot)  - rotational entropy
     S(trans)- translational entropy
The entropies will be listed as mutliplied by the temperature to get
units of energy

Electronic entropy                ...      0.00000000 Eh      0.00 kcal/mol
Vibrational entropy               ...      0.01176029 Eh      7.38 kcal/mol
Rotational entropy                ...      0.01228733 Eh      7.71 kcal/mol
Translational entropy             ...      0.01892914 Eh     11.88 kcal/mol
-----------------------------------------------------------------------
Final entropy term                ...      0.04297677 Eh     26.97 kcal/mol

CAUTION: The rotational entropy is not quite correctly treated here
         because it includes a symmetry number that is not yet correctly
         implemented in ORCA!
For a nonlinear molecule the correct rotational entropy is:
    S(rot) = R*(ln(qrot/sn)+1.5)
    R    = 8.31441 J/mol/K = 1.987191683e-3 kcal/mol/K
    qrot = 300246.4442066
    sn is the rotational symmetry number. We have assumed 3 here
       if it is different for your molecule then you should correct
       the printed rotational entropy by manually evaluating the equation
       as given above

For convenience we print out the resulting values for sn=1 - 12:
 sn= 1  qrot/sn=  300246.4442 T*S(rot)=     8.36 kcal/mol T*S(tot)=    27.62 kcal/mol
 sn= 2  qrot/sn=  150123.2221 T*S(rot)=     7.95 kcal/mol T*S(tot)=    27.21 kcal/mol
 sn= 3  qrot/sn=  100082.1481 T*S(rot)=     7.71 kcal/mol T*S(tot)=    26.97 kcal/mol
 sn= 4  qrot/sn=   75061.6111 T*S(rot)=     7.54 kcal/mol T*S(tot)=    26.80 kcal/mol
 sn= 5  qrot/sn=   60049.2888 T*S(rot)=     7.41 kcal/mol T*S(tot)=    26.67 kcal/mol
 sn= 6  qrot/sn=   50041.0740 T*S(rot)=     7.30 kcal/mol T*S(tot)=    26.56 kcal/mol
 sn= 7  qrot/sn=   42892.3492 T*S(rot)=     7.21 kcal/mol T*S(tot)=    26.47 kcal/mol
 sn= 8  qrot/sn=   37530.8055 T*S(rot)=     7.13 kcal/mol T*S(tot)=    26.39 kcal/mol
 sn= 9  qrot/sn=   33360.7160 T*S(rot)=     7.06 kcal/mol T*S(tot)=    26.32 kcal/mol
 sn=10  qrot/sn=   30024.6444 T*S(rot)=     7.00 kcal/mol T*S(tot)=    26.25 kcal/mol
 sn=11  qrot/sn=   27295.1313 T*S(rot)=     6.94 kcal/mol T*S(tot)=    26.20 kcal/mol
 sn=12  qrot/sn=   25020.5370 T*S(rot)=     6.89 kcal/mol T*S(tot)=    26.15 kcal/mol

-------------------
GIBBS FREE ENTHALPY
-------------------

The Gibbs free enthalpy is G = H - T*S

Total enthalpy                    ...   -328.21862462 Eh
Total entropy correction          ...     -0.04297677 Eh    -26.97 kcal/mol
-----------------------------------------------------------------------
Final Gibbs free enthalpy         ...   -328.26160139 Eh

For completeness - the Gibbs free enthalpy minus the electronic energy
G-E(el)                           ...      0.16531790 Eh    103.74 kcal/mol

                             ****ORCA TERMINATED NORMALLY****
TOTAL RUN TIME: 0 days 1 hours 2 minutes 36 seconds 593 msec
