                         Program Version 3.0.3 - RELEASE   -
|  1> ! NORI PBE0 def2-TZVP UseSym TightOPT Freq TightSCF Grid3 FinalGrid5 XYZFile
|  2> % pal
|  3>     nprocs 8
|  4> end
|  5> %method
|  6>     SymThresh 5.0e-2
|  7> end
|  8> % geom
|  9>     MaxIter 10
| 10> end
| 11> % maxcore 2000
| 12> % output
| 13>     printlevel mini
| 14>     print[ P_Basis ] 0
| 15>     print[ P_SCFInfo ] 1
| 16>     print[ P_SCFIterInfo ] 1
| 17>     print[ P_OrbEn ] 0
| 18>     print[ P_Cartesian ] 0
| 19> end
| 20> % elprop
| 21>     Dipole false
| 22> end
| 23> *xyz 1 1
| 24>  C        1.0662583223    -0.5086353924    -0.6518221996
| 25>  N        2.4625793196    -0.2775400323    -0.2028514823
| 26>  C        2.6340725324     0.8532934248     0.8061275439
| 27>  C        4.0480276074     1.0202597573     1.1959413579
| 28>  C        4.7486163297     2.0768770554     0.7462261454
| 29>  O        5.9901190057     2.4082014325     1.0162633390
| 30>  C        6.7378437320     1.5749718610     1.8935641661
| 31>  H        1.0466327074    -1.3315702683    -1.3644213413
| 32>  H        0.6952552421     0.4004742104    -1.1211929286
| 33>  H        0.4556879653    -0.7517201293     0.2155190979
| 34>  H        3.0668427447    -0.0695025056    -1.0001365271
| 35>  H        2.8419666723    -1.1309160223     0.2108278109
| 36>  H        1.9819435745     0.5890784919     1.6414878776
| 37>  H        2.2291795817     1.7427389657     0.3203372131
| 38>  H        4.4746767146     0.3154224360     1.9002262460
| 39>  H        4.2912347311     2.8071431114     0.0807616562
| 40>  H        7.7190986904     2.0332187275     1.9794440383
| 41>  H        6.8341631317     0.5689080275     1.4766757680
| 42>  H        6.2620013951     1.5311568489     2.8767222187
| 43> *
| 44>
| 45>                          ****END OF INPUT****
 Total Charge           Charge          ....    1
 Multiplicity           Mult            ....    1
 Number of Electrons    NEL             ....   56
FINAL SINGLE POINT ENERGY      -327.199322470011
FINAL SINGLE POINT ENERGY      -327.199323880528

CARTESIAN COORDINATES (ANGSTROEM)
---------------------------------
  C      0.694083    0.655706   -3.378853
  N      0.631127    0.002035   -2.047091
  C     -0.478459    0.511638   -1.132490
  C     -0.470435   -0.188932    0.166803
  C     -0.040169    0.446124    1.271567
  O      0.002090   -0.001630    2.505580
  C     -0.456806   -1.323407    2.760909
  H      1.510867    0.225116   -3.955232
  H      0.859161    1.721938   -3.236847
  H     -0.251338    0.493457   -3.892760
  H      1.515257    0.117577   -1.548134
  H      0.511115   -1.006220   -2.158157
  H     -1.400780    0.365124   -1.698799
  H     -0.303419    1.583713   -1.029166
  H     -0.879561   -1.191181    0.213129
  H      0.320544    1.471804    1.221244
  H     -0.338716   -1.481422    3.829314
  H      0.145579   -2.050982    2.210208
  H     -1.510090   -1.421492    2.485774

FINAL SINGLE POINT ENERGY      -327.199324466621
                    ***********************HURRAY********************
 Multiplicity           Mult            ....    1
 Number of Electrons    NEL             ....   56
 Basis Dimension        Dim             ....  289
FINAL SINGLE POINT ENERGY      -327.199324580365

VIBRATIONAL FREQUENCIES
-----------------------

   0:         0.00 cm**-1
   1:         0.00 cm**-1
   2:         0.00 cm**-1
   3:         0.00 cm**-1
   4:         0.00 cm**-1
   5:         0.00 cm**-1
   6:        73.04 cm**-1
   7:        94.56 cm**-1
   8:        99.14 cm**-1
   9:       216.22 cm**-1
  10:       224.17 cm**-1
  11:       228.43 cm**-1
  12:       284.22 cm**-1
  13:       352.93 cm**-1
  14:       377.22 cm**-1
  15:       452.73 cm**-1
  16:       659.98 cm**-1
  17:       791.32 cm**-1
  18:       809.86 cm**-1
  19:       868.53 cm**-1
  20:       925.01 cm**-1
  21:       987.43 cm**-1
  22:      1002.74 cm**-1
  23:      1016.93 cm**-1
  24:      1076.98 cm**-1
  25:      1148.26 cm**-1
  26:      1172.11 cm**-1
  27:      1175.00 cm**-1
  28:      1214.02 cm**-1
  29:      1301.47 cm**-1
  30:      1304.99 cm**-1
  31:      1330.11 cm**-1
  32:      1364.10 cm**-1
  33:      1384.42 cm**-1
  34:      1393.81 cm**-1
  35:      1412.02 cm**-1
  36:      1457.62 cm**-1
  37:      1473.12 cm**-1
  38:      1481.47 cm**-1
  39:      1488.87 cm**-1
  40:      1491.65 cm**-1
  41:      1493.79 cm**-1
  42:      1497.21 cm**-1
  43:      1654.31 cm**-1
  44:      1709.08 cm**-1
  45:      3046.23 cm**-1
  46:      3084.77 cm**-1
  47:      3092.49 cm**-1
  48:      3123.25 cm**-1
  49:      3144.23 cm**-1
  50:      3167.76 cm**-1
  51:      3191.03 cm**-1
  52:      3191.93 cm**-1
  53:      3193.79 cm**-1
  54:      3209.17 cm**-1
  55:      3444.78 cm**-1
  56:      3496.97 cm**-1

IR SPECTRUM
-----------

 Mode    freq (cm**-1)   T**2         TX         TY         TZ
-------------------------------------------------------------------
   6:        73.04    1.834557  ( -0.826509  -1.037221   0.274977)
   7:        94.56    1.698395  (  0.804889  -0.756510   0.691550)
   8:        99.14    4.597078  ( -0.116558  -1.245069  -1.741636)
   9:       216.22    1.168706  ( -1.029382  -0.017317  -0.329815)
  10:       224.17    1.879939  ( -0.395125  -0.950316  -0.905933)
  11:       228.43    1.136864  ( -0.416006   0.073473  -0.978982)
  12:       284.22    4.704799  ( -1.950172   0.822814  -0.473923)
  13:       352.93    4.073591  ( -1.634583   0.289512   1.148004)
  14:       377.22    0.766792  (  0.254452  -0.394128  -0.739398)
  15:       452.73    3.569332  (  0.640396   0.166108  -1.769642)
  16:       659.98   20.726226  ( -0.397552  -0.546445  -4.502175)
  17:       791.32   10.400302  (  2.009944   2.480492   0.455617)
  18:       809.86   20.096127  (  4.057703  -1.831543   0.525952)
  19:       868.53  110.884083  (  5.788440  -1.516566  -8.664760)
  20:       925.01   13.759839  (  3.373317   1.205037  -0.963563)
  21:       987.43   35.607918  (  1.907755   5.539987  -1.130013)
  22:      1002.74   17.849934  (  3.933181  -1.399050  -0.650137)
  23:      1016.93   19.973667  (  0.019080  -0.916515   4.374163)
  24:      1076.98   11.247683  ( -0.413858  -3.263704   0.651644)
  25:      1148.26    1.159272  (  0.671422   0.452006  -0.710039)
  26:      1172.11    1.848760  (  1.113192  -0.543726   0.560292)
  27:      1175.00   10.722873  (  0.930429   0.483365  -3.102182)
  28:      1214.02    6.422696  (  0.498226   1.339463  -2.092918)
  29:      1301.47   11.117716  ( -0.419440  -0.887258   3.186622)
  30:      1304.99   16.290063  ( -1.045920  -3.765426   1.008801)
  31:      1330.11  196.886841  ( -0.407409   4.446638 -13.302190)
  32:      1364.10  119.142354  ( -2.214721  -1.802902  10.535033)
  33:      1384.42    1.908584  (  1.048176   0.113296   0.892790)
  34:      1393.81    7.292037  (  0.666831  -0.496806   2.569155)
  35:      1412.02   69.137632  ( -2.691307   0.293761   7.861819)
  36:      1457.62    5.890159  ( -0.137745  -0.756523   2.301925)
  37:      1473.12    5.272860  (  0.636983   1.347999   1.746428)
  38:      1481.47    6.080301  ( -0.932856  -1.595101   1.632707)
  39:      1488.87   15.116615  ( -3.507315   1.676854  -0.059277)
  40:      1491.65   23.664766  ( -2.089096  -2.186161   3.810662)
  41:      1493.79   24.635034  ( -2.304970  -2.734044  -3.441969)
  42:      1497.21   27.617182  ( -3.935723   3.379070   0.842109)
  43:      1654.31   49.901242  (  3.931765  -4.535545   3.724419)
  44:      1709.08  340.380201  (  0.240829  -2.216452  18.314190)
  45:      3046.23   15.706332  (  0.904280   3.743459  -0.935480)
  46:      3084.77    8.576565  ( -0.378358   1.187232  -2.650262)
  47:      3092.49    0.433104  ( -0.152137   0.382144  -0.513735)
  48:      3123.25   14.998866  ( -3.522425   1.470336   0.655361)
  49:      3144.23    1.075357  ( -0.429974  -0.568838  -0.752929)
  50:      3167.76    5.169391  (  0.339211   1.743245  -1.419657)
  51:      3191.03    2.529507  (  0.065016  -0.310772   1.558429)
  52:      3191.93    0.072033  ( -0.208376   0.169144   0.001638)
  53:      3193.79    0.003988  ( -0.015303   0.051124  -0.033770)
  54:      3209.17    2.776873  (  0.220765  -0.372519   1.609151)
  55:      3444.78   35.555963  (  4.112791  -4.169654   1.120221)
  56:      3496.97   64.667960  (  4.597259   5.780148   3.181675)

--------------------------
THERMOCHEMISTRY AT 298.15K
--------------------------

Temperature         ... 298.15 K
Pressure            ... 1.00 atm
Total Mass          ... 102.16 AMU

Throughout the following assumptions are being made:
  (1) The electronic state is orbitally nondegenerate
  (2) There are no thermally accessible electronically excited states
  (3) Hindered rotations indicated by low frequency modes) are not
      treated as such but are treated as vibrations and this may
      case some error
  (4) All equations used are the standard statistical mechanics
      equations for an ideal gas
  (5) All vibrations are strinctly harmonic

------------
INNER ENERGY
------------

The inner energy is: U= E(el) + E(ZPE) + E(vib) + E(rot) + E(trans)
    E(el)   - is the total energy from the electronic structure calculation
              = E(kin-el) + E(nuc-el) + E(el-el) + E(nuc-nuc)
    E(ZPE)  - the the zero temperature vibrational energy from the frequency calculation
    E(vib)  - the the finite temperature correction to E(ZPE) due to population
              of excietd vibrational states
    E(rot)  - is the rotational thermal energy
    E(trans)- is the translational thermal energy

Summary of contributions to the inner energy U:
Electronic energy                ...   -327.19932458 Eh
Zero point energy                ...      0.17513473 Eh     109.90 kcal/mol
Thermal vibrational correction   ...      0.00594996 Eh       3.73 kcal/mol
Thermal rotational correction    ...      0.00141627 Eh       0.89 kcal/mol
Thermal translational correction ...      0.00141627 Eh       0.89 kcal/mol
-----------------------------------------------------------------------
Total thermal energy                   -327.01540735 Eh

Summary of corrections to the electronic energy:
(perhaps to be used in another calculation)
Total thermal correction                  0.00878250 Eh       5.51 kcal/mol
Non-thermal (ZPE) correction              0.17513473 Eh     109.90 kcal/mol
-----------------------------------------------------------------------
Total correction                          0.18391723 Eh     115.41 kcal/mol

--------
ENTHALPY
--------

The enthalpy is H = U + kB*T
                kB is Boltzmann's constant
Total free energy                 ...   -327.01540735 Eh
Thermal Enthalpy correction       ...      0.00094421 Eh       0.59 kcal/mol
-----------------------------------------------------------------------
Total Enthalpy                    ...   -327.01446314 Eh

-------
ENTROPY
-------

The entropy contributions are T*S = T*(S(el)+S(vib)+S(rot)+S(trans)
     S(el)   - electronic entropy
     S(vib)  - vibrational entropy
     S(rot)  - rotational entropy
     S(trans)- translational entropy
The entropies will be listed as mutliplied by the temperature to get
units of energy

Electronic entropy                ...      0.00000000 Eh      0.00 kcal/mol
Vibrational entropy               ...      0.01104632 Eh      6.93 kcal/mol
Rotational entropy                ...      0.01232266 Eh      7.73 kcal/mol
Translational entropy             ...      0.01890147 Eh     11.86 kcal/mol
-----------------------------------------------------------------------
Final entropy term                ...      0.04227045 Eh     26.53 kcal/mol

CAUTION: The rotational entropy is not quite correctly treated here
         because it includes a symmetry number that is not yet correctly
         implemented in ORCA!
For a nonlinear molecule the correct rotational entropy is:
    S(rot) = R*(ln(qrot/sn)+1.5)
    R    = 8.31441 J/mol/K = 1.987191683e-3 kcal/mol/K
    qrot = 311693.8703019
    sn is the rotational symmetry number. We have assumed 3 here
       if it is different for your molecule then you should correct
       the printed rotational entropy by manually evaluating the equation
       as given above

For convenience we print out the resulting values for sn=1 - 12:
 sn= 1  qrot/sn=  311693.8703 T*S(rot)=     8.38 kcal/mol T*S(tot)=    27.18 kcal/mol
 sn= 2  qrot/sn=  155846.9352 T*S(rot)=     7.97 kcal/mol T*S(tot)=    26.77 kcal/mol
 sn= 3  qrot/sn=  103897.9568 T*S(rot)=     7.73 kcal/mol T*S(tot)=    26.53 kcal/mol
 sn= 4  qrot/sn=   77923.4676 T*S(rot)=     7.56 kcal/mol T*S(tot)=    26.35 kcal/mol
 sn= 5  qrot/sn=   62338.7741 T*S(rot)=     7.43 kcal/mol T*S(tot)=    26.22 kcal/mol
 sn= 6  qrot/sn=   51948.9784 T*S(rot)=     7.32 kcal/mol T*S(tot)=    26.11 kcal/mol
 sn= 7  qrot/sn=   44527.6958 T*S(rot)=     7.23 kcal/mol T*S(tot)=    26.02 kcal/mol
 sn= 8  qrot/sn=   38961.7338 T*S(rot)=     7.15 kcal/mol T*S(tot)=    25.94 kcal/mol
 sn= 9  qrot/sn=   34632.6523 T*S(rot)=     7.08 kcal/mol T*S(tot)=    25.87 kcal/mol
 sn=10  qrot/sn=   31169.3870 T*S(rot)=     7.02 kcal/mol T*S(tot)=    25.81 kcal/mol
 sn=11  qrot/sn=   28335.8064 T*S(rot)=     6.96 kcal/mol T*S(tot)=    25.76 kcal/mol
 sn=12  qrot/sn=   25974.4892 T*S(rot)=     6.91 kcal/mol T*S(tot)=    25.70 kcal/mol

-------------------
GIBBS FREE ENTHALPY
-------------------

The Gibbs free enthalpy is G = H - T*S

Total enthalpy                    ...   -327.01446314 Eh
Total entropy correction          ...     -0.04227045 Eh    -26.53 kcal/mol
-----------------------------------------------------------------------
Final Gibbs free enthalpy         ...   -327.05673358 Eh

For completeness - the Gibbs free enthalpy minus the electronic energy
G-E(el)                           ...      0.14259100 Eh     89.48 kcal/mol

                             ****ORCA TERMINATED NORMALLY****
TOTAL RUN TIME: 0 days 0 hours 47 minutes 19 seconds 950 msec
