                         Program Version 3.0.3 - RELEASE   -
|  1> ! NORI PBE0 def2-TZVP UseSym TightOPT Freq TightSCF Grid3 FinalGrid5 XYZFile
|  2> % pal
|  3>     nprocs 8
|  4> end
|  5> %method
|  6>     SymThresh 5.0e-2
|  7> end
|  8> % geom
|  9>     MaxIter 10
| 10> end
| 11> % maxcore 2000
| 12> % output
| 13>     printlevel mini
| 14>     print[ P_Basis ] 0
| 15>     print[ P_SCFInfo ] 1
| 16>     print[ P_SCFIterInfo ] 1
| 17>     print[ P_OrbEn ] 0
| 18>     print[ P_Cartesian ] 0
| 19> end
| 20> % elprop
| 21>     Dipole false
| 22> end
| 23> *xyz 1 1
| 24>  C        0.9068417120     0.9080522884     0.0940066623
| 25>  N        2.2881595638     0.3797099303     0.2593040205
| 26>  C        2.9233968233    -0.0763226466    -1.0041537024
| 27>  C        4.3213427784    -0.5801750256    -0.7872786675
| 28>  C        4.9487700068    -0.6175982756     0.3875933065
| 29>  O        4.7878066639    -0.9667058391    -1.9742565117
| 30>  C        6.1146442686    -1.4780112718    -2.0339001858
| 31>  H        0.5271714621     1.2154540873     1.0665174264
| 32>  H        0.2798031999     0.1220821498    -0.3221427762
| 33>  H        0.9373418138     1.7597372481    -0.5827105982
| 34>  H        2.8875929134     1.0941542089     0.6795973923
| 35>  H        2.2863623056    -0.4018508238     0.9189988481
| 36>  H        2.2957119929    -0.8629156936    -1.4284654917
| 37>  H        2.9251491824     0.7662954030    -1.6989291781
| 38>  H        5.9575778995    -0.9899139291     0.4859203842
| 39>  H        4.4889193791    -0.2802789912     1.3072155101
| 40>  H        6.2909122578    -1.7268095201    -3.0767450504
| 41>  H        6.2073540026    -2.3753468893    -1.4177295025
| 42>  H        6.8313717741    -0.7208064100    -1.7064418858
| 43> *
| 44>
| 45>                          ****END OF INPUT****
 Total Charge           Charge          ....    1
 Multiplicity           Mult            ....    1
 Number of Electrons    NEL             ....   56
FINAL SINGLE POINT ENERGY      -327.193825314064
FINAL SINGLE POINT ENERGY      -327.193828199128

CARTESIAN COORDINATES (ANGSTROEM)
---------------------------------
  C      1.665982    0.048965   -2.730471
  N      0.480735    0.003893   -1.832414
  C      0.811391    0.023283   -0.383776
  C     -0.415143   -0.010102    0.482122
  C     -1.669997   -0.048169    0.035388
  O     -0.000208    0.006063    1.748295
  C     -0.987465   -0.016195    2.772886
  H      1.327187    0.030195   -3.764663
  H      2.292641   -0.816489   -2.525122
  H      2.218265    0.965271   -2.533094
  H     -0.137801    0.793954   -2.031195
  H     -0.071668   -0.834946   -2.025533
  H      1.447981   -0.839175   -0.175914
  H      1.392104    0.926845   -0.187366
  H     -2.515635   -0.070274    0.707129
  H     -1.916208   -0.060062   -1.018165
  H     -0.441826    0.004648    3.712352
  H     -1.584070   -0.929725    2.709926
  H     -1.634972    0.861057    2.699478

FINAL SINGLE POINT ENERGY      -327.193829196315
                    ***********************HURRAY********************
 Multiplicity           Mult            ....    1
 Number of Electrons    NEL             ....   56
 Basis Dimension        Dim             ....  289
FINAL SINGLE POINT ENERGY      -327.193829753289

VIBRATIONAL FREQUENCIES
-----------------------

   0:         0.00 cm**-1
   1:         0.00 cm**-1
   2:         0.00 cm**-1
   3:         0.00 cm**-1
   4:         0.00 cm**-1
   5:         0.00 cm**-1
   6:        44.65 cm**-1
   7:        88.26 cm**-1
   8:       143.44 cm**-1
   9:       162.24 cm**-1
  10:       229.04 cm**-1
  11:       234.38 cm**-1
  12:       318.96 cm**-1
  13:       353.26 cm**-1
  14:       423.77 cm**-1
  15:       508.56 cm**-1
  16:       589.71 cm**-1
  17:       702.35 cm**-1
  18:       821.02 cm**-1
  19:       837.34 cm**-1
  20:       906.34 cm**-1
  21:       940.16 cm**-1
  22:       956.62 cm**-1
  23:       974.59 cm**-1
  24:      1054.18 cm**-1
  25:      1088.34 cm**-1
  26:      1144.03 cm**-1
  27:      1173.67 cm**-1
  28:      1179.91 cm**-1
  29:      1217.52 cm**-1
  30:      1306.33 cm**-1
  31:      1316.34 cm**-1
  32:      1382.81 cm**-1
  33:      1387.29 cm**-1
  34:      1437.48 cm**-1
  35:      1438.98 cm**-1
  36:      1460.57 cm**-1
  37:      1482.90 cm**-1
  38:      1487.46 cm**-1
  39:      1488.72 cm**-1
  40:      1493.13 cm**-1
  41:      1496.65 cm**-1
  42:      1500.22 cm**-1
  43:      1662.96 cm**-1
  44:      1724.68 cm**-1
  45:      3050.02 cm**-1
  46:      3090.25 cm**-1
  47:      3094.23 cm**-1
  48:      3127.98 cm**-1
  49:      3142.87 cm**-1
  50:      3190.06 cm**-1
  51:      3194.87 cm**-1
  52:      3195.98 cm**-1
  53:      3197.71 cm**-1
  54:      3278.66 cm**-1
  55:      3432.39 cm**-1
  56:      3477.57 cm**-1

IR SPECTRUM
-----------

 Mode    freq (cm**-1)   T**2         TX         TY         TZ
-------------------------------------------------------------------
   6:        44.65    0.359702  (  0.022817  -0.599311   0.002731)
   7:        88.26    2.635042  (  0.059201  -1.622147   0.013287)
   8:       143.44   13.819094  (  0.113158  -3.715618   0.021752)
   9:       162.24    1.963960  ( -1.078318  -0.031320   0.894544)
  10:       229.04    1.786343  ( -0.053556   1.335430  -0.010080)
  11:       234.38    0.013010  (  0.005025  -0.113738   0.006972)
  12:       318.96   11.112533  (  0.806004   0.042198   3.234364)
  13:       353.26   14.961914  (  1.803278   0.043787  -3.421723)
  14:       423.77    1.608248  ( -0.515636  -0.024666  -1.158343)
  15:       508.56    2.545703  ( -0.051644   1.594690  -0.000548)
  16:       589.71    3.761464  ( -1.586451  -0.057059  -1.114173)
  17:       702.35    4.667239  ( -0.074469   2.158981  -0.022211)
  18:       821.02   14.588960  (  0.138912  -3.816974   0.019416)
  19:       837.34   61.312656  (  0.250391  -7.826122   0.042135)
  20:       906.34   14.733490  (  3.471412   0.120042  -1.633517)
  21:       940.16   21.045744  ( -4.115677  -0.130400  -2.022360)
  22:       956.62    1.749005  (  1.040279   0.031009  -0.816005)
  23:       974.59    1.547184  ( -0.053720   1.242691  -0.004075)
  24:      1054.18    1.812243  ( -1.316363  -0.042383   0.278634)
  25:      1088.34   89.320101  ( -3.539578  -0.069779   8.762797)
  26:      1144.03    0.000216  ( -0.006162  -0.003660  -0.012822)
  27:      1173.67    0.918166  (  0.027070  -0.957807   0.006208)
  28:      1179.91    0.396608  (  0.601180   0.025345   0.185871)
  29:      1217.52    6.286868  ( -1.506936  -0.054019  -2.003270)
  30:      1306.33    2.261529  (  0.047472  -1.502819  -0.028489)
  31:      1316.34  104.111546  (  0.241338  -0.029467 -10.200609)
  32:      1382.81  187.430181  ( -2.246513  -0.031540  13.504902)
  33:      1387.29    0.607076  (  0.126497  -0.076417  -0.765006)
  34:      1437.48    8.268676  (  2.138270   0.058199  -1.921741)
  35:      1438.98    4.361368  (  2.009540   0.067985   0.564354)
  36:      1460.57    0.614133  ( -0.771202  -0.042871   0.132450)
  37:      1482.90   30.434823  (  4.947785   0.142957  -2.435942)
  38:      1487.46   16.395495  ( -0.133647   4.046908  -0.013012)
  39:      1488.72    0.322456  (  0.112611   0.003973   0.556560)
  40:      1493.13   23.428184  (  0.196080  -4.835195   0.103064)
  41:      1496.65   46.868909  ( -2.222088  -0.165467  -6.473319)
  42:      1500.22    6.371267  ( -2.508548  -0.083913   0.267234)
  43:      1662.96   33.029724  ( -5.742235  -0.203586  -0.122540)
  44:      1724.68  155.048307  ( -8.100373  -0.289745  -9.452424)
  45:      3050.02   15.293974  (  2.572517   0.083633  -2.944339)
  46:      3090.25    0.482813  (  0.667689   0.023476  -0.190928)
  47:      3094.23    0.125761  ( -0.315499  -0.008724   0.161696)
  48:      3127.98   12.376570  (  0.116160  -3.516117  -0.001334)
  49:      3142.87    0.416077  ( -0.020994   0.644672  -0.005935)
  50:      3190.06    2.472474  (  0.652000   0.019811   1.430726)
  51:      3194.87    1.083085  ( -1.029329  -0.003668   0.153471)
  52:      3195.98    9.003322  (  2.407000   0.074601  -1.790002)
  53:      3197.71    0.083019  (  0.023739   0.284301   0.040351)
  54:      3278.66    3.141461  (  1.205919   0.043356   1.298207)
  55:      3432.39   39.161015  (  6.001135   0.142708   1.768342)
  56:      3477.57   70.518823  (  0.247230  -8.393814  -0.039792)

--------------------------
THERMOCHEMISTRY AT 298.15K
--------------------------

Temperature         ... 298.15 K
Pressure            ... 1.00 atm
Total Mass          ... 102.16 AMU

Throughout the following assumptions are being made:
  (1) The electronic state is orbitally nondegenerate
  (2) There are no thermally accessible electronically excited states
  (3) Hindered rotations indicated by low frequency modes) are not
      treated as such but are treated as vibrations and this may
      case some error
  (4) All equations used are the standard statistical mechanics
      equations for an ideal gas
  (5) All vibrations are strinctly harmonic

------------
INNER ENERGY
------------

The inner energy is: U= E(el) + E(ZPE) + E(vib) + E(rot) + E(trans)
    E(el)   - is the total energy from the electronic structure calculation
              = E(kin-el) + E(nuc-el) + E(el-el) + E(nuc-nuc)
    E(ZPE)  - the the zero temperature vibrational energy from the frequency calculation
    E(vib)  - the the finite temperature correction to E(ZPE) due to population
              of excietd vibrational states
    E(rot)  - is the rotational thermal energy
    E(trans)- is the translational thermal energy

Summary of contributions to the inner energy U:
Electronic energy                ...   -327.19382975 Eh
Zero point energy                ...      0.17457925 Eh     109.55 kcal/mol
Thermal vibrational correction   ...      0.00598722 Eh       3.76 kcal/mol
Thermal rotational correction    ...      0.00141627 Eh       0.89 kcal/mol
Thermal translational correction ...      0.00141627 Eh       0.89 kcal/mol
-----------------------------------------------------------------------
Total thermal energy                   -327.01043074 Eh

Summary of corrections to the electronic energy:
(perhaps to be used in another calculation)
Total thermal correction                  0.00881976 Eh       5.53 kcal/mol
Non-thermal (ZPE) correction              0.17457925 Eh     109.55 kcal/mol
-----------------------------------------------------------------------
Total correction                          0.18339901 Eh     115.08 kcal/mol

--------
ENTHALPY
--------

The enthalpy is H = U + kB*T
                kB is Boltzmann's constant
Total free energy                 ...   -327.01043074 Eh
Thermal Enthalpy correction       ...      0.00094421 Eh       0.59 kcal/mol
-----------------------------------------------------------------------
Total Enthalpy                    ...   -327.00948653 Eh

-------
ENTROPY
-------

The entropy contributions are T*S = T*(S(el)+S(vib)+S(rot)+S(trans)
     S(el)   - electronic entropy
     S(vib)  - vibrational entropy
     S(rot)  - rotational entropy
     S(trans)- translational entropy
The entropies will be listed as mutliplied by the temperature to get
units of energy

Electronic entropy                ...      0.00000000 Eh      0.00 kcal/mol
Vibrational entropy               ...      0.01134976 Eh      7.12 kcal/mol
Rotational entropy                ...      0.01221431 Eh      7.66 kcal/mol
Translational entropy             ...      0.01890147 Eh     11.86 kcal/mol
-----------------------------------------------------------------------
Final entropy term                ...      0.04246554 Eh     26.65 kcal/mol

CAUTION: The rotational entropy is not quite correctly treated here
         because it includes a symmetry number that is not yet correctly
         implemented in ORCA!
For a nonlinear molecule the correct rotational entropy is:
    S(rot) = R*(ln(qrot/sn)+1.5)
    R    = 8.31441 J/mol/K = 1.987191683e-3 kcal/mol/K
    qrot = 277901.1226352
    sn is the rotational symmetry number. We have assumed 3 here
       if it is different for your molecule then you should correct
       the printed rotational entropy by manually evaluating the equation
       as given above

For convenience we print out the resulting values for sn=1 - 12:
 sn= 1  qrot/sn=  277901.1226 T*S(rot)=     8.32 kcal/mol T*S(tot)=    27.30 kcal/mol
 sn= 2  qrot/sn=  138950.5613 T*S(rot)=     7.90 kcal/mol T*S(tot)=    26.89 kcal/mol
 sn= 3  qrot/sn=   92633.7075 T*S(rot)=     7.66 kcal/mol T*S(tot)=    26.65 kcal/mol
 sn= 4  qrot/sn=   69475.2807 T*S(rot)=     7.49 kcal/mol T*S(tot)=    26.48 kcal/mol
 sn= 5  qrot/sn=   55580.2245 T*S(rot)=     7.36 kcal/mol T*S(tot)=    26.34 kcal/mol
 sn= 6  qrot/sn=   46316.8538 T*S(rot)=     7.25 kcal/mol T*S(tot)=    26.24 kcal/mol
 sn= 7  qrot/sn=   39700.1604 T*S(rot)=     7.16 kcal/mol T*S(tot)=    26.15 kcal/mol
 sn= 8  qrot/sn=   34737.6403 T*S(rot)=     7.08 kcal/mol T*S(tot)=    26.07 kcal/mol
 sn= 9  qrot/sn=   30877.9025 T*S(rot)=     7.01 kcal/mol T*S(tot)=    26.00 kcal/mol
 sn=10  qrot/sn=   27790.1123 T*S(rot)=     6.95 kcal/mol T*S(tot)=    25.93 kcal/mol
 sn=11  qrot/sn=   25263.7384 T*S(rot)=     6.89 kcal/mol T*S(tot)=    25.88 kcal/mol
 sn=12  qrot/sn=   23158.4269 T*S(rot)=     6.84 kcal/mol T*S(tot)=    25.83 kcal/mol

-------------------
GIBBS FREE ENTHALPY
-------------------

The Gibbs free enthalpy is G = H - T*S

Total enthalpy                    ...   -327.00948653 Eh
Total entropy correction          ...     -0.04246554 Eh    -26.65 kcal/mol
-----------------------------------------------------------------------
Final Gibbs free enthalpy         ...   -327.05195207 Eh

For completeness - the Gibbs free enthalpy minus the electronic energy
G-E(el)                           ...      0.14187769 Eh     89.03 kcal/mol

                             ****ORCA TERMINATED NORMALLY****
TOTAL RUN TIME: 0 days 0 hours 51 minutes 34 seconds 538 msec
