                         Program Version 3.0.3 - RELEASE   -
|  1> ! NORI PBE0 def2-TZVP UseSym TightOPT Freq TightSCF Grid3 FinalGrid5 XYZFile
|  2> % pal
|  3>     nprocs 8
|  4> end
|  5> %method
|  6>     SymThresh 5.0e-2
|  7> end
|  8> % geom
|  9>     MaxIter 10
| 10> end
| 11> % maxcore 2000
| 12> % output
| 13>     printlevel mini
| 14>     print[ P_Basis ] 0
| 15>     print[ P_SCFInfo ] 1
| 16>     print[ P_SCFIterInfo ] 1
| 17>     print[ P_OrbEn ] 0
| 18>     print[ P_Cartesian ] 0
| 19> end
| 20> % elprop
| 21>     Dipole false
| 22> end
| 23> *xyz 1 1
| 24>  C        1.3107738118    -0.5513929331     2.5524092634
| 25>  N        2.7593029998    -0.3231895581     2.3325725189
| 26>  C        3.2265968404    -0.5251943929     0.9282226141
| 27>  C        4.7468539737    -0.6283433476     0.9382108622
| 28>  C        5.4479748665     0.7079992981     1.0988802018
| 29>  O        5.0069833703    -1.5253391565     1.9975758747
| 30>  C        6.2976648852    -2.1157019083     2.0043531219
| 31>  H        1.0773874749    -0.3791081992     3.6016305572
| 32>  H        1.0764287297    -1.5793442648     2.2833873667
| 33>  H        0.7438494065     0.1345523491     1.9260817500
| 34>  H        3.0124051732     0.6152839538     2.6430629071
| 35>  H        3.3363712644    -0.9719983531     2.8877713497
| 36>  H        2.7841111237    -1.4630174254     0.5919852805
| 37>  H        2.8572930776     0.2938784618     0.3115928783
| 38>  H        5.0425787090    -1.0801417732    -0.0181435243
| 39>  H        5.1940931338     1.2003869909     2.0433016704
| 40>  H        5.1906039620     1.3776916947     0.2754677562
| 41>  H        6.5304032403     0.5793987428     1.0859215049
| 42>  H        6.3092624200    -2.8359563122     2.8202737646
| 43>  H        7.0794541363    -1.3711654816     2.1752097349
| 44>  H        6.4863174010    -2.6372183851     1.0607425466
| 45> *
| 46>
| 47>                          ****END OF INPUT****
 Total Charge           Charge          ....    1
 Multiplicity           Mult            ....    1
 Number of Electrons    NEL             ....   58
FINAL SINGLE POINT ENERGY      -328.426479265198
FINAL SINGLE POINT ENERGY      -328.426481791048
FINAL SINGLE POINT ENERGY      -328.426483095517

CARTESIAN COORDINATES (ANGSTROEM)
---------------------------------
  C      2.080815    0.689935   -1.943634
  N      1.080608    0.001297   -1.092736
  C     -0.223207    0.715441   -0.940025
  C     -0.978517    0.089101    0.225718
  C     -1.612860   -1.248440   -0.110043
  O     -0.000538    0.003481    1.241327
  C     -0.493973   -0.182361    2.559009
  H      2.986238    0.087257   -1.988756
  H      2.302048    1.660273   -1.503801
  H      1.668541    0.820222   -2.942564
  H      0.911435   -0.939710   -1.449868
  H      1.419886   -0.117656   -0.127057
  H      0.022047    1.754790   -0.721313
  H     -0.769064    0.659509   -1.881460
  H     -1.762389    0.800315    0.517972
  H     -0.869888   -1.998745   -0.397581
  H     -2.332276   -1.137793   -0.924048
  H     -2.154394   -1.646642    0.747913
  H      0.364378   -0.130725    3.225809
  H     -0.976369   -1.156250    2.673774
  H     -1.201233    0.611021    2.819291

FINAL SINGLE POINT ENERGY      -328.426483499432
                    ***********************HURRAY********************
 Multiplicity           Mult            ....    1
 Number of Electrons    NEL             ....   58
 Basis Dimension        Dim             ....  301
FINAL SINGLE POINT ENERGY      -328.426483843355

VIBRATIONAL FREQUENCIES
-----------------------

   0:         0.00 cm**-1
   1:         0.00 cm**-1
   2:         0.00 cm**-1
   3:         0.00 cm**-1
   4:         0.00 cm**-1
   5:         0.00 cm**-1
   6:        68.26 cm**-1
   7:        78.13 cm**-1
   8:       119.99 cm**-1
   9:       174.12 cm**-1
  10:       186.33 cm**-1
  11:       228.25 cm**-1
  12:       241.94 cm**-1
  13:       309.33 cm**-1
  14:       348.52 cm**-1
  15:       376.53 cm**-1
  16:       454.78 cm**-1
  17:       628.85 cm**-1
  18:       810.79 cm**-1
  19:       821.96 cm**-1
  20:       906.21 cm**-1
  21:       925.24 cm**-1
  22:       943.13 cm**-1
  23:      1049.85 cm**-1
  24:      1057.90 cm**-1
  25:      1076.39 cm**-1
  26:      1117.95 cm**-1
  27:      1164.00 cm**-1
  28:      1175.80 cm**-1
  29:      1177.92 cm**-1
  30:      1195.98 cm**-1
  31:      1235.82 cm**-1
  32:      1307.89 cm**-1
  33:      1353.01 cm**-1
  34:      1365.99 cm**-1
  35:      1373.82 cm**-1
  36:      1401.38 cm**-1
  37:      1416.37 cm**-1
  38:      1428.60 cm**-1
  39:      1460.70 cm**-1
  40:      1472.34 cm**-1
  41:      1475.80 cm**-1
  42:      1485.26 cm**-1
  43:      1488.24 cm**-1
  44:      1494.10 cm**-1
  45:      1496.91 cm**-1
  46:      1501.83 cm**-1
  47:      1505.64 cm**-1
  48:      1660.35 cm**-1
  49:      3033.45 cm**-1
  50:      3041.47 cm**-1
  51:      3052.40 cm**-1
  52:      3091.45 cm**-1
  53:      3107.07 cm**-1
  54:      3115.74 cm**-1
  55:      3128.96 cm**-1
  56:      3154.11 cm**-1
  57:      3170.39 cm**-1
  58:      3170.62 cm**-1
  59:      3190.22 cm**-1
  60:      3193.57 cm**-1
  61:      3342.18 cm**-1
  62:      3485.29 cm**-1

IR SPECTRUM
-----------

 Mode    freq (cm**-1)   T**2         TX         TY         TZ
-------------------------------------------------------------------
   6:        68.26    4.005681  ( -0.047554   1.947699   0.458135)
   7:        78.13    2.167803  (  0.735198   1.187410  -0.466202)
   8:       119.99    5.472743  (  1.157869   0.939315   1.802712)
   9:       174.12    7.140924  (  1.540103   1.204376  -1.821672)
  10:       186.33    7.236893  ( -1.446551   0.741231   2.143586)
  11:       228.25    0.748964  (  0.396976  -0.750638  -0.167083)
  12:       241.94    5.975572  (  0.133533   0.558105   2.376186)
  13:       309.33    3.796916  (  0.565624  -1.826235  -0.376634)
  14:       348.52   10.917309  (  2.946768  -0.336171  -1.456317)
  15:       376.53    2.404939  ( -0.683610  -0.299113   1.359466)
  16:       454.78    6.492352  (  1.536945   2.010692   0.295420)
  17:       628.85    6.428758  (  2.356385  -0.053183  -0.934548)
  18:       810.79   12.044678  ( -0.001193   1.475292   3.141367)
  19:       821.96    9.216138  (  3.015946   0.189971   0.290029)
  20:       906.21    3.142699  ( -0.285256  -1.283969  -1.188592)
  21:       925.24   12.901080  ( -3.517878   0.326906   0.647105)
  22:       943.13    6.367958  (  2.426043   0.385996  -0.577304)
  23:      1049.85    8.320853  ( -2.299594  -1.268718   1.192927)
  24:      1057.90    1.848304  ( -0.565363  -0.621538   1.068812)
  25:      1076.39    7.851498  ( -2.217415   0.604168   1.602982)
  26:      1117.95   40.957670  ( -1.997791   0.421694   6.065367)
  27:      1164.00   51.359530  (  2.504927  -0.738273   6.673816)
  28:      1175.80   47.887685  (  0.783524   2.618948  -6.357270)
  29:      1177.92   78.477542  (  2.089144   0.998698  -8.550767)
  30:      1195.98    5.725784  (  0.254319  -1.108256  -2.105439)
  31:      1235.82   27.022631  ( -3.044600  -0.290215  -4.203429)
  32:      1307.89   11.297576  (  3.231399   0.833381  -0.401392)
  33:      1353.01    6.308433  (  2.437335   0.558193   0.237170)
  34:      1365.99   72.574133  (  6.273789   0.557924  -5.736064)
  35:      1373.82    0.520964  (  0.543445   0.063898  -0.470689)
  36:      1401.38   18.441000  ( -0.974113   0.777599   4.109434)
  37:      1416.37   24.516282  ( -1.678843  -3.633175  -2.915100)
  38:      1428.60   51.052912  ( -6.392568   0.011682   3.191842)
  39:      1460.70    1.352978  (  0.913319   0.677331  -0.245049)
  40:      1472.34    7.815968  (  2.757658  -0.158293  -0.431549)
  41:      1475.80    7.055529  ( -0.470685   0.839021   2.475889)
  42:      1485.26   11.783468  ( -0.505948   3.321234   0.704906)
  43:      1488.24   25.359749  (  2.986116   1.082905  -3.907707)
  44:      1494.10   19.524095  (  3.393238   1.274978   2.526750)
  45:      1496.91   15.515885  (  0.770727  -3.859796  -0.154409)
  46:      1501.83    5.593051  (  1.042164   0.917192   1.914603)
  47:      1505.64   32.311587  (  4.801946  -2.998755   0.510269)
  48:      1660.35   36.908343  (  0.288138  -5.086887   3.308913)
  49:      3033.45    7.216837  ( -1.321081   1.956308  -1.282357)
  50:      3041.47   29.325145  (  2.824606  -0.021379  -4.620204)
  51:      3052.40   10.514087  (  1.889051  -2.367083  -1.158659)
  52:      3091.45    0.602757  (  0.379245   0.226861  -0.638329)
  53:      3107.07    1.965206  (  0.278626   0.837623  -1.089018)
  54:      3115.74   20.125724  (  0.637965  -4.439396  -0.102402)
  55:      3128.96   10.271571  ( -2.962520   1.209264   0.180907)
  56:      3154.11    3.897530  (  0.393216   0.601406  -1.838810)
  57:      3170.39    4.556437  (  1.832393   0.248357   1.066346)
  58:      3170.62    1.546719  ( -0.688548  -0.363555  -0.969767)
  59:      3190.22    0.061675  (  0.027799   0.146322   0.198727)
  60:      3193.57    0.175838  (  0.168028   0.185679  -0.336344)
  61:      3342.18  148.623269  ( -0.691082  -2.734218  11.860427)
  62:      3485.29   57.506785  ( -1.005849  -6.034158  -4.481516)

--------------------------
THERMOCHEMISTRY AT 298.15K
--------------------------

Temperature         ... 298.15 K
Pressure            ... 1.00 atm
Total Mass          ... 104.17 AMU

Throughout the following assumptions are being made:
  (1) The electronic state is orbitally nondegenerate
  (2) There are no thermally accessible electronically excited states
  (3) Hindered rotations indicated by low frequency modes) are not
      treated as such but are treated as vibrations and this may
      case some error
  (4) All equations used are the standard statistical mechanics
      equations for an ideal gas
  (5) All vibrations are strinctly harmonic

------------
INNER ENERGY
------------

The inner energy is: U= E(el) + E(ZPE) + E(vib) + E(rot) + E(trans)
    E(el)   - is the total energy from the electronic structure calculation
              = E(kin-el) + E(nuc-el) + E(el-el) + E(nuc-nuc)
    E(ZPE)  - the the zero temperature vibrational energy from the frequency calculation
    E(vib)  - the the finite temperature correction to E(ZPE) due to population
              of excietd vibrational states
    E(rot)  - is the rotational thermal energy
    E(trans)- is the translational thermal energy

Summary of contributions to the inner energy U:
Electronic energy                ...   -328.42648384 Eh
Zero point energy                ...      0.19783397 Eh     124.14 kcal/mol
Thermal vibrational correction   ...      0.00658182 Eh       4.13 kcal/mol
Thermal rotational correction    ...      0.00141627 Eh       0.89 kcal/mol
Thermal translational correction ...      0.00141627 Eh       0.89 kcal/mol
-----------------------------------------------------------------------
Total thermal energy                   -328.21923552 Eh

Summary of corrections to the electronic energy:
(perhaps to be used in another calculation)
Total thermal correction                  0.00941436 Eh       5.91 kcal/mol
Non-thermal (ZPE) correction              0.19783397 Eh     124.14 kcal/mol
-----------------------------------------------------------------------
Total correction                          0.20724833 Eh     130.05 kcal/mol

--------
ENTHALPY
--------

The enthalpy is H = U + kB*T
                kB is Boltzmann's constant
Total free energy                 ...   -328.21923552 Eh
Thermal Enthalpy correction       ...      0.00094421 Eh       0.59 kcal/mol
-----------------------------------------------------------------------
Total Enthalpy                    ...   -328.21829131 Eh

-------
ENTROPY
-------

The entropy contributions are T*S = T*(S(el)+S(vib)+S(rot)+S(trans)
     S(el)   - electronic entropy
     S(vib)  - vibrational entropy
     S(rot)  - rotational entropy
     S(trans)- translational entropy
The entropies will be listed as mutliplied by the temperature to get
units of energy

Electronic entropy                ...      0.00000000 Eh      0.00 kcal/mol
Vibrational entropy               ...      0.01229351 Eh      7.71 kcal/mol
Rotational entropy                ...      0.01230667 Eh      7.72 kcal/mol
Translational entropy             ...      0.01892914 Eh     11.88 kcal/mol
-----------------------------------------------------------------------
Final entropy term                ...      0.04352932 Eh     27.32 kcal/mol

CAUTION: The rotational entropy is not quite correctly treated here
         because it includes a symmetry number that is not yet correctly
         implemented in ORCA!
For a nonlinear molecule the correct rotational entropy is:
    S(rot) = R*(ln(qrot/sn)+1.5)
    R    = 8.31441 J/mol/K = 1.987191683e-3 kcal/mol/K
    qrot = 306457.9377327
    sn is the rotational symmetry number. We have assumed 3 here
       if it is different for your molecule then you should correct
       the printed rotational entropy by manually evaluating the equation
       as given above

For convenience we print out the resulting values for sn=1 - 12:
 sn= 1  qrot/sn=  306457.9377 T*S(rot)=     8.37 kcal/mol T*S(tot)=    27.97 kcal/mol
 sn= 2  qrot/sn=  153228.9689 T*S(rot)=     7.96 kcal/mol T*S(tot)=    27.56 kcal/mol
 sn= 3  qrot/sn=  102152.6459 T*S(rot)=     7.72 kcal/mol T*S(tot)=    27.32 kcal/mol
 sn= 4  qrot/sn=   76614.4844 T*S(rot)=     7.55 kcal/mol T*S(tot)=    27.14 kcal/mol
 sn= 5  qrot/sn=   61291.5875 T*S(rot)=     7.42 kcal/mol T*S(tot)=    27.01 kcal/mol
 sn= 6  qrot/sn=   51076.3230 T*S(rot)=     7.31 kcal/mol T*S(tot)=    26.90 kcal/mol
 sn= 7  qrot/sn=   43779.7054 T*S(rot)=     7.22 kcal/mol T*S(tot)=    26.81 kcal/mol
 sn= 8  qrot/sn=   38307.2422 T*S(rot)=     7.14 kcal/mol T*S(tot)=    26.73 kcal/mol
 sn= 9  qrot/sn=   34050.8820 T*S(rot)=     7.07 kcal/mol T*S(tot)=    26.66 kcal/mol
 sn=10  qrot/sn=   30645.7938 T*S(rot)=     7.01 kcal/mol T*S(tot)=    26.60 kcal/mol
 sn=11  qrot/sn=   27859.8125 T*S(rot)=     6.95 kcal/mol T*S(tot)=    26.55 kcal/mol
 sn=12  qrot/sn=   25538.1615 T*S(rot)=     6.90 kcal/mol T*S(tot)=    26.49 kcal/mol

-------------------
GIBBS FREE ENTHALPY
-------------------

The Gibbs free enthalpy is G = H - T*S

Total enthalpy                    ...   -328.21829131 Eh
Total entropy correction          ...     -0.04352932 Eh    -27.32 kcal/mol
-----------------------------------------------------------------------
Final Gibbs free enthalpy         ...   -328.26182063 Eh

For completeness - the Gibbs free enthalpy minus the electronic energy
G-E(el)                           ...      0.16466322 Eh    103.33 kcal/mol

                             ****ORCA TERMINATED NORMALLY****
TOTAL RUN TIME: 0 days 1 hours 0 minutes 17 seconds 504 msec
