                         Program Version 3.0.3 - RELEASE   -
|  1> ! NORI PBE0 def2-TZVP UseSym TightOPT Freq TightSCF Grid3 FinalGrid5 XYZFile
|  2> % pal
|  3>     nprocs 8
|  4> end
|  5> %method
|  6>     SymThresh 5.0e-2
|  7> end
|  8> % geom
|  9>     MaxIter 10
| 10> end
| 11> % maxcore 2000
| 12> % output
| 13>     printlevel mini
| 14>     print[ P_Basis ] 0
| 15>     print[ P_SCFInfo ] 1
| 16>     print[ P_SCFIterInfo ] 1
| 17>     print[ P_OrbEn ] 0
| 18>     print[ P_Cartesian ] 0
| 19> end
| 20> % elprop
| 21>     Dipole false
| 22> end
| 23> *xyz 1 1
| 24>  C        0.9179792392    -0.2791143353    -0.1408676469
| 25>  N        2.3715559836     0.0729344652    -0.1821789053
| 26>  C        2.7597399677     0.6940572347    -1.4870651473
| 27>  C        2.8288533331     0.8524350931     1.0064687825
| 28>  C        2.1733550780     2.2257421489     1.1094563084
| 29>  O        2.5517702116     2.9508287354     2.1491788231
| 30>  O        1.3793023011     2.6222048341     0.3124455036
| 31>  H        0.7164543963    -0.9702473993    -0.9578271044
| 32>  H        0.3383201731     0.6316555217    -0.2562572827
| 33>  H        0.6997198144    -0.7583788746     0.8129079152
| 34>  H        2.8794238195    -0.8114262227    -0.1264206793
| 35>  H        2.2027789318     1.6179477580    -1.6078110600
| 36>  H        2.5146954134    -0.0105815528    -2.2800609018
| 37>  H        3.8317628949     0.8865382686    -1.4785163141
| 38>  H        3.9144399726     0.9599238795     0.9334648355
| 39>  H        2.6008175703     0.2606302207     1.8971709651
| 40>  H        3.1994508996     2.5201602247     2.7213519085
| 41> *
| 42>
| 43>                          ****END OF INPUT****
 Total Charge           Charge          ....    1
 Multiplicity           Mult            ....    1
 Number of Electrons    NEL             ....   56
FINAL SINGLE POINT ENERGY      -363.130433348175
FINAL SINGLE POINT ENERGY      -363.130434887171

CARTESIAN COORDINATES (ANGSTROEM)
---------------------------------
  C     -1.674118    0.042704    1.239962
  N     -1.221722   -0.662401    0.000000
  C     -1.674117    0.042702   -1.239962
  C      0.235562   -0.990240    0.000001
  C      1.128262    0.246895    0.000002
  O      2.427908    0.000232   -0.000002
  O      0.692201    1.357320    0.000006
  H     -2.760355    0.104959    1.213453
  H     -1.232636    1.034311    1.253568
  H     -1.356465   -0.534067    2.107404
  H     -1.693579   -1.567942    0.000000
  H     -1.232635    1.034309   -1.253570
  H     -2.760354    0.104958   -1.213454
  H     -1.356464   -0.534069   -2.107404
  H      0.437457   -1.597671   -0.886098
  H      0.437457   -1.597672    0.886099
  H      2.655922   -0.937835   -0.000005

FINAL SINGLE POINT ENERGY      -363.130435294560
                    ***********************HURRAY********************
 Multiplicity           Mult            ....    1
 Number of Electrons    NEL             ....   56
 Basis Dimension        Dim             ....  277
FINAL SINGLE POINT ENERGY      -363.130434179737

VIBRATIONAL FREQUENCIES
-----------------------

   0:         0.00 cm**-1
   1:         0.00 cm**-1
   2:         0.00 cm**-1
   3:         0.00 cm**-1
   4:         0.00 cm**-1
   5:         0.00 cm**-1
   6:        70.09 cm**-1
   7:       130.81 cm**-1
   8:       225.43 cm**-1
   9:       227.77 cm**-1
  10:       237.12 cm**-1
  11:       325.38 cm**-1
  12:       381.70 cm**-1
  13:       417.67 cm**-1
  14:       427.00 cm**-1
  15:       512.77 cm**-1
  16:       591.68 cm**-1
  17:       705.43 cm**-1
  18:       809.20 cm**-1
  19:       884.48 cm**-1
  20:       954.41 cm**-1
  21:      1021.87 cm**-1
  22:      1024.26 cm**-1
  23:      1046.41 cm**-1
  24:      1147.21 cm**-1
  25:      1166.10 cm**-1
  26:      1206.21 cm**-1
  27:      1264.22 cm**-1
  28:      1309.05 cm**-1
  29:      1328.40 cm**-1
  30:      1389.12 cm**-1
  31:      1416.31 cm**-1
  32:      1431.74 cm**-1
  33:      1447.23 cm**-1
  34:      1456.24 cm**-1
  35:      1480.71 cm**-1
  36:      1488.04 cm**-1
  37:      1494.98 cm**-1
  38:      1502.37 cm**-1
  39:      1516.21 cm**-1
  40:      1888.77 cm**-1
  41:      3077.62 cm**-1
  42:      3093.52 cm**-1
  43:      3096.00 cm**-1
  44:      3133.53 cm**-1
  45:      3186.88 cm**-1
  46:      3189.50 cm**-1
  47:      3218.77 cm**-1
  48:      3220.16 cm**-1
  49:      3461.49 cm**-1
  50:      3814.24 cm**-1

IR SPECTRUM
-----------

 Mode    freq (cm**-1)   T**2         TX         TY         TZ
-------------------------------------------------------------------
   6:        70.09    2.192368  ( -0.002053  -0.000813   1.480663)
   7:       130.81    7.318042  ( -0.000901  -0.001098   2.705188)
   8:       225.43    2.938784  (  0.050388   0.015043  -1.713482)
   9:       227.77   19.216917  ( -4.234741  -1.132891  -0.021113)
  10:       237.12    1.119956  (  0.831169   0.655068   0.000189)
  11:       325.38    2.730617  ( -1.584109  -0.470330   0.002413)
  12:       381.70    1.245050  (  0.000674  -0.000625   1.115818)
  13:       417.67    0.454440  (  0.523050  -0.425267   0.002674)
  14:       427.00   95.247521  (  0.006977   0.000343   9.759481)
  15:       512.77    1.304702  (  0.393967   1.072142  -0.001804)
  16:       591.68   12.023352  (  0.006959  -0.005816  -3.467459)
  17:       705.43   10.481980  (  1.933188   2.597068  -0.000207)
  18:       809.20    4.101330  (  1.291962  -1.559539  -0.000421)
  19:       884.48    5.292191  ( -1.891915   1.308758  -0.001163)
  20:       954.41   25.781521  (  0.006697  -0.002799   5.077545)
  21:      1021.87    3.029446  (  0.024005  -0.008792  -1.740343)
  22:      1024.26   29.900453  (  5.185451  -1.735371   0.005801)
  23:      1046.41    4.246781  ( -0.000674  -0.000165   2.060772)
  24:      1147.21    0.509942  (  0.004767  -0.001358  -0.714085)
  25:      1166.10    0.108439  (  0.115059   0.308545  -0.000767)
  26:      1206.21   72.434725  ( -8.265629   2.028323  -0.001078)
  27:      1264.22   10.318838  (  3.211791  -0.056870  -0.000043)
  28:      1309.05  304.803509  (-17.407635   1.333321  -0.002015)
  29:      1328.40    0.065881  ( -0.016873   0.001229   0.256114)
  30:      1389.12   70.991902  ( -7.927548  -2.854099  -0.000349)
  31:      1416.31    7.174264  ( -0.001918   0.000728   2.678481)
  32:      1431.74    7.584712  (  0.002159  -0.005845   2.754029)
  33:      1447.23   23.966663  (  3.158166   3.740675  -0.001095)
  34:      1456.24   37.669073  ( -4.763996   3.869548   0.003473)
  35:      1480.71    9.625965  (  0.004060   0.002208   3.102571)
  36:      1488.04   25.806168  (  4.869706   1.446420   0.000896)
  37:      1494.98   10.730510  ( -0.005717   0.000444   3.275741)
  38:      1502.37   29.607358  ( -1.010463  -5.346617   0.001780)
  39:      1516.21   47.108841  ( -6.515539   2.157912  -0.003135)
  40:      1888.77  224.106889  (  7.937117 -12.692875   0.001430)
  41:      3077.62    1.894500  ( -1.210281  -0.655530   0.000368)
  42:      3093.52    0.951505  (  0.000121   0.001261  -0.975450)
  43:      3096.00    2.998363  (  1.111098   1.328090   0.001027)
  44:      3133.53    0.787424  (  0.000368   0.001223   0.887368)
  45:      3186.88    0.047397  (  0.000963   0.000394   0.217706)
  46:      3189.50    0.127666  ( -0.338796  -0.113502  -0.000850)
  47:      3218.77    0.242023  (  0.002163  -0.000241   0.491953)
  48:      3220.16    9.990224  (  2.380177   2.079658   0.001873)
  49:      3461.49   68.671330  (  4.389418   7.028822   0.000726)
  50:      3814.24  115.160585  (  7.112668  -8.035579   0.003347)

--------------------------
THERMOCHEMISTRY AT 298.15K
--------------------------

Temperature         ... 298.15 K
Pressure            ... 1.00 atm
Total Mass          ... 104.13 AMU

Throughout the following assumptions are being made:
  (1) The electronic state is orbitally nondegenerate
  (2) There are no thermally accessible electronically excited states
  (3) Hindered rotations indicated by low frequency modes) are not
      treated as such but are treated as vibrations and this may
      case some error
  (4) All equations used are the standard statistical mechanics
      equations for an ideal gas
  (5) All vibrations are strinctly harmonic

------------
INNER ENERGY
------------

The inner energy is: U= E(el) + E(ZPE) + E(vib) + E(rot) + E(trans)
    E(el)   - is the total energy from the electronic structure calculation
              = E(kin-el) + E(nuc-el) + E(el-el) + E(nuc-nuc)
    E(ZPE)  - the the zero temperature vibrational energy from the frequency calculation
    E(vib)  - the the finite temperature correction to E(ZPE) due to population
              of excietd vibrational states
    E(rot)  - is the rotational thermal energy
    E(trans)- is the translational thermal energy

Summary of contributions to the inner energy U:
Electronic energy                ...   -363.13043418 Eh
Zero point energy                ...      0.15131152 Eh      94.95 kcal/mol
Thermal vibrational correction   ...      0.00522399 Eh       3.28 kcal/mol
Thermal rotational correction    ...      0.00141627 Eh       0.89 kcal/mol
Thermal translational correction ...      0.00141627 Eh       0.89 kcal/mol
-----------------------------------------------------------------------
Total thermal energy                   -362.97106613 Eh

Summary of corrections to the electronic energy:
(perhaps to be used in another calculation)
Total thermal correction                  0.00805654 Eh       5.06 kcal/mol
Non-thermal (ZPE) correction              0.15131152 Eh      94.95 kcal/mol
-----------------------------------------------------------------------
Total correction                          0.15936805 Eh     100.00 kcal/mol

--------
ENTHALPY
--------

The enthalpy is H = U + kB*T
                kB is Boltzmann's constant
Total free energy                 ...   -362.97106613 Eh
Thermal Enthalpy correction       ...      0.00094421 Eh       0.59 kcal/mol
-----------------------------------------------------------------------
Total Enthalpy                    ...   -362.97012192 Eh

-------
ENTROPY
-------

The entropy contributions are T*S = T*(S(el)+S(vib)+S(rot)+S(trans)
     S(el)   - electronic entropy
     S(vib)  - vibrational entropy
     S(rot)  - rotational entropy
     S(trans)- translational entropy
The entropies will be listed as mutliplied by the temperature to get
units of energy

Electronic entropy                ...      0.00000000 Eh      0.00 kcal/mol
Vibrational entropy               ...      0.00915501 Eh      5.74 kcal/mol
Rotational entropy                ...      0.01206775 Eh      7.57 kcal/mol
Translational entropy             ...      0.01892854 Eh     11.88 kcal/mol
-----------------------------------------------------------------------
Final entropy term                ...      0.04015130 Eh     25.20 kcal/mol

CAUTION: The rotational entropy is not quite correctly treated here
         because it includes a symmetry number that is not yet correctly
         implemented in ORCA!
For a nonlinear molecule the correct rotational entropy is:
    S(rot) = R*(ln(qrot/sn)+1.5)
    R    = 8.31441 J/mol/K = 1.987191683e-3 kcal/mol/K
    qrot = 237944.0212665
    sn is the rotational symmetry number. We have assumed 3 here
       if it is different for your molecule then you should correct
       the printed rotational entropy by manually evaluating the equation
       as given above

For convenience we print out the resulting values for sn=1 - 12:
 sn= 1  qrot/sn=  237944.0213 T*S(rot)=     8.22 kcal/mol T*S(tot)=    25.85 kcal/mol
 sn= 2  qrot/sn=  118972.0106 T*S(rot)=     7.81 kcal/mol T*S(tot)=    25.44 kcal/mol
 sn= 3  qrot/sn=   79314.6738 T*S(rot)=     7.57 kcal/mol T*S(tot)=    25.20 kcal/mol
 sn= 4  qrot/sn=   59486.0053 T*S(rot)=     7.40 kcal/mol T*S(tot)=    25.02 kcal/mol
 sn= 5  qrot/sn=   47588.8043 T*S(rot)=     7.27 kcal/mol T*S(tot)=    24.89 kcal/mol
 sn= 6  qrot/sn=   39657.3369 T*S(rot)=     7.16 kcal/mol T*S(tot)=    24.78 kcal/mol
 sn= 7  qrot/sn=   33992.0030 T*S(rot)=     7.07 kcal/mol T*S(tot)=    24.69 kcal/mol
 sn= 8  qrot/sn=   29743.0027 T*S(rot)=     6.99 kcal/mol T*S(tot)=    24.61 kcal/mol
 sn= 9  qrot/sn=   26438.2246 T*S(rot)=     6.92 kcal/mol T*S(tot)=    24.54 kcal/mol
 sn=10  qrot/sn=   23794.4021 T*S(rot)=     6.86 kcal/mol T*S(tot)=    24.48 kcal/mol
 sn=11  qrot/sn=   21631.2747 T*S(rot)=     6.80 kcal/mol T*S(tot)=    24.43 kcal/mol
 sn=12  qrot/sn=   19828.6684 T*S(rot)=     6.75 kcal/mol T*S(tot)=    24.37 kcal/mol

-------------------
GIBBS FREE ENTHALPY
-------------------

The Gibbs free enthalpy is G = H - T*S

Total enthalpy                    ...   -362.97012192 Eh
Total entropy correction          ...     -0.04015130 Eh    -25.20 kcal/mol
-----------------------------------------------------------------------
Final Gibbs free enthalpy         ...   -363.01027322 Eh

For completeness - the Gibbs free enthalpy minus the electronic energy
G-E(el)                           ...      0.12016096 Eh     75.40 kcal/mol

                             ****ORCA TERMINATED NORMALLY****
TOTAL RUN TIME: 0 days 0 hours 47 minutes 0 seconds 287 msec
