                         Program Version 3.0.3 - RELEASE   -
|  1> ! NORI PBE0 def2-TZVP UseSym TightOPT Freq TightSCF Grid3 FinalGrid5 XYZFile
|  2> % pal
|  3>     nprocs 8
|  4> end
|  5> %method
|  6>     SymThresh 5.0e-2
|  7> end
|  8> % geom
|  9>     MaxIter 10
| 10> end
| 11> % maxcore 2000
| 12> % output
| 13>     printlevel mini
| 14>     print[ P_Basis ] 0
| 15>     print[ P_SCFInfo ] 1
| 16>     print[ P_SCFIterInfo ] 1
| 17>     print[ P_OrbEn ] 0
| 18>     print[ P_Cartesian ] 0
| 19> end
| 20> % elprop
| 21>     Dipole false
| 22> end
| 23> *xyz 1 1
| 24>  C        2.5553428913     0.1658587049    -1.4116425299
| 25>  N        2.6904843024    -0.0908954010     0.0463677316
| 26>  C        3.0649180035     1.0986299642     0.8737683428
| 27>  C        2.3889881190     1.0495968522     2.2336367802
| 28>  C        4.5919841345     0.9965182152     0.9946087648
| 29>  O        5.2485525316     2.0377248210     1.4529733575
| 30>  O        5.1383500903    -0.0309011613     0.6994390951
| 31>  H        2.3472592948    -0.7766821959    -1.9146730642
| 32>  H        3.4949581350     0.5750916254    -1.7778889915
| 33>  H        1.7406465340     0.8679883503    -1.5790453286
| 34>  H        3.4946606793    -0.7352481240     0.1967934682
| 35>  H        1.8424242578    -0.5239191699     0.4106950211
| 36>  H        2.7753880790     1.9955168997     0.3202824343
| 37>  H        2.6592659496     0.1406167085     2.7773075371
| 38>  H        1.3032392066     1.1016498673     2.1302799296
| 39>  H        2.6956981025     1.9002487425     2.8444218254
| 40>  H        4.6899796888     2.8060653009     1.6258956266
| 41> *
| 42>
| 43>                          ****END OF INPUT****
 Total Charge           Charge          ....    1
 Multiplicity           Mult            ....    1
 Number of Electrons    NEL             ....   56
FINAL SINGLE POINT ENERGY      -363.145698049328
FINAL SINGLE POINT ENERGY      -363.145699234675
FINAL SINGLE POINT ENERGY      -363.145699606711

CARTESIAN COORDINATES (ANGSTROEM)
---------------------------------
  C     -0.035353    1.565164   -1.894202
  N      0.052170    0.153165   -1.436886
  C     -0.683993   -0.156561   -0.170673
  C     -1.280797   -1.553393   -0.217575
  C      0.390718   -0.034084    0.919240
  O      0.000941   -0.005022    2.173517
  O      1.548257    0.000376    0.603168
  H      0.584996    1.684668   -2.780721
  H      0.336441    2.209224   -1.099286
  H     -1.071320    1.803914   -2.126836
  H      1.040709   -0.053081   -1.182928
  H     -0.241591   -0.478917   -2.180958
  H     -1.460298    0.601602   -0.041203
  H     -0.505866   -2.308430   -0.368215
  H     -2.024698   -1.632412   -1.012874
  H     -1.786809   -1.783759    0.720535
  H     -0.958267   -0.014563    2.284341

FINAL SINGLE POINT ENERGY      -363.145699861048
                    ***********************HURRAY********************
 Multiplicity           Mult            ....    1
 Number of Electrons    NEL             ....   56
 Basis Dimension        Dim             ....  277
FINAL SINGLE POINT ENERGY      -363.145700052905

VIBRATIONAL FREQUENCIES
-----------------------

   0:         0.00 cm**-1
   1:         0.00 cm**-1
   2:         0.00 cm**-1
   3:         0.00 cm**-1
   4:         0.00 cm**-1
   5:         0.00 cm**-1
   6:        52.77 cm**-1
   7:       108.22 cm**-1
   8:       209.10 cm**-1
   9:       224.39 cm**-1
  10:       231.09 cm**-1
  11:       268.87 cm**-1
  12:       355.57 cm**-1
  13:       428.69 cm**-1
  14:       480.72 cm**-1
  15:       500.89 cm**-1
  16:       651.63 cm**-1
  17:       747.72 cm**-1
  18:       812.71 cm**-1
  19:       860.27 cm**-1
  20:       885.06 cm**-1
  21:      1024.06 cm**-1
  22:      1051.29 cm**-1
  23:      1077.71 cm**-1
  24:      1108.45 cm**-1
  25:      1170.32 cm**-1
  26:      1205.17 cm**-1
  27:      1215.84 cm**-1
  28:      1292.62 cm**-1
  29:      1347.43 cm**-1
  30:      1371.27 cm**-1
  31:      1408.99 cm**-1
  32:      1433.35 cm**-1
  33:      1443.94 cm**-1
  34:      1464.60 cm**-1
  35:      1485.78 cm**-1
  36:      1492.28 cm**-1
  37:      1496.49 cm**-1
  38:      1499.12 cm**-1
  39:      1596.53 cm**-1
  40:      1864.08 cm**-1
  41:      3062.55 cm**-1
  42:      3090.41 cm**-1
  43:      3099.16 cm**-1
  44:      3146.29 cm**-1
  45:      3153.59 cm**-1
  46:      3173.84 cm**-1
  47:      3191.96 cm**-1
  48:      3195.47 cm**-1
  49:      3496.48 cm**-1
  50:      3813.48 cm**-1

IR SPECTRUM
-----------

 Mode    freq (cm**-1)   T**2         TX         TY         TZ
-------------------------------------------------------------------
   6:        52.77    0.980567  (  0.677615  -0.706337   0.149976)
   7:       108.22   11.607824  (  0.151630   3.403638  -0.008909)
   8:       209.10    7.106630  ( -0.417915   1.834063  -1.888966)
   9:       224.39    4.008744  (  0.003509   1.899841   0.631929)
  10:       231.09    1.261064  ( -0.083298  -0.950379  -0.592373)
  11:       268.87   19.016835  (  0.088398   0.956128  -4.253803)
  12:       355.57   50.224443  ( -2.570670  -0.441594  -6.589468)
  13:       428.69    6.628372  (  0.140612  -2.194767  -1.338506)
  14:       480.72   36.645582  (  0.559094  -5.599962   2.230116)
  15:       500.89   68.110917  ( -0.018331  -8.183943  -1.064735)
  16:       651.63    2.230416  (  1.320045   0.693509  -0.083324)
  17:       747.72    0.803963  ( -0.223116  -0.169657   0.851704)
  18:       812.71   23.844789  (  4.281042  -0.331022   2.325487)
  19:       860.27   12.711261  (  2.016089   0.382281   2.915563)
  20:       885.06    4.504813  (  1.053797  -0.268871  -1.822645)
  21:      1024.06    4.041136  (  0.762041  -1.857435   0.101804)
  22:      1051.29   14.809995  (  1.996309   3.096734  -1.111298)
  23:      1077.71   26.620755  (  1.820792   1.469811  -4.598383)
  24:      1108.45   10.132057  (  0.434068  -0.714554   3.071328)
  25:      1170.32   24.971282  ( -0.236304  -0.673188  -4.945934)
  26:      1205.17   48.603811  (  3.458186  -0.460873  -6.035922)
  27:      1215.84    1.209615  (  0.601984   0.867251  -0.308392)
  28:      1292.62   72.908053  (  0.916678   0.695867  -8.460705)
  29:      1347.43   53.671243  ( -0.697744  -0.708085  -7.258306)
  30:      1371.27  217.894734  ( -1.239934   0.946166  14.678626)
  31:      1408.99   60.708814  ( -2.422400  -3.391909   6.582989)
  32:      1433.35   78.823240  ( -1.933025   0.025607   8.665218)
  33:      1443.94    9.314496  ( -0.958714  -2.647631   1.177036)
  34:      1464.60   20.555356  ( -0.054095  -3.499592   2.881890)
  35:      1485.78   39.336869  (  4.048808  -1.107816  -4.660125)
  36:      1492.28   24.907861  (  0.838180   0.668403  -4.874275)
  37:      1496.49    6.401775  (  2.142549   0.931727  -0.971156)
  38:      1499.12   35.536670  ( -4.861438  -1.109046  -3.266972)
  39:      1596.53   57.899089  ( -3.009952   4.338436   5.478801)
  40:      1864.08  203.101167  ( 13.327141   1.265768  -4.887361)
  41:      3062.55    0.361130  (  0.104136   0.112234  -0.581110)
  42:      3090.41    1.373079  (  1.076283  -0.242295   0.394951)
  43:      3099.16    0.828636  ( -0.594000   0.687985   0.049756)
  44:      3146.29    0.683410  (  0.680047  -0.189270   0.430259)
  45:      3153.59    0.928052  (  0.720892  -0.626767  -0.124620)
  46:      3173.84  181.313013  (-10.180194   3.262602  -8.187313)
  47:      3191.96    3.615315  ( -1.556200   0.863360  -0.669453)
  48:      3195.47   15.567340  ( -3.201295   0.704539  -2.196058)
  49:      3496.48   70.742404  ( -2.581013  -4.294762  -6.755427)
  50:      3813.48  108.981969  (  8.774156  -0.153167  -5.654440)

--------------------------
THERMOCHEMISTRY AT 298.15K
--------------------------

Temperature         ... 298.15 K
Pressure            ... 1.00 atm
Total Mass          ... 104.13 AMU

Throughout the following assumptions are being made:
  (1) The electronic state is orbitally nondegenerate
  (2) There are no thermally accessible electronically excited states
  (3) Hindered rotations indicated by low frequency modes) are not
      treated as such but are treated as vibrations and this may
      case some error
  (4) All equations used are the standard statistical mechanics
      equations for an ideal gas
  (5) All vibrations are strinctly harmonic

------------
INNER ENERGY
------------

The inner energy is: U= E(el) + E(ZPE) + E(vib) + E(rot) + E(trans)
    E(el)   - is the total energy from the electronic structure calculation
              = E(kin-el) + E(nuc-el) + E(el-el) + E(nuc-nuc)
    E(ZPE)  - the the zero temperature vibrational energy from the frequency calculation
    E(vib)  - the the finite temperature correction to E(ZPE) due to population
              of excietd vibrational states
    E(rot)  - is the rotational thermal energy
    E(trans)- is the translational thermal energy

Summary of contributions to the inner energy U:
Electronic energy                ...   -363.14570005 Eh
Zero point energy                ...      0.15102039 Eh      94.77 kcal/mol
Thermal vibrational correction   ...      0.00536096 Eh       3.36 kcal/mol
Thermal rotational correction    ...      0.00141627 Eh       0.89 kcal/mol
Thermal translational correction ...      0.00141627 Eh       0.89 kcal/mol
-----------------------------------------------------------------------
Total thermal energy                   -362.98648617 Eh

Summary of corrections to the electronic energy:
(perhaps to be used in another calculation)
Total thermal correction                  0.00819350 Eh       5.14 kcal/mol
Non-thermal (ZPE) correction              0.15102039 Eh      94.77 kcal/mol
-----------------------------------------------------------------------
Total correction                          0.15921389 Eh      99.91 kcal/mol

--------
ENTHALPY
--------

The enthalpy is H = U + kB*T
                kB is Boltzmann's constant
Total free energy                 ...   -362.98648617 Eh
Thermal Enthalpy correction       ...      0.00094421 Eh       0.59 kcal/mol
-----------------------------------------------------------------------
Total Enthalpy                    ...   -362.98554196 Eh

-------
ENTROPY
-------

The entropy contributions are T*S = T*(S(el)+S(vib)+S(rot)+S(trans)
     S(el)   - electronic entropy
     S(vib)  - vibrational entropy
     S(rot)  - rotational entropy
     S(trans)- translational entropy
The entropies will be listed as mutliplied by the temperature to get
units of energy

Electronic entropy                ...      0.00000000 Eh      0.00 kcal/mol
Vibrational entropy               ...      0.00977234 Eh      6.13 kcal/mol
Rotational entropy                ...      0.01213290 Eh      7.61 kcal/mol
Translational entropy             ...      0.01892854 Eh     11.88 kcal/mol
-----------------------------------------------------------------------
Final entropy term                ...      0.04083379 Eh     25.62 kcal/mol

CAUTION: The rotational entropy is not quite correctly treated here
         because it includes a symmetry number that is not yet correctly
         implemented in ORCA!
For a nonlinear molecule the correct rotational entropy is:
    S(rot) = R*(ln(qrot/sn)+1.5)
    R    = 8.31441 J/mol/K = 1.987191683e-3 kcal/mol/K
    qrot = 254944.7750451
    sn is the rotational symmetry number. We have assumed 3 here
       if it is different for your molecule then you should correct
       the printed rotational entropy by manually evaluating the equation
       as given above

For convenience we print out the resulting values for sn=1 - 12:
 sn= 1  qrot/sn=  254944.7750 T*S(rot)=     8.26 kcal/mol T*S(tot)=    26.27 kcal/mol
 sn= 2  qrot/sn=  127472.3875 T*S(rot)=     7.85 kcal/mol T*S(tot)=    25.86 kcal/mol
 sn= 3  qrot/sn=   84981.5917 T*S(rot)=     7.61 kcal/mol T*S(tot)=    25.62 kcal/mol
 sn= 4  qrot/sn=   63736.1938 T*S(rot)=     7.44 kcal/mol T*S(tot)=    25.45 kcal/mol
 sn= 5  qrot/sn=   50988.9550 T*S(rot)=     7.31 kcal/mol T*S(tot)=    25.32 kcal/mol
 sn= 6  qrot/sn=   42490.7958 T*S(rot)=     7.20 kcal/mol T*S(tot)=    25.21 kcal/mol
 sn= 7  qrot/sn=   36420.6821 T*S(rot)=     7.11 kcal/mol T*S(tot)=    25.12 kcal/mol
 sn= 8  qrot/sn=   31868.0969 T*S(rot)=     7.03 kcal/mol T*S(tot)=    25.04 kcal/mol
 sn= 9  qrot/sn=   28327.1972 T*S(rot)=     6.96 kcal/mol T*S(tot)=    24.97 kcal/mol
 sn=10  qrot/sn=   25494.4775 T*S(rot)=     6.90 kcal/mol T*S(tot)=    24.91 kcal/mol
 sn=11  qrot/sn=   23176.7977 T*S(rot)=     6.84 kcal/mol T*S(tot)=    24.85 kcal/mol
 sn=12  qrot/sn=   21245.3979 T*S(rot)=     6.79 kcal/mol T*S(tot)=    24.80 kcal/mol

-------------------
GIBBS FREE ENTHALPY
-------------------

The Gibbs free enthalpy is G = H - T*S

Total enthalpy                    ...   -362.98554196 Eh
Total entropy correction          ...     -0.04083379 Eh    -25.62 kcal/mol
-----------------------------------------------------------------------
Final Gibbs free enthalpy         ...   -363.02637574 Eh

For completeness - the Gibbs free enthalpy minus the electronic energy
G-E(el)                           ...      0.11932431 Eh     74.88 kcal/mol

                             ****ORCA TERMINATED NORMALLY****
TOTAL RUN TIME: 0 days 0 hours 46 minutes 16 seconds 907 msec
