                         Program Version 3.0.3 - RELEASE   -
|  1> ! NORI PBE0 def2-TZVP UseSym TightOPT Freq TightSCF Grid3 FinalGrid5 XYZFile
|  2> % pal
|  3>     nprocs 8
|  4> end
|  5> %method
|  6>     SymThresh 5.0e-2
|  7> end
|  8> % geom
|  9>     MaxIter 10
| 10> end
| 11> % maxcore 2000
| 12> % output
| 13>     printlevel mini
| 14>     print[ P_Basis ] 0
| 15>     print[ P_SCFInfo ] 1
| 16>     print[ P_SCFIterInfo ] 1
| 17>     print[ P_OrbEn ] 0
| 18>     print[ P_Cartesian ] 0
| 19> end
| 20> % elprop
| 21>     Dipole false
| 22> end
| 23> *xyz 1 1
| 24>  C        2.4057476121    -2.6397948114    -0.2286231922
| 25>  N        2.4235596094    -1.3581943329    -0.9722706298
| 26>  C        3.5819829493    -0.4562114097    -0.6879657335
| 27>  C        4.8589334177    -0.9440522219    -1.3582646077
| 28>  C        4.6685793566    -1.2396387008    -2.8333641920
| 29>  O        5.7309295477    -1.2618857773    -3.6067590095
| 30>  O        3.5784469893    -1.4907975944    -3.2972366748
| 31>  H        1.5177375503    -3.1999045737    -0.5178347350
| 32>  H        2.3877828707    -2.4394482342     0.8417340040
| 33>  H        3.2905414691    -3.2184754984    -0.4865213000
| 34>  H        2.5120384488    -1.5314966974    -2.0079493739
| 35>  H        1.5558868976    -0.8522553028    -0.7996118114
| 36>  H        3.3092808886     0.5263020562    -1.0759720565
| 37>  H        3.7084190024    -0.3778931573     0.3921799509
| 38>  H        5.6257441940    -0.1790233793    -1.2094982055
| 39>  H        5.2449125294    -1.8536291026    -0.8846227577
| 40>  H        6.5434866669    -1.0240612622    -3.1427696754
| 41> *
| 42>
| 43>                          ****END OF INPUT****
 Total Charge           Charge          ....    1
 Multiplicity           Mult            ....    1
 Number of Electrons    NEL             ....   56
FINAL SINGLE POINT ENERGY      -363.156924575439
FINAL SINGLE POINT ENERGY      -363.156925364538
FINAL SINGLE POINT ENERGY      -363.156925472675

CARTESIAN COORDINATES (ANGSTROEM)
---------------------------------
  C     -0.009351   -1.220719   -2.248477
  N      0.349011    0.099867   -1.680233
  C     -0.760073    0.839070   -1.002648
  C     -1.076739    0.255196    0.366799
  C      0.157957    0.089467    1.231319
  O     -0.000259    0.001146    2.533106
  O      1.265449   -0.001138    0.749758
  H      0.874382   -1.652364   -2.714919
  H     -0.798451   -1.095940   -2.988332
  H     -0.345988   -1.876719   -1.448874
  H      1.060797   -0.008142   -0.911001
  H      0.745966    0.688559   -2.411084
  H     -0.423273    1.871655   -0.899146
  H     -1.637262    0.824885   -1.649881
  H     -1.804304    0.913456    0.848560
  H     -1.561607   -0.724133    0.289280
  H     -0.918369    0.108132    2.811571

FINAL SINGLE POINT ENERGY      -363.156925947984
                    ***********************HURRAY********************
 Multiplicity           Mult            ....    1
 Number of Electrons    NEL             ....   56
 Basis Dimension        Dim             ....  277
FINAL SINGLE POINT ENERGY      -363.156925955102

VIBRATIONAL FREQUENCIES
-----------------------

   0:         0.00 cm**-1
   1:         0.00 cm**-1
   2:         0.00 cm**-1
   3:         0.00 cm**-1
   4:         0.00 cm**-1
   5:         0.00 cm**-1
   6:        61.79 cm**-1
   7:       119.52 cm**-1
   8:       163.45 cm**-1
   9:       216.59 cm**-1
  10:       305.80 cm**-1
  11:       334.53 cm**-1
  12:       413.38 cm**-1
  13:       474.33 cm**-1
  14:       525.26 cm**-1
  15:       596.19 cm**-1
  16:       705.08 cm**-1
  17:       814.91 cm**-1
  18:       839.91 cm**-1
  19:       879.86 cm**-1
  20:       969.09 cm**-1
  21:       995.30 cm**-1
  22:      1053.41 cm**-1
  23:      1077.96 cm**-1
  24:      1158.60 cm**-1
  25:      1172.87 cm**-1
  26:      1209.36 cm**-1
  27:      1260.17 cm**-1
  28:      1304.01 cm**-1
  29:      1332.07 cm**-1
  30:      1388.48 cm**-1
  31:      1428.92 cm**-1
  32:      1439.71 cm**-1
  33:      1452.80 cm**-1
  34:      1456.78 cm**-1
  35:      1477.98 cm**-1
  36:      1490.85 cm**-1
  37:      1495.92 cm**-1
  38:      1501.29 cm**-1
  39:      1642.57 cm**-1
  40:      1817.20 cm**-1
  41:      2945.78 cm**-1
  42:      3066.30 cm**-1
  43:      3092.26 cm**-1
  44:      3098.96 cm**-1
  45:      3116.53 cm**-1
  46:      3157.24 cm**-1
  47:      3187.86 cm**-1
  48:      3193.70 cm**-1
  49:      3500.91 cm**-1
  50:      3819.04 cm**-1

IR SPECTRUM
-----------

 Mode    freq (cm**-1)   T**2         TX         TY         TZ
-------------------------------------------------------------------
   6:        61.79    2.003976  (  0.267958   1.329420   0.405976)
   7:       119.52   12.642695  ( -0.172576  -3.167408  -1.606375)
   8:       163.45   10.072396  (  0.002529   1.226152   2.927276)
   9:       216.59    0.655293  ( -0.117956  -0.680054   0.422972)
  10:       305.80   73.707668  ( -1.367505   1.155084  -8.396629)
  11:       334.53   19.609817  (  0.032212  -0.202246  -4.423559)
  12:       413.38    0.875609  (  0.573463   0.621085  -0.401250)
  13:       474.33   31.719243  ( -0.831033  -5.297419  -1.722203)
  14:       525.26   60.643482  ( -1.584536  -7.601892  -0.586487)
  15:       596.19   22.174474  (  0.272113  -4.586651   1.031050)
  16:       705.08   14.337707  ( -1.997302   0.462537  -3.183481)
  17:       814.91   28.236001  (  2.384611   1.737649   4.419300)
  18:       839.91    5.655925  ( -0.931413  -0.022078  -2.188129)
  19:       879.86   38.550042  ( -0.984010  -0.359258   6.119861)
  20:       969.09    2.129842  (  1.042876  -0.838283   0.582695)
  21:       995.30    2.842075  ( -0.687235   1.127801   1.047782)
  22:      1053.41   11.763022  ( -1.758068   0.899821   2.804022)
  23:      1077.96   11.599048  ( -1.038164   3.087817   0.993302)
  24:      1158.60    1.539675  (  0.221734  -0.547596   1.091168)
  25:      1172.87    2.125439  ( -0.289173   0.967929   1.051157)
  26:      1209.36   97.650495  (  1.126980   1.123259  -9.752882)
  27:      1260.17    1.391633  (  1.147119  -0.120681  -0.247362)
  28:      1304.01  134.519927  (  3.956032  -0.440358 -10.893843)
  29:      1332.07  101.175629  (  0.934884  -0.392393  10.007380)
  30:      1388.48    4.012808  (  0.405496  -1.907737   0.457077)
  31:      1428.92  365.723768  ( -0.312321  -0.642203 -19.110568)
  32:      1439.71    9.791703  ( -2.020643   0.262392   2.374838)
  33:      1452.80   14.208222  (  2.265795  -2.687112   1.361552)
  34:      1456.78   33.098799  ( -5.117373  -1.251370   2.312005)
  35:      1477.98   31.084420  ( -1.664692   3.338975   4.143002)
  36:      1490.85   16.050205  ( -3.352259   2.090103   0.666360)
  37:      1495.92   32.995332  ( -3.953464   2.876460   3.015200)
  38:      1501.29   24.272593  (  0.534230  -2.662733   4.110601)
  39:      1642.57   82.168545  ( -6.779938  -2.775527   5.338299)
  40:      1817.20  208.915170  (-11.583799   1.316940   8.543795)
  41:      2945.78  624.501447  (  9.607813   0.600122  23.061466)
  42:      3066.30    1.723963  (  0.818064  -0.432375   0.931550)
  43:      3092.26    1.885665  (  0.172532   0.546689  -1.247810)
  44:      3098.96    0.994854  (  0.016540  -0.867360  -0.492206)
  45:      3116.53    0.023331  ( -0.005447  -0.127855   0.083392)
  46:      3157.24    0.407062  ( -0.294029  -0.143522  -0.547732)
  47:      3187.86    0.378265  ( -0.543200   0.119189  -0.262665)
  48:      3193.70    0.465914  (  0.094993  -0.244816   0.630044)
  49:      3500.91   80.688109  ( -3.170602  -4.418078   7.149544)
  50:      3819.04  125.449619  ( -8.244536   0.654094   7.553105)

--------------------------
THERMOCHEMISTRY AT 298.15K
--------------------------

Temperature         ... 298.15 K
Pressure            ... 1.00 atm
Total Mass          ... 104.13 AMU

Throughout the following assumptions are being made:
  (1) The electronic state is orbitally nondegenerate
  (2) There are no thermally accessible electronically excited states
  (3) Hindered rotations indicated by low frequency modes) are not
      treated as such but are treated as vibrations and this may
      case some error
  (4) All equations used are the standard statistical mechanics
      equations for an ideal gas
  (5) All vibrations are strinctly harmonic

------------
INNER ENERGY
------------

The inner energy is: U= E(el) + E(ZPE) + E(vib) + E(rot) + E(trans)
    E(el)   - is the total energy from the electronic structure calculation
              = E(kin-el) + E(nuc-el) + E(el-el) + E(nuc-nuc)
    E(ZPE)  - the the zero temperature vibrational energy from the frequency calculation
    E(vib)  - the the finite temperature correction to E(ZPE) due to population
              of excietd vibrational states
    E(rot)  - is the rotational thermal energy
    E(trans)- is the translational thermal energy

Summary of contributions to the inner energy U:
Electronic energy                ...   -363.15692596 Eh
Zero point energy                ...      0.15207790 Eh      95.43 kcal/mol
Thermal vibrational correction   ...      0.00495668 Eh       3.11 kcal/mol
Thermal rotational correction    ...      0.00141627 Eh       0.89 kcal/mol
Thermal translational correction ...      0.00141627 Eh       0.89 kcal/mol
-----------------------------------------------------------------------
Total thermal energy                   -362.99705883 Eh

Summary of corrections to the electronic energy:
(perhaps to be used in another calculation)
Total thermal correction                  0.00778922 Eh       4.89 kcal/mol
Non-thermal (ZPE) correction              0.15207790 Eh      95.43 kcal/mol
-----------------------------------------------------------------------
Total correction                          0.15986712 Eh     100.32 kcal/mol

--------
ENTHALPY
--------

The enthalpy is H = U + kB*T
                kB is Boltzmann's constant
Total free energy                 ...   -362.99705883 Eh
Thermal Enthalpy correction       ...      0.00094421 Eh       0.59 kcal/mol
-----------------------------------------------------------------------
Total Enthalpy                    ...   -362.99611462 Eh

-------
ENTROPY
-------

The entropy contributions are T*S = T*(S(el)+S(vib)+S(rot)+S(trans)
     S(el)   - electronic entropy
     S(vib)  - vibrational entropy
     S(rot)  - rotational entropy
     S(trans)- translational entropy
The entropies will be listed as mutliplied by the temperature to get
units of energy

Electronic entropy                ...      0.00000000 Eh      0.00 kcal/mol
Vibrational entropy               ...      0.00895432 Eh      5.62 kcal/mol
Rotational entropy                ...      0.01212503 Eh      7.61 kcal/mol
Translational entropy             ...      0.01892854 Eh     11.88 kcal/mol
-----------------------------------------------------------------------
Final entropy term                ...      0.04000789 Eh     25.11 kcal/mol

CAUTION: The rotational entropy is not quite correctly treated here
         because it includes a symmetry number that is not yet correctly
         implemented in ORCA!
For a nonlinear molecule the correct rotational entropy is:
    S(rot) = R*(ln(qrot/sn)+1.5)
    R    = 8.31441 J/mol/K = 1.987191683e-3 kcal/mol/K
    qrot = 252827.4052980
    sn is the rotational symmetry number. We have assumed 3 here
       if it is different for your molecule then you should correct
       the printed rotational entropy by manually evaluating the equation
       as given above

For convenience we print out the resulting values for sn=1 - 12:
 sn= 1  qrot/sn=  252827.4053 T*S(rot)=     8.26 kcal/mol T*S(tot)=    25.76 kcal/mol
 sn= 2  qrot/sn=  126413.7026 T*S(rot)=     7.85 kcal/mol T*S(tot)=    25.35 kcal/mol
 sn= 3  qrot/sn=   84275.8018 T*S(rot)=     7.61 kcal/mol T*S(tot)=    25.11 kcal/mol
 sn= 4  qrot/sn=   63206.8513 T*S(rot)=     7.44 kcal/mol T*S(tot)=    24.93 kcal/mol
 sn= 5  qrot/sn=   50565.4811 T*S(rot)=     7.31 kcal/mol T*S(tot)=    24.80 kcal/mol
 sn= 6  qrot/sn=   42137.9009 T*S(rot)=     7.20 kcal/mol T*S(tot)=    24.69 kcal/mol
 sn= 7  qrot/sn=   36118.2008 T*S(rot)=     7.11 kcal/mol T*S(tot)=    24.60 kcal/mol
 sn= 8  qrot/sn=   31603.4257 T*S(rot)=     7.03 kcal/mol T*S(tot)=    24.52 kcal/mol
 sn= 9  qrot/sn=   28091.9339 T*S(rot)=     6.96 kcal/mol T*S(tot)=    24.45 kcal/mol
 sn=10  qrot/sn=   25282.7405 T*S(rot)=     6.90 kcal/mol T*S(tot)=    24.39 kcal/mol
 sn=11  qrot/sn=   22984.3096 T*S(rot)=     6.84 kcal/mol T*S(tot)=    24.34 kcal/mol
 sn=12  qrot/sn=   21068.9504 T*S(rot)=     6.79 kcal/mol T*S(tot)=    24.28 kcal/mol

-------------------
GIBBS FREE ENTHALPY
-------------------

The Gibbs free enthalpy is G = H - T*S

Total enthalpy                    ...   -362.99611462 Eh
Total entropy correction          ...     -0.04000789 Eh    -25.11 kcal/mol
-----------------------------------------------------------------------
Final Gibbs free enthalpy         ...   -363.03612251 Eh

For completeness - the Gibbs free enthalpy minus the electronic energy
G-E(el)                           ...      0.12080344 Eh     75.81 kcal/mol

                             ****ORCA TERMINATED NORMALLY****
TOTAL RUN TIME: 0 days 0 hours 45 minutes 34 seconds 279 msec
