                         Program Version 3.0.3 - RELEASE   -
|  1> ! NORI PBE0 def2-TZVP UseSym TightOPT Freq TightSCF Grid3 FinalGrid5 XYZFile
|  2> % pal
|  3>     nprocs 8
|  4> end
|  5> %method
|  6>     SymThresh 5.0e-2
|  7> end
|  8> % geom
|  9>     MaxIter 10
| 10> end
| 11> % maxcore 2000
| 12> % output
| 13>     printlevel mini
| 14>     print[ P_Basis ] 0
| 15>     print[ P_SCFInfo ] 1
| 16>     print[ P_SCFIterInfo ] 1
| 17>     print[ P_OrbEn ] 0
| 18>     print[ P_Cartesian ] 0
| 19> end
| 20> % elprop
| 21>     Dipole false
| 22> end
| 23> *xyz 1 1
| 24>  C        1.8808493117    -1.3982116228     0.1276917334
| 25>  N        1.3721255174    -0.1188988477     0.6013409816
| 26>  C        2.1059084704     0.5373289529     1.6788993249
| 27>  C        2.5169770444     1.9813537602     1.4275995149
| 28>  N        1.3756337459     2.9103842565     1.6573405345
| 29>  C        0.1944266029     0.3434730403     0.1889243130
| 30>  O       -0.3182097989     1.4078460235     0.5506133162
| 31>  H        1.2127118574    -1.7943442820    -0.6353547691
| 32>  H        1.9391945199    -2.1156340905     0.9491075969
| 33>  H        2.8721416568    -1.2726736708    -0.3109913399
| 34>  H        3.0165829893    -0.0395204900     1.8384143113
| 35>  H        1.5259129067     0.4688520794     2.6079791763
| 36>  H        2.8521397495     2.1167066874     0.3990443415
| 37>  H        3.3354790622     2.2536547663     2.0941994321
| 38>  H        0.5076301272     2.3863010686     1.2111903312
| 39>  H        1.5237448583     3.8200247998     1.2250382330
| 40>  H        1.2037898122     3.0604627435     2.6496444708
| 41>  H       -0.3246984332    -0.2988551747    -0.5306715024
| 42> *
| 43>
| 44>                          ****END OF INPUT****
 Total Charge           Charge          ....    1
 Multiplicity           Mult            ....    1
 Number of Electrons    NEL             ....   56
FINAL SINGLE POINT ENERGY      -343.292886242767
FINAL SINGLE POINT ENERGY      -343.292884306825
FINAL SINGLE POINT ENERGY      -343.292886445715
FINAL SINGLE POINT ENERGY      -343.292862400168
FINAL SINGLE POINT ENERGY      -343.292887998601

CARTESIAN COORDINATES (ANGSTROEM)
---------------------------------
  C      2.181361   -0.188325   -1.102114
  N      0.968540   -0.001024   -0.319248
  C     -0.194588    0.549166   -1.007993
  C     -1.489434   -0.240128   -0.874885
  N     -2.151741    0.033744    0.430828
  C      0.975647   -0.162119    1.001574
  O     -0.000955   -0.008062    1.742768
  H      2.978343   -0.552154   -0.455998
  H      2.498320    0.755719   -1.550364
  H      2.012661   -0.922453   -1.892051
  H      0.056419    0.590034   -2.067607
  H     -0.352526    1.585911   -0.684677
  H     -1.299004   -1.312325   -0.930996
  H     -2.170689    0.030210   -1.681797
  H     -1.315957    0.049825    1.158153
  H     -2.840914   -0.675829    0.671553
  H     -2.619837    0.938089    0.435639
  H      1.942000   -0.459876    1.422623

FINAL SINGLE POINT ENERGY      -343.292888288712
                    ***********************HURRAY********************
 Multiplicity           Mult            ....    1
 Number of Electrons    NEL             ....   56
 Basis Dimension        Dim             ....  283
FINAL SINGLE POINT ENERGY      -343.292888969468

VIBRATIONAL FREQUENCIES
-----------------------

   0:         0.00 cm**-1
   1:         0.00 cm**-1
   2:         0.00 cm**-1
   3:         0.00 cm**-1
   4:         0.00 cm**-1
   5:         0.00 cm**-1
   6:        65.41 cm**-1
   7:       173.57 cm**-1
   8:       196.18 cm**-1
   9:       242.70 cm**-1
  10:       307.81 cm**-1
  11:       323.48 cm**-1
  12:       403.66 cm**-1
  13:       433.79 cm**-1
  14:       445.08 cm**-1
  15:       499.99 cm**-1
  16:       663.80 cm**-1
  17:       791.04 cm**-1
  18:       877.87 cm**-1
  19:       949.80 cm**-1
  20:       998.48 cm**-1
  21:      1046.73 cm**-1
  22:      1054.82 cm**-1
  23:      1112.67 cm**-1
  24:      1140.88 cm**-1
  25:      1159.14 cm**-1
  26:      1166.85 cm**-1
  27:      1238.01 cm**-1
  28:      1317.01 cm**-1
  29:      1339.86 cm**-1
  30:      1368.27 cm**-1
  31:      1410.23 cm**-1
  32:      1421.08 cm**-1
  33:      1447.21 cm**-1
  34:      1467.22 cm**-1
  35:      1473.61 cm**-1
  36:      1479.93 cm**-1
  37:      1487.45 cm**-1
  38:      1504.68 cm**-1
  39:      1531.17 cm**-1
  40:      1630.37 cm**-1
  41:      1668.24 cm**-1
  42:      1725.92 cm**-1
  43:      2208.89 cm**-1
  44:      3041.05 cm**-1
  45:      3061.99 cm**-1
  46:      3101.80 cm**-1
  47:      3103.85 cm**-1
  48:      3135.50 cm**-1
  49:      3143.03 cm**-1
  50:      3160.92 cm**-1
  51:      3172.55 cm**-1
  52:      3488.74 cm**-1
  53:      3555.09 cm**-1

IR SPECTRUM
-----------

 Mode    freq (cm**-1)   T**2         TX         TY         TZ
-------------------------------------------------------------------
   6:        65.41    8.869669  ( -0.260518  -2.951012  -0.305499)
   7:       173.57    0.909381  (  0.147793   0.672798  -0.659455)
   8:       196.18    5.053711  (  2.127433   0.406563   0.602036)
   9:       242.70    9.370219  ( -2.925741  -0.465239   0.770592)
  10:       307.81    9.040958  (  1.537195  -1.402696   2.170353)
  11:       323.48   23.515536  ( -4.133993   2.532051  -0.119827)
  12:       403.66    4.172600  ( -0.302824  -1.903955  -0.675168)
  13:       433.79  200.291275  (-13.606452  -1.616996  -3.541336)
  14:       445.08    6.618574  ( -1.800655  -1.366143  -1.228768)
  15:       499.99   22.257874  ( -4.128751   2.190054  -0.644165)
  16:       663.80    9.298362  (  0.390740   0.294988  -3.009762)
  17:       791.04   28.474917  (  4.598126  -0.557457   2.649791)
  18:       877.87    6.029795  (  2.326057  -0.525418  -0.585826)
  19:       949.80   13.731351  (  2.290687  -2.860083   0.551386)
  20:       998.48   36.129889  ( -6.009845  -0.000204  -0.107950)
  21:      1046.73    1.136742  ( -0.766160  -0.672850   0.311471)
  22:      1054.82    4.567934  ( -1.789874   0.897903  -0.747031)
  23:      1112.67   37.382444  ( -2.333246  -0.709602   5.606681)
  24:      1140.88   10.891591  (  2.315633  -0.196392   2.343260)
  25:      1159.14   47.247907  ( -3.778279  -1.486428  -5.546445)
  26:      1166.85    2.182934  (  0.897565   0.841201   0.818347)
  27:      1238.01   27.655265  (  5.040843   0.285176   1.471001)
  28:      1317.01  179.297285  (-12.536770  -1.151252   4.560846)
  29:      1339.86   53.912016  (  6.330119  -1.454802  -3.424202)
  30:      1368.27   53.244245  ( -6.723993   0.118483   2.831630)
  31:      1410.23   39.756810  (  0.198818   0.440618  -6.286743)
  32:      1421.08   21.928281  ( -4.254527   1.106803  -1.613154)
  33:      1447.21   82.811837  ( -7.402982   1.239302   5.145078)
  34:      1467.22   18.599433  (  2.218417   3.326990  -1.615301)
  35:      1473.61  203.715582  (-13.626274   3.791863   1.913635)
  36:      1479.93   27.715561  ( -4.980016  -1.632226  -0.500843)
  37:      1487.45   13.581887  (  3.572134   0.882816  -0.205867)
  38:      1504.68  309.822597  (-17.576284  -0.385716   0.864906)
  39:      1531.17   39.396633  (  0.950581   2.353546  -5.740544)
  40:      1630.37    9.331246  (  0.368330  -2.957318  -0.670709)
  41:      1668.24   24.993240  (  1.040622   4.763337   1.104974)
  42:      1725.92  274.528249  (-10.901860  -0.286704  12.473793)
  43:      2208.89  1232.193556  ( 29.891731  -0.652822  18.391623)
  44:      3041.05    9.265420  (  1.903601  -2.314073   0.535529)
  45:      3061.99    9.241190  (  1.869174   0.099473  -2.395305)
  46:      3101.80    9.893008  (  3.024291  -0.684247  -0.527712)
  47:      3103.85    0.638370  ( -0.170961  -0.463461  -0.627970)
  48:      3135.50    4.357095  ( -0.484544  -1.976835  -0.463071)
  49:      3143.03    0.053315  ( -0.001612   0.229940  -0.020967)
  50:      3160.92    0.175825  ( -0.243552   0.265169  -0.214927)
  51:      3172.55    1.714663  (  0.698009  -0.276192   1.072924)
  52:      3488.74   72.664510  (  8.255083  -1.043031  -1.852079)
  53:      3555.09   75.905426  ( -1.550923  -8.461252   1.381041)

--------------------------
THERMOCHEMISTRY AT 298.15K
--------------------------

Temperature         ... 298.15 K
Pressure            ... 1.00 atm
Total Mass          ... 103.14 AMU

Throughout the following assumptions are being made:
  (1) The electronic state is orbitally nondegenerate
  (2) There are no thermally accessible electronically excited states
  (3) Hindered rotations indicated by low frequency modes) are not
      treated as such but are treated as vibrations and this may
      case some error
  (4) All equations used are the standard statistical mechanics
      equations for an ideal gas
  (5) All vibrations are strinctly harmonic

------------
INNER ENERGY
------------

The inner energy is: U= E(el) + E(ZPE) + E(vib) + E(rot) + E(trans)
    E(el)   - is the total energy from the electronic structure calculation
              = E(kin-el) + E(nuc-el) + E(el-el) + E(nuc-nuc)
    E(ZPE)  - the the zero temperature vibrational energy from the frequency calculation
    E(vib)  - the the finite temperature correction to E(ZPE) due to population
              of excietd vibrational states
    E(rot)  - is the rotational thermal energy
    E(trans)- is the translational thermal energy

Summary of contributions to the inner energy U:
Electronic energy                ...   -343.29288897 Eh
Zero point energy                ...      0.16342990 Eh     102.55 kcal/mol
Thermal vibrational correction   ...      0.00494300 Eh       3.10 kcal/mol
Thermal rotational correction    ...      0.00141627 Eh       0.89 kcal/mol
Thermal translational correction ...      0.00141627 Eh       0.89 kcal/mol
-----------------------------------------------------------------------
Total thermal energy                   -343.12168353 Eh

Summary of corrections to the electronic energy:
(perhaps to be used in another calculation)
Total thermal correction                  0.00777555 Eh       4.88 kcal/mol
Non-thermal (ZPE) correction              0.16342990 Eh     102.55 kcal/mol
-----------------------------------------------------------------------
Total correction                          0.17120544 Eh     107.43 kcal/mol

--------
ENTHALPY
--------

The enthalpy is H = U + kB*T
                kB is Boltzmann's constant
Total free energy                 ...   -343.12168353 Eh
Thermal Enthalpy correction       ...      0.00094421 Eh       0.59 kcal/mol
-----------------------------------------------------------------------
Total Enthalpy                    ...   -343.12073932 Eh

-------
ENTROPY
-------

The entropy contributions are T*S = T*(S(el)+S(vib)+S(rot)+S(trans)
     S(el)   - electronic entropy
     S(vib)  - vibrational entropy
     S(rot)  - rotational entropy
     S(trans)- translational entropy
The entropies will be listed as mutliplied by the temperature to get
units of energy

Electronic entropy                ...      0.00000000 Eh      0.00 kcal/mol
Vibrational entropy               ...      0.00859944 Eh      5.40 kcal/mol
Rotational entropy                ...      0.01209625 Eh      7.59 kcal/mol
Translational entropy             ...      0.01891510 Eh     11.87 kcal/mol
-----------------------------------------------------------------------
Final entropy term                ...      0.03961079 Eh     24.86 kcal/mol

CAUTION: The rotational entropy is not quite correctly treated here
         because it includes a symmetry number that is not yet correctly
         implemented in ORCA!
For a nonlinear molecule the correct rotational entropy is:
    S(rot) = R*(ln(qrot/sn)+1.5)
    R    = 8.31441 J/mol/K = 1.987191683e-3 kcal/mol/K
    qrot = 245237.4084370
    sn is the rotational symmetry number. We have assumed 3 here
       if it is different for your molecule then you should correct
       the printed rotational entropy by manually evaluating the equation
       as given above

For convenience we print out the resulting values for sn=1 - 12:
 sn= 1  qrot/sn=  245237.4084 T*S(rot)=     8.24 kcal/mol T*S(tot)=    25.51 kcal/mol
 sn= 2  qrot/sn=  122618.7042 T*S(rot)=     7.83 kcal/mol T*S(tot)=    25.10 kcal/mol
 sn= 3  qrot/sn=   81745.8028 T*S(rot)=     7.59 kcal/mol T*S(tot)=    24.86 kcal/mol
 sn= 4  qrot/sn=   61309.3521 T*S(rot)=     7.42 kcal/mol T*S(tot)=    24.69 kcal/mol
 sn= 5  qrot/sn=   49047.4817 T*S(rot)=     7.29 kcal/mol T*S(tot)=    24.55 kcal/mol
 sn= 6  qrot/sn=   40872.9014 T*S(rot)=     7.18 kcal/mol T*S(tot)=    24.45 kcal/mol
 sn= 7  qrot/sn=   35033.9155 T*S(rot)=     7.09 kcal/mol T*S(tot)=    24.35 kcal/mol
 sn= 8  qrot/sn=   30654.6761 T*S(rot)=     7.01 kcal/mol T*S(tot)=    24.27 kcal/mol
 sn= 9  qrot/sn=   27248.6009 T*S(rot)=     6.94 kcal/mol T*S(tot)=    24.21 kcal/mol
 sn=10  qrot/sn=   24523.7408 T*S(rot)=     6.88 kcal/mol T*S(tot)=    24.14 kcal/mol
 sn=11  qrot/sn=   22294.3099 T*S(rot)=     6.82 kcal/mol T*S(tot)=    24.09 kcal/mol
 sn=12  qrot/sn=   20436.4507 T*S(rot)=     6.77 kcal/mol T*S(tot)=    24.03 kcal/mol

-------------------
GIBBS FREE ENTHALPY
-------------------

The Gibbs free enthalpy is G = H - T*S

Total enthalpy                    ...   -343.12073932 Eh
Total entropy correction          ...     -0.03961079 Eh    -24.86 kcal/mol
-----------------------------------------------------------------------
Final Gibbs free enthalpy         ...   -343.16035011 Eh

For completeness - the Gibbs free enthalpy minus the electronic energy
G-E(el)                           ...      0.13253886 Eh     83.17 kcal/mol

                             ****ORCA TERMINATED NORMALLY****
TOTAL RUN TIME: 0 days 0 hours 57 minutes 34 seconds 554 msec
