                         Program Version 3.0.3 - RELEASE   -
|  1> ! NORI PBE0 def2-TZVP UseSym TightOPT Freq TightSCF Grid3 FinalGrid5 XYZFile
|  2> % pal
|  3>     nprocs 8
|  4> end
|  5> %method
|  6>     SymThresh 5.0e-2
|  7> end
|  8> % geom
|  9>     MaxIter 10
| 10> end
| 11> % maxcore 2000
| 12> % output
| 13>     printlevel mini
| 14>     print[ P_Basis ] 0
| 15>     print[ P_SCFInfo ] 1
| 16>     print[ P_SCFIterInfo ] 1
| 17>     print[ P_OrbEn ] 0
| 18>     print[ P_Cartesian ] 0
| 19> end
| 20> % elprop
| 21>     Dipole false
| 22> end
| 23> *xyz 1 1
| 24>  C        0.9908481136    -0.1274012516     0.0947043900
| 25>  N        2.4683936325    -0.0735788935     0.0618402488
| 26>  C        3.0673521357    -0.2824800908    -1.2839052802
| 27>  C        4.5654922108    -0.5373162216    -1.2007319773
| 28>  N        4.9464053651    -1.8893828249    -0.8270072618
| 29>  C        4.5766890453    -2.4997197169     0.3028116358
| 30>  O        3.7555735292    -2.0553967627     1.0997766400
| 31>  H        0.6535097320     0.0658400316     1.1113139303
| 32>  H        0.6710715535    -1.1225428966    -0.2093153968
| 33>  H        0.5765849114     0.6186594369    -0.5822368215
| 34>  H        2.7856845086     0.8194132999     0.4372985537
| 35>  H        2.9102796241    -0.8462665258     0.6674178368
| 36>  H        2.5542524629    -1.1292686617    -1.7419717703
| 37>  H        2.8732287077     0.6044414900    -1.8886732558
| 38>  H        5.0328481624     0.1838269942    -0.5188352882
| 39>  H        4.9877565920    -0.3489574433    -2.1875016863
| 40>  H        5.6500301277    -2.3455994404    -1.3864704554
| 41>  H        5.0635195856    -3.4674705227     0.4742759582
| 42> *
| 43>
| 44>                          ****END OF INPUT****
 Total Charge           Charge          ....    1
 Multiplicity           Mult            ....    1
 Number of Electrons    NEL             ....   56
FINAL SINGLE POINT ENERGY      -343.296719638737
FINAL SINGLE POINT ENERGY      -343.296688856220
FINAL SINGLE POINT ENERGY      -343.296722248761
FINAL SINGLE POINT ENERGY      -343.296720266933
FINAL SINGLE POINT ENERGY      -343.296723649727

CARTESIAN COORDINATES (ANGSTROEM)
---------------------------------
  C      2.314452    1.081521   -0.726896
  N      1.326152    0.000159   -0.521341
  C      0.096178    0.118981   -1.351093
  C     -1.003362   -0.817207   -0.870134
  N     -1.749972   -0.355386    0.287782
  C     -1.208525   -0.064079    1.474224
  O     -0.002588   -0.010010    1.696260
  H      3.185268    0.886548   -0.103686
  H      1.862654    2.026996   -0.432147
  H      2.608676    1.121326   -1.774941
  H      1.766193   -0.902294   -0.697589
  H      0.960348   -0.020060    0.489751
  H     -0.230521    1.158653   -1.303105
  H      0.356254   -0.111790   -2.385130
  H     -0.589588   -1.814310   -0.674049
  H     -1.717960   -0.933064   -1.684761
  H     -2.756026   -0.394493    0.238941
  H     -1.939032    0.144070    2.265752

FINAL SINGLE POINT ENERGY      -343.296723919938
                    ***********************HURRAY********************
 Multiplicity           Mult            ....    1
 Number of Electrons    NEL             ....   56
 Basis Dimension        Dim             ....  283
FINAL SINGLE POINT ENERGY      -343.296724286260

VIBRATIONAL FREQUENCIES
-----------------------

   0:         0.00 cm**-1
   1:         0.00 cm**-1
   2:         0.00 cm**-1
   3:         0.00 cm**-1
   4:         0.00 cm**-1
   5:         0.00 cm**-1
   6:        83.06 cm**-1
   7:       131.01 cm**-1
   8:       180.87 cm**-1
   9:       232.49 cm**-1
  10:       280.01 cm**-1
  11:       313.68 cm**-1
  12:       352.65 cm**-1
  13:       395.42 cm**-1
  14:       512.53 cm**-1
  15:       589.55 cm**-1
  16:       759.12 cm**-1
  17:       815.21 cm**-1
  18:       893.07 cm**-1
  19:       929.28 cm**-1
  20:      1018.61 cm**-1
  21:      1038.09 cm**-1
  22:      1048.83 cm**-1
  23:      1056.29 cm**-1
  24:      1091.23 cm**-1
  25:      1174.81 cm**-1
  26:      1197.75 cm**-1
  27:      1270.26 cm**-1
  28:      1306.08 cm**-1
  29:      1326.36 cm**-1
  30:      1374.59 cm**-1
  31:      1413.31 cm**-1
  32:      1419.47 cm**-1
  33:      1431.24 cm**-1
  34:      1455.56 cm**-1
  35:      1475.91 cm**-1
  36:      1480.22 cm**-1
  37:      1491.49 cm**-1
  38:      1500.05 cm**-1
  39:      1527.34 cm**-1
  40:      1566.38 cm**-1
  41:      1674.02 cm**-1
  42:      1745.12 cm**-1
  43:      2596.70 cm**-1
  44:      3041.63 cm**-1
  45:      3086.13 cm**-1
  46:      3087.43 cm**-1
  47:      3097.76 cm**-1
  48:      3143.03 cm**-1
  49:      3155.67 cm**-1
  50:      3182.80 cm**-1
  51:      3188.76 cm**-1
  52:      3492.01 cm**-1
  53:      3638.60 cm**-1

IR SPECTRUM
-----------

 Mode    freq (cm**-1)   T**2         TX         TY         TZ
-------------------------------------------------------------------
   6:        83.06    6.156212  (  0.187340  -2.466677   0.191360)
   7:       131.01    7.277792  ( -1.558876  -1.949914   1.022512)
   8:       180.87    9.165591  ( -2.334481  -1.415770   1.308199)
   9:       232.49    2.307150  ( -0.037030   1.505186   0.200481)
  10:       280.01    3.040068  ( -1.407530   0.643734  -0.802829)
  11:       313.68   20.611283  (  1.364129  -3.914747   1.850728)
  12:       352.65   65.932352  (  5.266766  -1.051331  -6.090011)
  13:       395.42   68.100391  ( -3.763945  -5.160013   5.225646)
  14:       512.53   18.497398  (  2.661490  -3.329662  -0.572031)
  15:       589.55   41.167564  (  1.128922  -6.042641   1.838365)
  16:       759.12   14.443560  (  1.472791  -0.292995  -3.491218)
  17:       815.21   12.379920  (  1.198557  -0.147202  -3.304801)
  18:       893.07    3.157584  ( -0.786458   0.983036   1.254076)
  19:       929.28   10.223881  (  2.733779  -0.604882  -1.544167)
  20:      1018.61    6.484661  ( -2.369979   0.427298  -0.827816)
  21:      1038.09   13.602533  ( -3.381712  -0.204829  -1.457602)
  22:      1048.83    1.863407  ( -0.354209  -1.277989  -0.323552)
  23:      1056.29    5.773643  (  1.336575   1.646770   1.129317)
  24:      1091.23    1.212786  ( -0.546123  -0.786949  -0.543367)
  25:      1174.81    5.773843  (  0.837008  -0.639582   2.159675)
  26:      1197.75    0.824505  ( -0.045232  -0.425837   0.800701)
  27:      1270.26   26.658286  ( -0.069618  -0.952447  -5.074080)
  28:      1306.08    7.872385  ( -2.462601  -1.147302   0.701197)
  29:      1326.36   34.172700  (  5.520659   1.008296  -1.636572)
  30:      1374.59   22.962032  ( -4.362177  -1.983215  -0.017337)
  31:      1413.31   19.545840  (  1.048788  -0.660945  -4.243705)
  32:      1419.47   36.148145  ( -5.074871  -1.258316  -2.968244)
  33:      1431.24   14.038589  (  0.564876   1.906506   3.175648)
  34:      1455.56   23.021762  (  4.350686  -0.082319  -2.021513)
  35:      1475.91    8.177848  (  1.507244  -2.168418   1.097281)
  36:      1480.22    9.415734  (  3.053190  -0.129512  -0.277475)
  37:      1491.49   17.172913  ( -0.266587  -0.539781  -4.100059)
  38:      1500.05   24.456653  (  3.274508  -3.592366   0.910583)
  39:      1527.34  286.364933  (-16.054579  -4.070243   3.471102)
  40:      1566.38  113.938697  ( -0.601411   3.021178  10.220053)
  41:      1674.02   41.517613  ( -4.514714   3.614244  -2.841165)
  42:      1745.12  254.653469  ( 14.582435   3.546448   5.424829)
  43:      2596.70  1236.181032  ( 21.136508   3.890687 -27.826096)
  44:      3041.63   11.052965  ( -1.759843   2.326153   1.595283)
  45:      3086.13   11.208041  (  3.059193  -0.367757  -1.309250)
  46:      3087.43    0.791284  (  0.624896   0.549649  -0.314125)
  47:      3097.76    0.574623  ( -0.550552   0.466072  -0.233007)
  48:      3143.03    0.088383  ( -0.035421   0.263800  -0.132429)
  49:      3155.67    0.317754  (  0.133432  -0.362591  -0.410461)
  50:      3182.80    0.111521  (  0.259383  -0.112876  -0.177483)
  51:      3188.76    0.178520  (  0.314859  -0.014565  -0.281375)
  52:      3492.01   52.477230  (  4.308336  -5.553703  -1.752673)
  53:      3638.60   89.417938  ( -9.242828  -0.805948  -1.827162)

--------------------------
THERMOCHEMISTRY AT 298.15K
--------------------------

Temperature         ... 298.15 K
Pressure            ... 1.00 atm
Total Mass          ... 103.14 AMU

Throughout the following assumptions are being made:
  (1) The electronic state is orbitally nondegenerate
  (2) There are no thermally accessible electronically excited states
  (3) Hindered rotations indicated by low frequency modes) are not
      treated as such but are treated as vibrations and this may
      case some error
  (4) All equations used are the standard statistical mechanics
      equations for an ideal gas
  (5) All vibrations are strinctly harmonic

------------
INNER ENERGY
------------

The inner energy is: U= E(el) + E(ZPE) + E(vib) + E(rot) + E(trans)
    E(el)   - is the total energy from the electronic structure calculation
              = E(kin-el) + E(nuc-el) + E(el-el) + E(nuc-nuc)
    E(ZPE)  - the the zero temperature vibrational energy from the frequency calculation
    E(vib)  - the the finite temperature correction to E(ZPE) due to population
              of excietd vibrational states
    E(rot)  - is the rotational thermal energy
    E(trans)- is the translational thermal energy

Summary of contributions to the inner energy U:
Electronic energy                ...   -343.29672429 Eh
Zero point energy                ...      0.16462374 Eh     103.30 kcal/mol
Thermal vibrational correction   ...      0.00500735 Eh       3.14 kcal/mol
Thermal rotational correction    ...      0.00141627 Eh       0.89 kcal/mol
Thermal translational correction ...      0.00141627 Eh       0.89 kcal/mol
-----------------------------------------------------------------------
Total thermal energy                   -343.12426066 Eh

Summary of corrections to the electronic energy:
(perhaps to be used in another calculation)
Total thermal correction                  0.00783989 Eh       4.92 kcal/mol
Non-thermal (ZPE) correction              0.16462374 Eh     103.30 kcal/mol
-----------------------------------------------------------------------
Total correction                          0.17246363 Eh     108.22 kcal/mol

--------
ENTHALPY
--------

The enthalpy is H = U + kB*T
                kB is Boltzmann's constant
Total free energy                 ...   -343.12426066 Eh
Thermal Enthalpy correction       ...      0.00094421 Eh       0.59 kcal/mol
-----------------------------------------------------------------------
Total Enthalpy                    ...   -343.12331645 Eh

-------
ENTROPY
-------

The entropy contributions are T*S = T*(S(el)+S(vib)+S(rot)+S(trans)
     S(el)   - electronic entropy
     S(vib)  - vibrational entropy
     S(rot)  - rotational entropy
     S(trans)- translational entropy
The entropies will be listed as mutliplied by the temperature to get
units of energy

Electronic entropy                ...      0.00000000 Eh      0.00 kcal/mol
Vibrational entropy               ...      0.00876870 Eh      5.50 kcal/mol
Rotational entropy                ...      0.01215306 Eh      7.63 kcal/mol
Translational entropy             ...      0.01891510 Eh     11.87 kcal/mol
-----------------------------------------------------------------------
Final entropy term                ...      0.03983686 Eh     25.00 kcal/mol

CAUTION: The rotational entropy is not quite correctly treated here
         because it includes a symmetry number that is not yet correctly
         implemented in ORCA!
For a nonlinear molecule the correct rotational entropy is:
    S(rot) = R*(ln(qrot/sn)+1.5)
    R    = 8.31441 J/mol/K = 1.987191683e-3 kcal/mol/K
    qrot = 260445.5262714
    sn is the rotational symmetry number. We have assumed 3 here
       if it is different for your molecule then you should correct
       the printed rotational entropy by manually evaluating the equation
       as given above

For convenience we print out the resulting values for sn=1 - 12:
 sn= 1  qrot/sn=  260445.5263 T*S(rot)=     8.28 kcal/mol T*S(tot)=    25.65 kcal/mol
 sn= 2  qrot/sn=  130222.7631 T*S(rot)=     7.87 kcal/mol T*S(tot)=    25.24 kcal/mol
 sn= 3  qrot/sn=   86815.1754 T*S(rot)=     7.63 kcal/mol T*S(tot)=    25.00 kcal/mol
 sn= 4  qrot/sn=   65111.3816 T*S(rot)=     7.46 kcal/mol T*S(tot)=    24.83 kcal/mol
 sn= 5  qrot/sn=   52089.1053 T*S(rot)=     7.32 kcal/mol T*S(tot)=    24.70 kcal/mol
 sn= 6  qrot/sn=   43407.5877 T*S(rot)=     7.22 kcal/mol T*S(tot)=    24.59 kcal/mol
 sn= 7  qrot/sn=   37206.5038 T*S(rot)=     7.12 kcal/mol T*S(tot)=    24.50 kcal/mol
 sn= 8  qrot/sn=   32555.6908 T*S(rot)=     7.05 kcal/mol T*S(tot)=    24.42 kcal/mol
 sn= 9  qrot/sn=   28938.3918 T*S(rot)=     6.98 kcal/mol T*S(tot)=    24.35 kcal/mol
 sn=10  qrot/sn=   26044.5526 T*S(rot)=     6.91 kcal/mol T*S(tot)=    24.28 kcal/mol
 sn=11  qrot/sn=   23676.8660 T*S(rot)=     6.86 kcal/mol T*S(tot)=    24.23 kcal/mol
 sn=12  qrot/sn=   21703.7939 T*S(rot)=     6.80 kcal/mol T*S(tot)=    24.18 kcal/mol

-------------------
GIBBS FREE ENTHALPY
-------------------

The Gibbs free enthalpy is G = H - T*S

Total enthalpy                    ...   -343.12331645 Eh
Total entropy correction          ...     -0.03983686 Eh    -25.00 kcal/mol
-----------------------------------------------------------------------
Final Gibbs free enthalpy         ...   -343.16315331 Eh

For completeness - the Gibbs free enthalpy minus the electronic energy
G-E(el)                           ...      0.13357098 Eh     83.82 kcal/mol

                             ****ORCA TERMINATED NORMALLY****
TOTAL RUN TIME: 0 days 0 hours 53 minutes 12 seconds 662 msec
