                         Program Version 3.0.3 - RELEASE   -
|  1> ! NORI PBE0 def2-TZVP UseSym TightOPT Freq TightSCF Grid3 FinalGrid5 XYZFile
|  2> % pal
|  3>     nprocs 8
|  4> end
|  5> %method
|  6>     SymThresh 5.0e-2
|  7> end
|  8> % geom
|  9>     MaxIter 10
| 10> end
| 11> % maxcore 2000
| 12> % output
| 13>     printlevel mini
| 14>     print[ P_Basis ] 0
| 15>     print[ P_SCFInfo ] 1
| 16>     print[ P_SCFIterInfo ] 1
| 17>     print[ P_OrbEn ] 0
| 18>     print[ P_Cartesian ] 0
| 19> end
| 20> % elprop
| 21>     Dipole false
| 22> end
| 23> *xyz 1 1
| 24>  C        1.2379833475     0.4493011146     0.3208705592
| 25>  N        2.2129216444    -0.4427639229    -0.3572468398
| 26>  C        2.9388957840    -1.4142891939     0.5290153903
| 27>  C        2.8181855708    -2.7861260885    -0.1656552179
| 28>  O        2.1417058195    -2.8931136067    -1.1452749725
| 29>  C        4.3132913220    -1.0328890431     0.7477943233
| 30>  C        5.4685862915    -0.7539211456     0.9016599426
| 31>  H        0.7895269379     1.1043044759    -0.4242152347
| 32>  H        1.7596481882     1.0386574728     1.0726981747
| 33>  H        0.4673256280    -0.1632724741     0.7845956179
| 34>  H        2.9079406823     0.1141930281    -0.8575815439
| 35>  H        1.7508434109    -1.0516323735    -1.0631297329
| 36>  H        2.3934864430    -1.4752594162     1.4788756985
| 37>  H        3.3738370560    -3.6160384884     0.2946881649
| 38>  H        6.4958618742    -0.4987803385     1.0481956703
| 39> *
| 40>
| 41>                          ****END OF INPUT****
 Total Charge           Charge          ....    1
 Multiplicity           Mult            ....    1
 Number of Electrons    NEL             ....   52
FINAL SINGLE POINT ENERGY      -324.722756711677
FINAL SINGLE POINT ENERGY      -324.722757291096
FINAL SINGLE POINT ENERGY      -324.722757616842
FINAL SINGLE POINT ENERGY      -324.722759024584

CARTESIAN COORDINATES (ANGSTROEM)
---------------------------------
  C      2.061692   -0.946682   -0.819765
  N      1.158919   -0.001030   -0.113548
  C     -0.302334   -0.347874   -0.140846
  C     -0.791170   -0.217753    1.316361
  O     -0.001024    0.002233    2.185807
  C     -1.047669    0.495378   -1.043955
  C     -1.686271    1.215970   -1.757381
  H      3.084361   -0.584779   -0.728148
  H      1.773766   -0.996233   -1.868200
  H      1.973938   -1.926310   -0.353785
  H      1.271513    0.940451   -0.493635
  H      1.380139    0.056138    0.901408
  H     -0.391575   -1.403368   -0.426470
  H     -1.871522   -0.342324    1.480900
  H     -2.254922    1.851006   -2.401766

FINAL SINGLE POINT ENERGY      -324.722759852065
                    ***********************HURRAY********************
 Multiplicity           Mult            ....    1
 Number of Electrons    NEL             ....   52
 Basis Dimension        Dim             ....  265
FINAL SINGLE POINT ENERGY      -324.722761169093

VIBRATIONAL FREQUENCIES
-----------------------

   0:         0.00 cm**-1
   1:         0.00 cm**-1
   2:         0.00 cm**-1
   3:         0.00 cm**-1
   4:         0.00 cm**-1
   5:         0.00 cm**-1
   6:        25.39 cm**-1
   7:       123.49 cm**-1
   8:       158.04 cm**-1
   9:       221.45 cm**-1
  10:       242.56 cm**-1
  11:       319.05 cm**-1
  12:       357.67 cm**-1
  13:       478.96 cm**-1
  14:       521.08 cm**-1
  15:       686.74 cm**-1
  16:       733.12 cm**-1
  17:       780.59 cm**-1
  18:       789.10 cm**-1
  19:       856.54 cm**-1
  20:       986.99 cm**-1
  21:      1020.38 cm**-1
  22:      1031.68 cm**-1
  23:      1073.58 cm**-1
  24:      1169.53 cm**-1
  25:      1190.74 cm**-1
  26:      1273.35 cm**-1
  27:      1326.40 cm**-1
  28:      1367.28 cm**-1
  29:      1380.73 cm**-1
  30:      1426.92 cm**-1
  31:      1461.53 cm**-1
  32:      1492.71 cm**-1
  33:      1497.61 cm**-1
  34:      1651.58 cm**-1
  35:      1841.06 cm**-1
  36:      2252.52 cm**-1
  37:      3056.18 cm**-1
  38:      3060.41 cm**-1
  39:      3090.59 cm**-1
  40:      3187.68 cm**-1
  41:      3193.03 cm**-1
  42:      3198.42 cm**-1
  43:      3447.89 cm**-1
  44:      3472.35 cm**-1

IR SPECTRUM
-----------

 Mode    freq (cm**-1)   T**2         TX         TY         TZ
-------------------------------------------------------------------
   7:       123.49    5.375890  (  1.097848  -2.039146   0.111812)
   8:       158.04    0.381935  ( -0.100461  -0.203724  -0.574752)
   9:       221.45    3.941414  (  1.315711   0.597604  -1.361319)
  10:       242.56   17.945439  (  1.589193  -3.191533  -2.287798)
  11:       319.05   26.792207  (  3.268742   2.776707  -2.897831)
  12:       357.67   32.285741  ( -3.193881   1.144400   4.557983)
  13:       478.96    8.374548  ( -0.481748  -0.417074   2.822856)
  14:       521.08   24.068519  ( -4.713148  -1.169577   0.697745)
  15:       686.74    7.181072  ( -0.713954  -1.035138   2.366396)
  16:       733.12   44.050456  ( -1.036936   4.193450   5.038869)
  17:       780.59   22.991234  (  3.684119   2.671900  -1.509784)
  18:       789.10   16.165184  ( -3.448275  -0.379972   2.032290)
  19:       856.54   31.768777  ( -0.331842   1.375442  -5.455898)
  20:       986.99   13.169626  ( -1.590627  -1.668344  -2.802884)
  21:      1020.38    8.022619  ( -2.284377  -1.363009   0.972857)
  22:      1031.68   10.684408  (  1.886315  -0.652895  -2.588427)
  23:      1073.58   26.082548  (  3.111289  -2.383732   3.274180)
  24:      1169.53   20.131756  ( -3.277903   0.194020   3.057689)
  25:      1190.74    9.017762  ( -1.543915  -0.093014   2.573992)
  26:      1273.35   10.669363  ( -2.778086   0.646266   1.591836)
  27:      1326.40   11.186043  (  0.341527   2.138608  -2.548678)
  28:      1367.28   11.438418  ( -3.187954  -0.479881   1.022293)
  29:      1380.73   29.671832  (  4.361769   1.047280  -3.090308)
  30:      1426.92   91.319806  (  9.401684  -1.496416  -0.829990)
  31:      1461.53    9.539957  ( -2.437991   1.616974   0.990734)
  32:      1492.71   31.423127  (  4.869749  -0.322832   2.757617)
  33:      1497.61   26.391212  (  3.483310   2.850325  -2.476573)
  34:      1651.58   51.261883  (  3.464418   5.307508   3.330173)
  35:      1841.06  134.935349  ( -4.550245  -0.889145 -10.650824)
  36:      2252.52   31.891473  (  3.639609  -2.975001   3.129551)
  37:      3056.18    5.750279  (  1.611875   1.374796   1.123421)
  38:      3060.41    7.026777  ( -1.519136   0.225488   2.160592)
  39:      3090.59    0.356493  ( -0.088249  -0.233025  -0.542591)
  40:      3187.68   94.808066  ( -2.828388   0.816939   9.281212)
  41:      3193.03   21.602658  ( -1.013853   0.900063   4.445745)
  42:      3198.42   88.253870  (  1.733569  -0.833423  -9.195326)
  43:      3447.89  103.076687  ( -5.622203   5.657201  -6.282006)
  44:      3472.35   78.595388  (  2.016497   7.562530  -4.163805)

--------------------------
THERMOCHEMISTRY AT 298.15K
--------------------------

Temperature         ... 298.15 K
Pressure            ... 1.00 atm
Total Mass          ... 98.12 AMU

Throughout the following assumptions are being made:
  (1) The electronic state is orbitally nondegenerate
  (2) There are no thermally accessible electronically excited states
  (3) Hindered rotations indicated by low frequency modes) are not
      treated as such but are treated as vibrations and this may
      case some error
  (4) All equations used are the standard statistical mechanics
      equations for an ideal gas
  (5) All vibrations are strinctly harmonic

------------
INNER ENERGY
------------

The inner energy is: U= E(el) + E(ZPE) + E(vib) + E(rot) + E(trans)
    E(el)   - is the total energy from the electronic structure calculation
              = E(kin-el) + E(nuc-el) + E(el-el) + E(nuc-nuc)
    E(ZPE)  - the the zero temperature vibrational energy from the frequency calculation
    E(vib)  - the the finite temperature correction to E(ZPE) due to population
              of excietd vibrational states
    E(rot)  - is the rotational thermal energy
    E(trans)- is the translational thermal energy

Summary of contributions to the inner energy U:
Electronic energy                ...   -324.72276117 Eh
Zero point energy                ...      0.12625500 Eh      79.23 kcal/mol
Thermal vibrational correction   ...      0.00422645 Eh       2.65 kcal/mol
Thermal rotational correction    ...      0.00141627 Eh       0.89 kcal/mol
Thermal translational correction ...      0.00141627 Eh       0.89 kcal/mol
-----------------------------------------------------------------------
Total thermal energy                   -324.58944718 Eh

Summary of corrections to the electronic energy:
(perhaps to be used in another calculation)
Total thermal correction                  0.00705899 Eh       4.43 kcal/mol
Non-thermal (ZPE) correction              0.12625500 Eh      79.23 kcal/mol
-----------------------------------------------------------------------
Total correction                          0.13331399 Eh      83.66 kcal/mol

--------
ENTHALPY
--------

The enthalpy is H = U + kB*T
                kB is Boltzmann's constant
Total free energy                 ...   -324.58944718 Eh
Thermal Enthalpy correction       ...      0.00094421 Eh       0.59 kcal/mol
-----------------------------------------------------------------------
Total Enthalpy                    ...   -324.58850297 Eh

-------
ENTROPY
-------

The entropy contributions are T*S = T*(S(el)+S(vib)+S(rot)+S(trans)
     S(el)   - electronic entropy
     S(vib)  - vibrational entropy
     S(rot)  - rotational entropy
     S(trans)- translational entropy
The entropies will be listed as mutliplied by the temperature to get
units of energy

Electronic entropy                ...      0.00000000 Eh      0.00 kcal/mol
Vibrational entropy               ...      0.00707911 Eh      4.44 kcal/mol
Rotational entropy                ...      0.01220369 Eh      7.66 kcal/mol
Translational entropy             ...      0.01884443 Eh     11.83 kcal/mol
-----------------------------------------------------------------------
Final entropy term                ...      0.03812723 Eh     23.93 kcal/mol

CAUTION: The rotational entropy is not quite correctly treated here
         because it includes a symmetry number that is not yet correctly
         implemented in ORCA!
For a nonlinear molecule the correct rotational entropy is:
    S(rot) = R*(ln(qrot/sn)+1.5)
    R    = 8.31441 J/mol/K = 1.987191683e-3 kcal/mol/K
    qrot = 274791.9818507
    sn is the rotational symmetry number. We have assumed 3 here
       if it is different for your molecule then you should correct
       the printed rotational entropy by manually evaluating the equation
       as given above

For convenience we print out the resulting values for sn=1 - 12:
 sn= 1  qrot/sn=  274791.9819 T*S(rot)=     8.31 kcal/mol T*S(tot)=    24.58 kcal/mol
 sn= 2  qrot/sn=  137395.9909 T*S(rot)=     7.90 kcal/mol T*S(tot)=    24.17 kcal/mol
 sn= 3  qrot/sn=   91597.3273 T*S(rot)=     7.66 kcal/mol T*S(tot)=    23.93 kcal/mol
 sn= 4  qrot/sn=   68697.9955 T*S(rot)=     7.49 kcal/mol T*S(tot)=    23.75 kcal/mol
 sn= 5  qrot/sn=   54958.3964 T*S(rot)=     7.36 kcal/mol T*S(tot)=    23.62 kcal/mol
 sn= 6  qrot/sn=   45798.6636 T*S(rot)=     7.25 kcal/mol T*S(tot)=    23.51 kcal/mol
 sn= 7  qrot/sn=   39255.9974 T*S(rot)=     7.16 kcal/mol T*S(tot)=    23.42 kcal/mol
 sn= 8  qrot/sn=   34348.9977 T*S(rot)=     7.08 kcal/mol T*S(tot)=    23.34 kcal/mol
 sn= 9  qrot/sn=   30532.4424 T*S(rot)=     7.01 kcal/mol T*S(tot)=    23.27 kcal/mol
 sn=10  qrot/sn=   27479.1982 T*S(rot)=     6.94 kcal/mol T*S(tot)=    23.21 kcal/mol
 sn=11  qrot/sn=   24981.0893 T*S(rot)=     6.89 kcal/mol T*S(tot)=    23.16 kcal/mol
 sn=12  qrot/sn=   22899.3318 T*S(rot)=     6.84 kcal/mol T*S(tot)=    23.10 kcal/mol

-------------------
GIBBS FREE ENTHALPY
-------------------

The Gibbs free enthalpy is G = H - T*S

Total enthalpy                    ...   -324.58850297 Eh
Total entropy correction          ...     -0.03812723 Eh    -23.93 kcal/mol
-----------------------------------------------------------------------
Final Gibbs free enthalpy         ...   -324.62663020 Eh

For completeness - the Gibbs free enthalpy minus the electronic energy
G-E(el)                           ...      0.09613097 Eh     60.32 kcal/mol

                             ****ORCA TERMINATED NORMALLY****
TOTAL RUN TIME: 0 days 0 hours 39 minutes 36 seconds 818 msec
