                         Program Version 3.0.3 - RELEASE   -
|  1> ! NORI PBE0 def2-TZVP UseSym TightOPT Freq TightSCF Grid3 FinalGrid5 XYZFile
|  2> % pal
|  3>     nprocs 8
|  4> end
|  5> %method
|  6>     SymThresh 5.0e-2
|  7> end
|  8> % geom
|  9>     MaxIter 10
| 10> end
| 11> % maxcore 2000
| 12> % output
| 13>     printlevel mini
| 14>     print[ P_Basis ] 0
| 15>     print[ P_SCFInfo ] 1
| 16>     print[ P_SCFIterInfo ] 1
| 17>     print[ P_OrbEn ] 0
| 18>     print[ P_Cartesian ] 0
| 19> end
| 20> % elprop
| 21>     Dipole false
| 22> end
| 23> *xyz 1 1
| 24>  C        1.2695992981     0.3068099808    -0.1914926078
| 25>  N        2.7001181084     0.3467863029    -0.5817972940
| 26>  C        3.2711723735    -0.9375429641    -1.1570588937
| 27>  C        2.7552893036    -1.0419118628    -2.5876584499
| 28>  O        2.9503342393     0.2355204102    -3.1520774602
| 29>  C        4.7621058525    -0.8691122826    -1.0738476325
| 30>  C        5.4671541028    -1.6101408895    -0.2311666324
| 31>  H        0.9828143230     1.2824450802     0.1976379056
| 32>  H        1.1315709296    -0.4543571614     0.5742965263
| 33>  H        0.6682944331     0.0737441215    -1.0668318829
| 34>  H        2.8357538731     1.0482691723    -1.3218398947
| 35>  H        3.2765995168     0.6197919247     0.2147961591
| 36>  H        2.8880095983    -1.7566858324    -0.5455579342
| 37>  H        3.3315415496    -1.8180648478    -3.0999699948
| 38>  H        1.6983153902    -1.3327980886    -2.6072299448
| 39>  H        2.7416479041     0.2346130319    -4.0902673994
| 40>  H        5.2539162658    -0.1892686795    -1.7651909437
| 41>  H        4.9969860799    -2.3131740035     0.4501049203
| 42>  H        6.5489168582    -1.5531234122    -0.2030185464
| 43> *
| 44>
| 45>                          ****END OF INPUT****
 Total Charge           Charge          ....    1
 Multiplicity           Mult            ....    1
 Number of Electrons    NEL             ....   56
FINAL SINGLE POINT ENERGY      -327.205410318191
FINAL SINGLE POINT ENERGY      -327.205412015672

CARTESIAN COORDINATES (ANGSTROEM)
---------------------------------
  C      2.027093   -1.212976   -0.469103
  N      1.188717    0.000520   -0.312393
  C     -0.313837   -0.221143   -0.320559
  C     -0.679645   -0.800651    1.041019
  O      0.001283   -0.003578    1.983911
  C     -0.980944    1.087289   -0.599395
  C     -1.592550    1.349544   -1.745697
  H      3.076021   -0.922603   -0.444107
  H      1.793956   -1.684485   -1.421631
  H      1.819470   -1.897118    0.350011
  H      1.384809    0.439622    0.596871
  H      1.410009    0.680215   -1.040564
  H     -0.523853   -0.938242   -1.116296
  H     -1.766503   -0.743505    1.152064
  H     -0.384301   -1.853944    1.116755
  H     -0.254528   -0.233782    2.881228
  H     -0.963595    1.818931    0.204390
  H     -1.642890    0.623337   -2.551619
  H     -2.083534    2.300051   -1.915100

FINAL SINGLE POINT ENERGY      -327.205412963891
                    ***********************HURRAY********************
 Multiplicity           Mult            ....    1
 Number of Electrons    NEL             ....   56
 Basis Dimension        Dim             ....  289
FINAL SINGLE POINT ENERGY      -327.205413558875

VIBRATIONAL FREQUENCIES
-----------------------

   0:         0.00 cm**-1
   1:         0.00 cm**-1
   2:         0.00 cm**-1
   3:         0.00 cm**-1
   4:         0.00 cm**-1
   5:         0.00 cm**-1
   6:        69.39 cm**-1
   7:        93.63 cm**-1
   8:       123.67 cm**-1
   9:       195.38 cm**-1
  10:       247.23 cm**-1
  11:       269.57 cm**-1
  12:       282.16 cm**-1
  13:       335.49 cm**-1
  14:       384.04 cm**-1
  15:       428.70 cm**-1
  16:       634.52 cm**-1
  17:       701.02 cm**-1
  18:       808.57 cm**-1
  19:       889.82 cm**-1
  20:       894.16 cm**-1
  21:       991.85 cm**-1
  22:      1021.90 cm**-1
  23:      1030.07 cm**-1
  24:      1038.69 cm**-1
  25:      1041.00 cm**-1
  26:      1092.52 cm**-1
  27:      1137.33 cm**-1
  28:      1154.19 cm**-1
  29:      1205.32 cm**-1
  30:      1236.20 cm**-1
  31:      1264.33 cm**-1
  32:      1310.70 cm**-1
  33:      1333.51 cm**-1
  34:      1339.23 cm**-1
  35:      1403.12 cm**-1
  36:      1423.67 cm**-1
  37:      1445.37 cm**-1
  38:      1458.37 cm**-1
  39:      1464.02 cm**-1
  40:      1493.06 cm**-1
  41:      1496.53 cm**-1
  42:      1521.27 cm**-1
  43:      1626.51 cm**-1
  44:      1721.42 cm**-1
  45:      3037.60 cm**-1
  46:      3094.61 cm**-1
  47:      3095.94 cm**-1
  48:      3116.70 cm**-1
  49:      3158.01 cm**-1
  50:      3176.52 cm**-1
  51:      3190.11 cm**-1
  52:      3200.96 cm**-1
  53:      3254.98 cm**-1
  54:      3366.58 cm**-1
  55:      3488.08 cm**-1
  56:      3871.49 cm**-1

IR SPECTRUM
-----------

 Mode    freq (cm**-1)   T**2         TX         TY         TZ
-------------------------------------------------------------------
   6:        69.39    2.374404  ( -0.772287   1.026872  -0.850594)
   7:        93.63    1.145570  ( -0.673888   0.726701  -0.404166)
   8:       123.67    7.477790  ( -1.884585   1.581867   1.193242)
   9:       195.38    2.206049  ( -0.693459   0.125291   1.307466)
  10:       247.23   23.529596  ( -3.662097   3.072233   0.824637)
  11:       269.57   79.395677  (  6.218862  -6.363907  -0.471301)
  12:       282.16   32.063590  ( -2.329539   3.099810  -4.126502)
  13:       335.49   16.582416  ( -2.453069   1.648798   2.801131)
  14:       384.04    2.153530  (  0.155439  -0.692155  -1.284636)
  15:       428.70    0.831919  ( -0.881687  -0.184648   0.143008)
  16:       634.52   11.697665  ( -3.026524  -1.550566  -0.365468)
  17:       701.02    8.216148  (  2.118380   0.414925  -1.885856)
  18:       808.57   27.399421  (  2.604642  -0.192050  -4.536340)
  19:       889.82   15.621287  ( -3.936728   0.347386   0.052761)
  20:       894.16   16.672528  (  1.504463   0.713561   3.728264)
  21:       991.85    6.056589  (  1.209051   0.035556  -2.143250)
  22:      1021.90   49.834977  ( -5.882953  -2.509008   2.988430)
  23:      1030.07    5.665864  ( -0.168309  -2.303164  -0.577036)
  24:      1038.69   48.207593  (  6.828990   0.349468   1.204308)
  25:      1041.00    7.945536  ( -1.721848   1.655310  -1.496905)
  26:      1092.52   72.917699  (  4.615061   3.358493   6.351333)
  27:      1137.33    4.835066  ( -1.458842   1.279035   1.034850)
  28:      1154.19    2.976718  ( -0.308199  -1.608306  -0.543215)
  29:      1205.32    7.978998  ( -0.315718  -2.574293  -1.119079)
  30:      1236.20   34.999319  ( -2.974568  -4.489423  -2.448743)
  31:      1264.33    4.000826  ( -0.971597   1.488944  -0.916445)
  32:      1310.70    6.245520  (  0.003343   1.608848   1.912359)
  33:      1333.51    4.146124  ( -1.255726   1.493309   0.582501)
  34:      1339.23    8.794560  ( -0.444567  -2.577642  -1.397384)
  35:      1403.12   18.485121  ( -3.921443   1.330535  -1.156322)
  36:      1423.67   50.692133  ( -7.045782   0.699980   0.747738)
  37:      1445.37   10.734381  (  3.224354   0.568673  -0.120561)
  38:      1458.37   10.791064  (  2.318536  -1.739052  -1.546335)
  39:      1464.02   29.057888  (  3.420465  -0.880835   4.072154)
  40:      1493.06   25.746277  (  4.412392   1.524867  -1.987927)
  41:      1496.53   20.756324  ( -3.611934  -0.941951  -2.612085)
  42:      1521.27   14.183364  (  0.913164   1.707851  -3.229975)
  43:      1626.51   58.542750  ( -3.370357  -6.633495   1.783310)
  44:      1721.42    0.990024  ( -0.786874   0.592958   0.138757)
  45:      3037.60   22.196971  ( -0.343917  -4.594759  -0.983303)
  46:      3094.61    4.042072  ( -1.697229   0.628649  -0.875377)
  47:      3095.94    5.509836  (  1.678982  -1.550420   0.535774)
  48:      3116.70    2.398437  (  0.286666  -1.251423  -0.866142)
  49:      3158.01    1.477526  ( -0.286866   1.100438   0.429266)
  50:      3176.52    0.073989  (  0.017278   0.001387   0.271457)
  51:      3190.11    0.100524  ( -0.192277   0.013556   0.251733)
  52:      3200.96    0.095893  ( -0.011108   0.062867  -0.303014)
  53:      3254.98    0.177574  (  0.222850  -0.078142   0.349007)
  54:      3366.58   97.626689  ( -0.544410  -4.334073  -8.862625)
  55:      3488.08   73.985808  ( -1.939955  -4.170171   7.268566)
  56:      3871.49  141.268448  (  1.423607   0.918354 -11.764286)

--------------------------
THERMOCHEMISTRY AT 298.15K
--------------------------

Temperature         ... 298.15 K
Pressure            ... 1.00 atm
Total Mass          ... 102.16 AMU

Throughout the following assumptions are being made:
  (1) The electronic state is orbitally nondegenerate
  (2) There are no thermally accessible electronically excited states
  (3) Hindered rotations indicated by low frequency modes) are not
      treated as such but are treated as vibrations and this may
      case some error
  (4) All equations used are the standard statistical mechanics
      equations for an ideal gas
  (5) All vibrations are strinctly harmonic

------------
INNER ENERGY
------------

The inner energy is: U= E(el) + E(ZPE) + E(vib) + E(rot) + E(trans)
    E(el)   - is the total energy from the electronic structure calculation
              = E(kin-el) + E(nuc-el) + E(el-el) + E(nuc-nuc)
    E(ZPE)  - the the zero temperature vibrational energy from the frequency calculation
    E(vib)  - the the finite temperature correction to E(ZPE) due to population
              of excietd vibrational states
    E(rot)  - is the rotational thermal energy
    E(trans)- is the translational thermal energy

Summary of contributions to the inner energy U:
Electronic energy                ...   -327.20541356 Eh
Zero point energy                ...      0.17464225 Eh     109.59 kcal/mol
Thermal vibrational correction   ...      0.00598023 Eh       3.75 kcal/mol
Thermal rotational correction    ...      0.00141627 Eh       0.89 kcal/mol
Thermal translational correction ...      0.00141627 Eh       0.89 kcal/mol
-----------------------------------------------------------------------
Total thermal energy                   -327.02195853 Eh

Summary of corrections to the electronic energy:
(perhaps to be used in another calculation)
Total thermal correction                  0.00881277 Eh       5.53 kcal/mol
Non-thermal (ZPE) correction              0.17464225 Eh     109.59 kcal/mol
-----------------------------------------------------------------------
Total correction                          0.18345503 Eh     115.12 kcal/mol

--------
ENTHALPY
--------

The enthalpy is H = U + kB*T
                kB is Boltzmann's constant
Total free energy                 ...   -327.02195853 Eh
Thermal Enthalpy correction       ...      0.00094421 Eh       0.59 kcal/mol
-----------------------------------------------------------------------
Total Enthalpy                    ...   -327.02101432 Eh

-------
ENTROPY
-------

The entropy contributions are T*S = T*(S(el)+S(vib)+S(rot)+S(trans)
     S(el)   - electronic entropy
     S(vib)  - vibrational entropy
     S(rot)  - rotational entropy
     S(trans)- translational entropy
The entropies will be listed as mutliplied by the temperature to get
units of energy

Electronic entropy                ...      0.00000000 Eh      0.00 kcal/mol
Vibrational entropy               ...      0.01094946 Eh      6.87 kcal/mol
Rotational entropy                ...      0.01224886 Eh      7.69 kcal/mol
Translational entropy             ...      0.01890147 Eh     11.86 kcal/mol
-----------------------------------------------------------------------
Final entropy term                ...      0.04209978 Eh     26.42 kcal/mol

CAUTION: The rotational entropy is not quite correctly treated here
         because it includes a symmetry number that is not yet correctly
         implemented in ORCA!
For a nonlinear molecule the correct rotational entropy is:
    S(rot) = R*(ln(qrot/sn)+1.5)
    R    = 8.31441 J/mol/K = 1.987191683e-3 kcal/mol/K
    qrot = 288258.3992421
    sn is the rotational symmetry number. We have assumed 3 here
       if it is different for your molecule then you should correct
       the printed rotational entropy by manually evaluating the equation
       as given above

For convenience we print out the resulting values for sn=1 - 12:
 sn= 1  qrot/sn=  288258.3992 T*S(rot)=     8.34 kcal/mol T*S(tot)=    27.07 kcal/mol
 sn= 2  qrot/sn=  144129.1996 T*S(rot)=     7.93 kcal/mol T*S(tot)=    26.66 kcal/mol
 sn= 3  qrot/sn=   96086.1331 T*S(rot)=     7.69 kcal/mol T*S(tot)=    26.42 kcal/mol
 sn= 4  qrot/sn=   72064.5998 T*S(rot)=     7.52 kcal/mol T*S(tot)=    26.25 kcal/mol
 sn= 5  qrot/sn=   57651.6798 T*S(rot)=     7.38 kcal/mol T*S(tot)=    26.12 kcal/mol
 sn= 6  qrot/sn=   48043.0665 T*S(rot)=     7.28 kcal/mol T*S(tot)=    26.01 kcal/mol
 sn= 7  qrot/sn=   41179.7713 T*S(rot)=     7.18 kcal/mol T*S(tot)=    25.92 kcal/mol
 sn= 8  qrot/sn=   36032.2999 T*S(rot)=     7.11 kcal/mol T*S(tot)=    25.84 kcal/mol
 sn= 9  qrot/sn=   32028.7110 T*S(rot)=     7.04 kcal/mol T*S(tot)=    25.77 kcal/mol
 sn=10  qrot/sn=   28825.8399 T*S(rot)=     6.97 kcal/mol T*S(tot)=    25.70 kcal/mol
 sn=11  qrot/sn=   26205.3090 T*S(rot)=     6.92 kcal/mol T*S(tot)=    25.65 kcal/mol
 sn=12  qrot/sn=   24021.5333 T*S(rot)=     6.86 kcal/mol T*S(tot)=    25.60 kcal/mol

-------------------
GIBBS FREE ENTHALPY
-------------------

The Gibbs free enthalpy is G = H - T*S

Total enthalpy                    ...   -327.02101432 Eh
Total entropy correction          ...     -0.04209978 Eh    -26.42 kcal/mol
-----------------------------------------------------------------------
Final Gibbs free enthalpy         ...   -327.06311411 Eh

For completeness - the Gibbs free enthalpy minus the electronic energy
G-E(el)                           ...      0.14229945 Eh     89.29 kcal/mol

                             ****ORCA TERMINATED NORMALLY****
TOTAL RUN TIME: 0 days 0 hours 52 minutes 46 seconds 647 msec
