                         Program Version 3.0.3 - RELEASE   -
|  1> ! NORI PBE0 def2-TZVP UseSym TightOPT Freq TightSCF Grid3 FinalGrid5 XYZFile
|  2> % pal
|  3>     nprocs 8
|  4> end
|  5> %method
|  6>     SymThresh 5.0e-2
|  7> end
|  8> % geom
|  9>     MaxIter 10
| 10> end
| 11> % maxcore 2000
| 12> % output
| 13>     printlevel mini
| 14>     print[ P_Basis ] 0
| 15>     print[ P_SCFInfo ] 1
| 16>     print[ P_SCFIterInfo ] 1
| 17>     print[ P_OrbEn ] 0
| 18>     print[ P_Cartesian ] 0
| 19> end
| 20> % elprop
| 21>     Dipole false
| 22> end
| 23> *xyz 1 1
| 24>  C        1.0167292883    -0.2574041335    -0.0514965591
| 25>  N        2.4450532476     0.0971843491     0.1398117289
| 26>  C        2.9488083883     1.2713253262    -0.6748524602
| 27>  C        2.3875518158     2.5429479902    -0.0325839392
| 28>  O        2.5219978356     2.3596022850     1.3538738236
| 29>  C        4.3971640564     1.2179516102    -0.6763058929
| 30>  C        5.5939026099     1.1635737795    -0.6776148169
| 31>  H        0.7832408417    -1.1111617220     0.5820442602
| 32>  H        0.8501280246    -0.5119002254    -1.0962497948
| 33>  H        0.3991453081     0.5894902604     0.2374561701
| 34>  H        2.6087563621     0.3751288533     1.1172750863
| 35>  H        3.0434279290    -0.7059731432    -0.0566903249
| 36>  H        2.5581618199     1.1525665737    -1.6892474180
| 37>  H        1.3383196070     2.6814636086    -0.3183589758
| 38>  H        2.9612816185     3.3923650911    -0.4100756238
| 39>  H        2.5241500671     3.1983254724     1.8222494636
| 40>  H        6.6611011801     1.1237140245    -0.6868347269
| 41> *
| 42>
| 43>                          ****END OF INPUT****
 Total Charge           Charge          ....    1
 Multiplicity           Mult            ....    1
 Number of Electrons    NEL             ....   54
FINAL SINGLE POINT ENERGY      -325.945645164613

CARTESIAN COORDINATES (ANGSTROEM)
---------------------------------
  C      2.067048   -1.156384   -0.496730
  N      1.138201    0.000238   -0.457466
  C     -0.338559   -0.339741   -0.445802
  C     -0.675513   -0.852691    0.957070
  O     -0.001648    0.001209    1.846303
  C     -1.069916    0.856831   -0.812131
  C     -1.666860    1.848457   -1.121340
  H      3.088845   -0.781093   -0.505079
  H      1.875540   -1.736110   -1.397631
  H      1.911074   -1.766874    0.389398
  H      1.283915    0.537175    0.408591
  H      1.313802    0.627919   -1.242889
  H     -0.494381   -1.128247   -1.187289
  H     -0.344628   -1.891701    1.071068
  H     -1.761104   -0.822845    1.074788
  H     -0.401188   -0.012778    2.719770
  H     -2.208903    2.726057   -1.397566

FINAL SINGLE POINT ENERGY      -325.945646006741
                    ***********************HURRAY********************
 Multiplicity           Mult            ....    1
 Number of Electrons    NEL             ....   54
 Basis Dimension        Dim             ....  277
FINAL SINGLE POINT ENERGY      -325.945646869863

VIBRATIONAL FREQUENCIES
-----------------------

   0:         0.00 cm**-1
   1:         0.00 cm**-1
   2:         0.00 cm**-1
   3:         0.00 cm**-1
   4:         0.00 cm**-1
   5:         0.00 cm**-1
   6:        71.83 cm**-1
   7:       107.11 cm**-1
   8:       137.98 cm**-1
   9:       151.70 cm**-1
  10:       189.88 cm**-1
  11:       245.72 cm**-1
  12:       303.43 cm**-1
  13:       349.10 cm**-1
  14:       436.54 cm**-1
  15:       524.02 cm**-1
  16:       662.27 cm**-1
  17:       730.60 cm**-1
  18:       768.68 cm**-1
  19:       798.17 cm**-1
  20:       887.45 cm**-1
  21:       908.99 cm**-1
  22:      1001.97 cm**-1
  23:      1033.66 cm**-1
  24:      1087.98 cm**-1
  25:      1097.12 cm**-1
  26:      1145.24 cm**-1
  27:      1182.36 cm**-1
  28:      1241.89 cm**-1
  29:      1271.52 cm**-1
  30:      1326.68 cm**-1
  31:      1344.96 cm**-1
  32:      1408.00 cm**-1
  33:      1423.73 cm**-1
  34:      1442.13 cm**-1
  35:      1458.98 cm**-1
  36:      1492.57 cm**-1
  37:      1495.91 cm**-1
  38:      1517.56 cm**-1
  39:      1623.40 cm**-1
  40:      2254.49 cm**-1
  41:      3040.99 cm**-1
  42:      3094.12 cm**-1
  43:      3095.18 cm**-1
  44:      3113.96 cm**-1
  45:      3190.21 cm**-1
  46:      3201.10 cm**-1
  47:      3359.14 cm**-1
  48:      3455.18 cm**-1
  49:      3488.27 cm**-1
  50:      3878.96 cm**-1

IR SPECTRUM
-----------

 Mode    freq (cm**-1)   T**2         TX         TY         TZ
-------------------------------------------------------------------
   6:        71.83   11.341404  (  1.893736  -2.394265   1.422203)
   7:       107.11   16.569925  ( -2.732327   3.017126  -0.035579)
   8:       137.98   98.815412  (  6.340780  -7.381657   2.030041)
   9:       151.70    9.330125  (  1.053445  -2.456649   1.478260)
  10:       189.88    8.088384  ( -0.387430   0.226131  -2.808406)
  11:       245.72   10.549745  (  0.083050  -0.388320  -3.223671)
  12:       303.43   18.158903  ( -0.695892   0.931260   4.099682)
  13:       349.10    3.141125  (  1.212986   1.161336  -0.566646)
  14:       436.54    4.252402  (  0.175069   1.056637  -1.762178)
  15:       524.02   27.318524  (  4.825073   1.055011  -1.710014)
  16:       662.27    9.058714  (  1.114758   1.468750   2.378824)
  17:       730.60   40.781334  (  0.025180  -1.863480  -6.108039)
  18:       768.68   29.612010  ( -4.409036  -3.029401   0.997571)
  19:       798.17   17.905551  (  2.024940   0.590006  -3.668387)
  20:       887.45   21.499804  ( -1.484292   1.763413   4.023314)
  21:       908.99   33.788596  (  4.250620   0.521945   3.930445)
  22:      1001.97   17.762376  ( -4.047612  -1.080736   0.459587)
  23:      1033.66   11.798860  (  2.292547  -2.548824  -0.215834)
  24:      1087.98   40.656635  (  4.226415   1.951000   4.357483)
  25:      1097.12   40.737283  (  3.113007   3.133360   4.607443)
  26:      1145.24    3.784586  (  1.866925   0.538350   0.096722)
  27:      1182.36    5.821207  ( -1.073518   2.020550   0.765599)
  28:      1241.89   32.038805  (  2.254491   4.953734   1.554540)
  29:      1271.52    6.619449  (  1.618309   1.321757   1.501161)
  30:      1326.68   15.209376  ( -0.305572  -3.379139  -1.922868)
  31:      1344.96    3.674491  (  0.321307   1.507105  -1.140126)
  32:      1408.00    7.909058  ( -1.171530   1.367033  -2.160508)
  33:      1423.73   45.892969  ( -6.406700   2.176736   0.330124)
  34:      1442.13   32.854595  (  5.683123  -0.728961  -0.159143)
  35:      1458.98   16.881330  (  3.333087  -2.320099  -0.623700)
  36:      1492.57   27.388452  (  4.397528   1.231871  -2.555913)
  37:      1495.91   25.304549  ( -4.147416  -1.471661  -2.436740)
  38:      1517.56   12.779646  ( -0.722369  -1.350801   3.230041)
  39:      1623.40   62.528855  ( -3.158576  -7.018793   1.813505)
  40:      2254.49   26.397567  (  3.295868  -3.806543   1.022278)
  41:      3040.99   23.245449  ( -0.129190   4.693511   1.095316)
  42:      3094.12    0.508217  ( -0.590696   0.203024  -0.343623)
  43:      3095.18    1.073349  (  0.288022  -0.994721  -0.030382)
  44:      3113.96    4.667518  (  1.663861  -1.111534   0.814602)
  45:      3190.21    0.243083  ( -0.422516  -0.116580   0.225770)
  46:      3201.10    0.018782  ( -0.121992  -0.009886  -0.061666)
  47:      3359.14  100.369002  ( -0.413031  -5.046980  -8.644443)
  48:      3455.18   96.471352  (  5.118465  -7.934337   2.705358)
  49:      3488.27   86.181454  (  2.044183   4.045195  -8.101800)
  50:      3878.96  151.254408  ( -2.833026   1.042402  11.922322)

--------------------------
THERMOCHEMISTRY AT 298.15K
--------------------------

Temperature         ... 298.15 K
Pressure            ... 1.00 atm
Total Mass          ... 100.14 AMU

Throughout the following assumptions are being made:
  (1) The electronic state is orbitally nondegenerate
  (2) There are no thermally accessible electronically excited states
  (3) Hindered rotations indicated by low frequency modes) are not
      treated as such but are treated as vibrations and this may
      case some error
  (4) All equations used are the standard statistical mechanics
      equations for an ideal gas
  (5) All vibrations are strinctly harmonic

------------
INNER ENERGY
------------

The inner energy is: U= E(el) + E(ZPE) + E(vib) + E(rot) + E(trans)
    E(el)   - is the total energy from the electronic structure calculation
              = E(kin-el) + E(nuc-el) + E(el-el) + E(nuc-nuc)
    E(ZPE)  - the the zero temperature vibrational energy from the frequency calculation
    E(vib)  - the the finite temperature correction to E(ZPE) due to population
              of excietd vibrational states
    E(rot)  - is the rotational thermal energy
    E(trans)- is the translational thermal energy

Summary of contributions to the inner energy U:
Electronic energy                ...   -325.94564687 Eh
Zero point energy                ...      0.15045179 Eh      94.41 kcal/mol
Thermal vibrational correction   ...      0.00590047 Eh       3.70 kcal/mol
Thermal rotational correction    ...      0.00141627 Eh       0.89 kcal/mol
Thermal translational correction ...      0.00141627 Eh       0.89 kcal/mol
-----------------------------------------------------------------------
Total thermal energy                   -325.78646206 Eh

Summary of corrections to the electronic energy:
(perhaps to be used in another calculation)
Total thermal correction                  0.00873302 Eh       5.48 kcal/mol
Non-thermal (ZPE) correction              0.15045179 Eh      94.41 kcal/mol
-----------------------------------------------------------------------
Total correction                          0.15918481 Eh      99.89 kcal/mol

--------
ENTHALPY
--------

The enthalpy is H = U + kB*T
                kB is Boltzmann's constant
Total free energy                 ...   -325.78646206 Eh
Thermal Enthalpy correction       ...      0.00094421 Eh       0.59 kcal/mol
-----------------------------------------------------------------------
Total Enthalpy                    ...   -325.78551786 Eh

-------
ENTROPY
-------

The entropy contributions are T*S = T*(S(el)+S(vib)+S(rot)+S(trans)
     S(el)   - electronic entropy
     S(vib)  - vibrational entropy
     S(rot)  - rotational entropy
     S(trans)- translational entropy
The entropies will be listed as mutliplied by the temperature to get
units of energy

Electronic entropy                ...      0.00000000 Eh      0.00 kcal/mol
Vibrational entropy               ...      0.01086655 Eh      6.82 kcal/mol
Rotational entropy                ...      0.01217111 Eh      7.64 kcal/mol
Translational entropy             ...      0.01887324 Eh     11.84 kcal/mol
-----------------------------------------------------------------------
Final entropy term                ...      0.04191090 Eh     26.30 kcal/mol

CAUTION: The rotational entropy is not quite correctly treated here
         because it includes a symmetry number that is not yet correctly
         implemented in ORCA!
For a nonlinear molecule the correct rotational entropy is:
    S(rot) = R*(ln(qrot/sn)+1.5)
    R    = 8.31441 J/mol/K = 1.987191683e-3 kcal/mol/K
    qrot = 265472.7332923
    sn is the rotational symmetry number. We have assumed 3 here
       if it is different for your molecule then you should correct
       the printed rotational entropy by manually evaluating the equation
       as given above

For convenience we print out the resulting values for sn=1 - 12:
 sn= 1  qrot/sn=  265472.7333 T*S(rot)=     8.29 kcal/mol T*S(tot)=    26.95 kcal/mol
 sn= 2  qrot/sn=  132736.3666 T*S(rot)=     7.88 kcal/mol T*S(tot)=    26.54 kcal/mol
 sn= 3  qrot/sn=   88490.9111 T*S(rot)=     7.64 kcal/mol T*S(tot)=    26.30 kcal/mol
 sn= 4  qrot/sn=   66368.1833 T*S(rot)=     7.47 kcal/mol T*S(tot)=    26.13 kcal/mol
 sn= 5  qrot/sn=   53094.5467 T*S(rot)=     7.33 kcal/mol T*S(tot)=    26.00 kcal/mol
 sn= 6  qrot/sn=   44245.4555 T*S(rot)=     7.23 kcal/mol T*S(tot)=    25.89 kcal/mol
 sn= 7  qrot/sn=   37924.6762 T*S(rot)=     7.14 kcal/mol T*S(tot)=    25.80 kcal/mol
 sn= 8  qrot/sn=   33184.0917 T*S(rot)=     7.06 kcal/mol T*S(tot)=    25.72 kcal/mol
 sn= 9  qrot/sn=   29496.9704 T*S(rot)=     6.99 kcal/mol T*S(tot)=    25.65 kcal/mol
 sn=10  qrot/sn=   26547.2733 T*S(rot)=     6.92 kcal/mol T*S(tot)=    25.59 kcal/mol
 sn=11  qrot/sn=   24133.8848 T*S(rot)=     6.87 kcal/mol T*S(tot)=    25.53 kcal/mol
 sn=12  qrot/sn=   22122.7278 T*S(rot)=     6.82 kcal/mol T*S(tot)=    25.48 kcal/mol

-------------------
GIBBS FREE ENTHALPY
-------------------

The Gibbs free enthalpy is G = H - T*S

Total enthalpy                    ...   -325.78551786 Eh
Total entropy correction          ...     -0.04191090 Eh    -26.30 kcal/mol
-----------------------------------------------------------------------
Final Gibbs free enthalpy         ...   -325.82742876 Eh

For completeness - the Gibbs free enthalpy minus the electronic energy
G-E(el)                           ...      0.11821811 Eh     74.18 kcal/mol

                             ****ORCA TERMINATED NORMALLY****
TOTAL RUN TIME: 0 days 0 hours 44 minutes 17 seconds 492 msec
