                         Program Version 3.0.3 - RELEASE   -
|  1> ! NORI PBE0 def2-TZVP UseSym TightOPT Freq TightSCF Grid3 FinalGrid5 XYZFile
|  2> % pal
|  3>     nprocs 8
|  4> end
|  5> %method
|  6>     SymThresh 5.0e-2
|  7> end
|  8> % geom
|  9>     MaxIter 10
| 10> end
| 11> % maxcore 2000
| 12> % output
| 13>     printlevel mini
| 14>     print[ P_Basis ] 0
| 15>     print[ P_SCFInfo ] 1
| 16>     print[ P_SCFIterInfo ] 1
| 17>     print[ P_OrbEn ] 0
| 18>     print[ P_Cartesian ] 0
| 19> end
| 20> % elprop
| 21>     Dipole false
| 22> end
| 23> *xyz 1 1
| 24>  C        1.2606068500     0.1261546515    -0.2152697333
| 25>  N        2.4157251540    -0.1914916122     0.6664509578
| 26>  C        3.1256554021     0.9840601202     1.2339221009
| 27>  C        4.4885315196     1.0312350332     0.5407514768
| 28>  O        4.7676974225     0.1414242698    -0.2313106756
| 29>  C        5.3296730892     2.1276404227     0.8704177634
| 30>  C        6.0088515168     3.0700721124     1.1779832719
| 31>  H        0.8660479543    -0.8026422106    -0.6230221113
| 32>  H        1.6120755496     0.7637885604    -1.0243896531
| 33>  H        0.4958037762     0.6374814910     0.3657627969
| 34>  H        3.1660605494    -0.6553746499     0.1043578831
| 35>  H        2.1276436646    -0.8342610289     1.4025689317
| 36>  H        3.2567572201     0.8708796654     2.3116145250
| 37>  H        2.5578974473     1.8969925403     1.0503881314
| 38>  H        6.6323228844     3.8990106348     1.4370143346
| 39> *
| 40>
| 41>                          ****END OF INPUT****
 Total Charge           Charge          ....    1
 Multiplicity           Mult            ....    1
 Number of Electrons    NEL             ....   52
FINAL SINGLE POINT ENERGY      -324.734814796414
FINAL SINGLE POINT ENERGY      -324.734815376227
FINAL SINGLE POINT ENERGY      -324.734815291069
FINAL SINGLE POINT ENERGY      -324.734815730744

CARTESIAN COORDINATES (ANGSTROEM)
---------------------------------
  C      2.335814    1.300772   -0.792305
  N      1.774765    0.001299   -0.335020
  C      0.405483   -0.309133   -0.821940
  C     -0.508957   -0.219026    0.401490
  O     -0.001466   -0.000767    1.478752
  C     -1.897805   -0.408137    0.170857
  C     -3.063913   -0.574525   -0.066527
  H      3.306990    1.446902   -0.322724
  H      1.656583    2.095008   -0.487984
  H      2.440265    1.285248   -1.875316
  H      1.642136    0.024428    0.702317
  H      2.420490   -0.755027   -0.556044
  H      0.366922   -1.314223   -1.245278
  H      0.104691    0.400907   -1.592867
  H     -4.106409   -0.720584   -0.253017

FINAL SINGLE POINT ENERGY      -324.734815991103
                    ***********************HURRAY********************
 Multiplicity           Mult            ....    1
 Number of Electrons    NEL             ....   52
 Basis Dimension        Dim             ....  265
FINAL SINGLE POINT ENERGY      -324.734816125061

VIBRATIONAL FREQUENCIES
-----------------------

   0:         0.00 cm**-1
   1:         0.00 cm**-1
   2:         0.00 cm**-1
   3:         0.00 cm**-1
   4:         0.00 cm**-1
   5:         0.00 cm**-1
   6:        42.52 cm**-1
   7:       101.29 cm**-1
   8:       144.47 cm**-1
   9:       226.52 cm**-1
  10:       244.00 cm**-1
  11:       348.70 cm**-1
  12:       374.09 cm**-1
  13:       503.13 cm**-1
  14:       560.23 cm**-1
  15:       618.49 cm**-1
  16:       737.85 cm**-1
  17:       797.35 cm**-1
  18:       800.75 cm**-1
  19:       885.00 cm**-1
  20:       934.87 cm**-1
  21:       981.83 cm**-1
  22:      1068.83 cm**-1
  23:      1146.21 cm**-1
  24:      1159.58 cm**-1
  25:      1194.86 cm**-1
  26:      1281.22 cm**-1
  27:      1336.28 cm**-1
  28:      1412.01 cm**-1
  29:      1432.28 cm**-1
  30:      1452.61 cm**-1
  31:      1475.60 cm**-1
  32:      1494.58 cm**-1
  33:      1499.31 cm**-1
  34:      1626.92 cm**-1
  35:      1778.34 cm**-1
  36:      2230.13 cm**-1
  37:      3088.99 cm**-1
  38:      3097.32 cm**-1
  39:      3110.09 cm**-1
  40:      3161.07 cm**-1
  41:      3192.12 cm**-1
  42:      3195.40 cm**-1
  43:      3443.92 cm**-1
  44:      3507.14 cm**-1

IR SPECTRUM
-----------

 Mode    freq (cm**-1)   T**2         TX         TY         TZ
-------------------------------------------------------------------
   6:        42.52    0.584457  ( -0.222754   0.718468   0.136534)
   7:       101.29    7.468294  ( -0.176231  -2.659661   0.602858)
   8:       144.47    9.897909  (  0.172107   1.208237   2.899733)
   9:       226.52    5.321615  ( -2.074752  -0.995553  -0.160913)
  10:       244.00    5.146342  ( -1.686529   1.450540  -0.444856)
  11:       348.70   61.263732  ( -7.278532  -0.920327   2.727580)
  12:       374.09    9.162554  (  2.574004   0.295299  -1.565202)
  13:       503.13    8.522414  ( -2.705009  -0.128001   1.090392)
  14:       560.23    3.590286  ( -0.657923   1.769788  -0.158984)
  15:       618.49   20.241594  ( -3.577885  -0.395136   2.698925)
  16:       737.85   33.883985  ( -0.452260   0.764273   5.752854)
  17:       797.35   23.847589  (  0.212629   4.683088  -1.367869)
  18:       800.75   32.346237  ( -4.246461   1.471006   3.485677)
  19:       885.00   10.805191  ( -2.252072   2.021781   1.282874)
  20:       934.87    6.149799  (  0.325372  -1.292505   2.091259)
  21:       981.83   22.042984  ( -3.846936  -2.685357   0.181453)
  22:      1068.83   14.551543  (  3.199132   1.999011  -0.566616)
  23:      1146.21    7.891953  ( -2.756336  -0.139498  -0.524504)
  24:      1159.58   64.981759  ( -7.604646  -0.643501   2.595579)
  25:      1194.86  103.963608  (  9.293951   1.167781  -4.027700)
  26:      1281.22    9.550389  (  3.018529  -0.147765  -0.645784)
  27:      1336.28   70.856889  (  7.784182   0.162396  -3.199535)
  28:      1412.01    6.901620  ( -1.436357   0.554719  -2.128564)
  29:      1432.28  138.566498  ( 10.681266   4.081149   2.796655)
  30:      1452.61   10.989887  ( -0.299872   1.349805   3.012970)
  31:      1475.60   20.618901  ( -2.544542  -1.955604   3.212448)
  32:      1494.58   35.164806  (  4.404951   2.279600   3.250329)
  33:      1499.31   33.099621  ( -5.471443   0.745091   1.614859)
  34:      1626.92   71.367490  ( -6.191793   3.686564  -4.408903)
  35:      1778.34  157.040662  ( -7.494078  -2.591686  -9.703742)
  36:      2230.13  225.111838  ( 14.737312   2.165342   1.798544)
  37:      3088.99   42.720652  (  4.019753   1.210092  -5.009782)
  38:      3097.32   74.827043  (  5.671675   1.734015  -6.297010)
  39:      3110.09  164.733347  (  8.188854   1.360329  -9.789051)
  40:      3161.07    5.269042  (  0.101805   2.081953  -0.961326)
  41:      3192.12    0.668056  (  0.041187   0.479577  -0.660580)
  42:      3195.40    1.452610  ( -0.502077   0.083156   1.092526)
  43:      3443.92   79.679104  (  8.732796   1.234445   1.376052)
  44:      3507.14   95.867634  (  7.300597  -6.033325  -2.483526)

--------------------------
THERMOCHEMISTRY AT 298.15K
--------------------------

Temperature         ... 298.15 K
Pressure            ... 1.00 atm
Total Mass          ... 98.12 AMU

Throughout the following assumptions are being made:
  (1) The electronic state is orbitally nondegenerate
  (2) There are no thermally accessible electronically excited states
  (3) Hindered rotations indicated by low frequency modes) are not
      treated as such but are treated as vibrations and this may
      case some error
  (4) All equations used are the standard statistical mechanics
      equations for an ideal gas
  (5) All vibrations are strinctly harmonic

------------
INNER ENERGY
------------

The inner energy is: U= E(el) + E(ZPE) + E(vib) + E(rot) + E(trans)
    E(el)   - is the total energy from the electronic structure calculation
              = E(kin-el) + E(nuc-el) + E(el-el) + E(nuc-nuc)
    E(ZPE)  - the the zero temperature vibrational energy from the frequency calculation
    E(vib)  - the the finite temperature correction to E(ZPE) due to population
              of excietd vibrational states
    E(rot)  - is the rotational thermal energy
    E(trans)- is the translational thermal energy

Summary of contributions to the inner energy U:
Electronic energy                ...   -324.73481613 Eh
Zero point energy                ...      0.12686180 Eh      79.61 kcal/mol
Thermal vibrational correction   ...      0.00505129 Eh       3.17 kcal/mol
Thermal rotational correction    ...      0.00141627 Eh       0.89 kcal/mol
Thermal translational correction ...      0.00141627 Eh       0.89 kcal/mol
-----------------------------------------------------------------------
Total thermal energy                   -324.60007049 Eh

Summary of corrections to the electronic energy:
(perhaps to be used in another calculation)
Total thermal correction                  0.00788383 Eh       4.95 kcal/mol
Non-thermal (ZPE) correction              0.12686180 Eh      79.61 kcal/mol
-----------------------------------------------------------------------
Total correction                          0.13474563 Eh      84.55 kcal/mol

--------
ENTHALPY
--------

The enthalpy is H = U + kB*T
                kB is Boltzmann's constant
Total free energy                 ...   -324.60007049 Eh
Thermal Enthalpy correction       ...      0.00094421 Eh       0.59 kcal/mol
-----------------------------------------------------------------------
Total Enthalpy                    ...   -324.59912628 Eh

-------
ENTROPY
-------

The entropy contributions are T*S = T*(S(el)+S(vib)+S(rot)+S(trans)
     S(el)   - electronic entropy
     S(vib)  - vibrational entropy
     S(rot)  - rotational entropy
     S(trans)- translational entropy
The entropies will be listed as mutliplied by the temperature to get
units of energy

Electronic entropy                ...      0.00000000 Eh      0.00 kcal/mol
Vibrational entropy               ...      0.00961256 Eh      6.03 kcal/mol
Rotational entropy                ...      0.01211693 Eh      7.60 kcal/mol
Translational entropy             ...      0.01884443 Eh     11.83 kcal/mol
-----------------------------------------------------------------------
Final entropy term                ...      0.04057393 Eh     25.46 kcal/mol

CAUTION: The rotational entropy is not quite correctly treated here
         because it includes a symmetry number that is not yet correctly
         implemented in ORCA!
For a nonlinear molecule the correct rotational entropy is:
    S(rot) = R*(ln(qrot/sn)+1.5)
    R    = 8.31441 J/mol/K = 1.987191683e-3 kcal/mol/K
    qrot = 250668.8021755
    sn is the rotational symmetry number. We have assumed 3 here
       if it is different for your molecule then you should correct
       the printed rotational entropy by manually evaluating the equation
       as given above

For convenience we print out the resulting values for sn=1 - 12:
 sn= 1  qrot/sn=  250668.8022 T*S(rot)=     8.25 kcal/mol T*S(tot)=    26.11 kcal/mol
 sn= 2  qrot/sn=  125334.4011 T*S(rot)=     7.84 kcal/mol T*S(tot)=    25.70 kcal/mol
 sn= 3  qrot/sn=   83556.2674 T*S(rot)=     7.60 kcal/mol T*S(tot)=    25.46 kcal/mol
 sn= 4  qrot/sn=   62667.2005 T*S(rot)=     7.43 kcal/mol T*S(tot)=    25.29 kcal/mol
 sn= 5  qrot/sn=   50133.7604 T*S(rot)=     7.30 kcal/mol T*S(tot)=    25.16 kcal/mol
 sn= 6  qrot/sn=   41778.1337 T*S(rot)=     7.19 kcal/mol T*S(tot)=    25.05 kcal/mol
 sn= 7  qrot/sn=   35809.8289 T*S(rot)=     7.10 kcal/mol T*S(tot)=    24.96 kcal/mol
 sn= 8  qrot/sn=   31333.6003 T*S(rot)=     7.02 kcal/mol T*S(tot)=    24.88 kcal/mol
 sn= 9  qrot/sn=   27852.0891 T*S(rot)=     6.95 kcal/mol T*S(tot)=    24.81 kcal/mol
 sn=10  qrot/sn=   25066.8802 T*S(rot)=     6.89 kcal/mol T*S(tot)=    24.75 kcal/mol
 sn=11  qrot/sn=   22788.0729 T*S(rot)=     6.83 kcal/mol T*S(tot)=    24.69 kcal/mol
 sn=12  qrot/sn=   20889.0668 T*S(rot)=     6.78 kcal/mol T*S(tot)=    24.64 kcal/mol

-------------------
GIBBS FREE ENTHALPY
-------------------

The Gibbs free enthalpy is G = H - T*S

Total enthalpy                    ...   -324.59912628 Eh
Total entropy correction          ...     -0.04057393 Eh    -25.46 kcal/mol
-----------------------------------------------------------------------
Final Gibbs free enthalpy         ...   -324.63970022 Eh

For completeness - the Gibbs free enthalpy minus the electronic energy
G-E(el)                           ...      0.09511591 Eh     59.69 kcal/mol

                             ****ORCA TERMINATED NORMALLY****
TOTAL RUN TIME: 0 days 0 hours 38 minutes 4 seconds 986 msec
