                         Program Version 3.0.3 - RELEASE   -
|  1> ! NORI PBE0 def2-TZVP UseSym TightOPT Freq TightSCF Grid3 FinalGrid5 XYZFile
|  2> % pal
|  3>     nprocs 8
|  4> end
|  5> %method
|  6>     SymThresh 5.0e-2
|  7> end
|  8> % geom
|  9>     MaxIter 10
| 10> end
| 11> % maxcore 2000
| 12> % output
| 13>     printlevel mini
| 14>     print[ P_Basis ] 0
| 15>     print[ P_SCFInfo ] 1
| 16>     print[ P_SCFIterInfo ] 1
| 17>     print[ P_OrbEn ] 0
| 18>     print[ P_Cartesian ] 0
| 19> end
| 20> % elprop
| 21>     Dipole false
| 22> end
| 23> *xyz 1 1
| 24>  C        1.3692553715     1.0317590850     1.2057562478
| 25>  N        2.7003256859     0.5560241481     0.7592940698
| 26>  C        3.2424758788     1.2212766500    -0.4595465958
| 27>  C        4.6215958438     0.6288629000    -0.7240051934
| 28>  O        5.3071525807     0.8184171615     0.4924107669
| 29>  C        4.5074827751    -0.8099513740    -1.1460690347
| 30>  C        4.8549354920    -1.8478515616    -0.3959951528
| 31>  H        1.0776747379     0.4851115765     2.1007238701
| 32>  H        0.6467693136     0.8567818875     0.4104594377
| 33>  H        1.4314377887     2.0959422895     1.4241113624
| 34>  H        3.4082657628     0.6880882860     1.4899107914
| 35>  H        2.6879069834    -0.4540539543     0.5776596823
| 36>  H        2.5517214773     1.0502933159    -1.2849426649
| 37>  H        3.3092142114     2.2882039285    -0.2456942783
| 38>  H        5.0753093048     1.2137684090    -1.5347940795
| 39>  H        6.2279266744     0.5532943795     0.4037982070
| 40>  H        4.1078256498    -0.9681939844    -2.1451157826
| 41>  H        5.2856214942    -1.7247318683     0.5923408728
| 42>  H        4.7483629742    -2.8614712745    -0.7627725262
| 43> *
| 44>
| 45>                          ****END OF INPUT****
 Total Charge           Charge          ....    1
 Multiplicity           Mult            ....    1
 Number of Electrons    NEL             ....   56
FINAL SINGLE POINT ENERGY      -327.209602194485
FINAL SINGLE POINT ENERGY      -327.209603978128

CARTESIAN COORDINATES (ANGSTROEM)
---------------------------------
  C      2.286676   -0.344713   -1.585298
  N      1.171572    0.001098   -0.672353
  C      0.268326   -1.127575   -0.308416
  C     -0.772214   -0.582137    0.662289
  O     -0.002262   -0.002541    1.689608
  C     -1.690822    0.382517   -0.034910
  C     -1.687725    1.696579    0.148622
  H      2.880413    0.547598   -1.775495
  H      1.874751   -0.724020   -2.518363
  H      2.903066   -1.107747   -1.114023
  H      1.520042    0.380141    0.214845
  H      0.587475    0.745299   -1.070587
  H     -0.180239   -1.521235   -1.220034
  H      0.880773   -1.894782    0.165337
  H     -1.351475   -1.438662    1.030711
  H     -0.569453    0.294985    2.407751
  H     -2.393067   -0.069827   -0.731755
  H     -1.022065    2.176742    0.858614
  H     -2.379511    2.336186   -0.385537

FINAL SINGLE POINT ENERGY      -327.209604444233
                    ***********************HURRAY********************
 Multiplicity           Mult            ....    1
 Number of Electrons    NEL             ....   56
 Basis Dimension        Dim             ....  289
FINAL SINGLE POINT ENERGY      -327.209604580853

VIBRATIONAL FREQUENCIES
-----------------------

   0:         0.00 cm**-1
   1:         0.00 cm**-1
   2:         0.00 cm**-1
   3:         0.00 cm**-1
   4:         0.00 cm**-1
   5:         0.00 cm**-1
   6:        68.64 cm**-1
   7:       110.78 cm**-1
   8:       145.76 cm**-1
   9:       225.24 cm**-1
  10:       236.79 cm**-1
  11:       279.20 cm**-1
  12:       303.09 cm**-1
  13:       341.58 cm**-1
  14:       383.23 cm**-1
  15:       543.77 cm**-1
  16:       617.93 cm**-1
  17:       756.08 cm**-1
  18:       812.87 cm**-1
  19:       848.79 cm**-1
  20:       929.45 cm**-1
  21:       971.34 cm**-1
  22:      1011.06 cm**-1
  23:      1015.43 cm**-1
  24:      1025.58 cm**-1
  25:      1048.04 cm**-1
  26:      1061.71 cm**-1
  27:      1110.17 cm**-1
  28:      1152.61 cm**-1
  29:      1193.02 cm**-1
  30:      1245.49 cm**-1
  31:      1300.71 cm**-1
  32:      1316.61 cm**-1
  33:      1356.91 cm**-1
  34:      1366.72 cm**-1
  35:      1386.61 cm**-1
  36:      1412.23 cm**-1
  37:      1432.75 cm**-1
  38:      1445.30 cm**-1
  39:      1461.38 cm**-1
  40:      1486.91 cm**-1
  41:      1494.33 cm**-1
  42:      1498.47 cm**-1
  43:      1664.36 cm**-1
  44:      1715.30 cm**-1
  45:      3040.62 cm**-1
  46:      3092.23 cm**-1
  47:      3108.82 cm**-1
  48:      3160.90 cm**-1
  49:      3168.77 cm**-1
  50:      3174.28 cm**-1
  51:      3191.39 cm**-1
  52:      3193.47 cm**-1
  53:      3255.75 cm**-1
  54:      3386.12 cm**-1
  55:      3428.99 cm**-1
  56:      3853.19 cm**-1

IR SPECTRUM
-----------

 Mode    freq (cm**-1)   T**2         TX         TY         TZ
-------------------------------------------------------------------
   6:        68.64    0.445971  ( -0.355314   0.138089   0.548319)
   7:       110.78    7.050459  ( -2.235892   1.276315  -0.649820)
   8:       145.76    5.967618  (  0.220226  -0.536872   2.372949)
   9:       225.24   20.708640  (  2.637545   1.078508  -3.548073)
  10:       236.79    6.011860  (  1.003158  -0.964111   2.018916)
  11:       279.20    2.028802  (  0.688127   0.316917  -1.206170)
  12:       303.09   86.883021  (  1.114162  -7.316487   5.666628)
  13:       341.58   40.948443  (  1.791004  -5.547235   2.639873)
  14:       383.23   11.200741  (  0.920021   0.051301  -3.217401)
  15:       543.77   12.352409  (  2.460385   2.506902  -0.119815)
  16:       617.93    8.342965  ( -2.757868   0.750545   0.416905)
  17:       756.08   15.692012  ( -0.193671   0.052034   3.956235)
  18:       812.87    5.384833  ( -1.714374   1.258382  -0.928564)
  19:       848.79   10.930786  (  0.147650   1.334625  -3.021219)
  20:       929.45   15.942586  (  2.696990   2.201328   1.955246)
  21:       971.34    1.284840  (  0.577180   0.960795   0.169044)
  22:      1011.06   42.248898  ( -4.180287  -0.620574   4.938520)
  23:      1015.43   10.062983  (  1.107636   2.312539   1.867696)
  24:      1025.58   20.828040  ( -3.516489   0.065432  -2.908276)
  25:      1048.04   21.280905  ( -3.048381  -0.149948   3.459161)
  26:      1061.71    5.180184  (  2.113106   0.273780  -0.800007)
  27:      1110.17   31.613128  (  1.344416   2.271016   4.964691)
  28:      1152.61   22.401481  (  2.217425   0.322901  -4.168962)
  29:      1193.02    7.459778  ( -0.218390  -1.024627  -2.522345)
  30:      1245.49   40.168139  (  4.101461   0.956384   4.736189)
  31:      1300.71    2.552433  ( -0.410343  -0.135182  -1.538108)
  32:      1316.61    2.272537  (  1.370136  -0.318640   0.541971)
  33:      1356.91   21.442522  (  4.574486   0.442722   0.566212)
  34:      1366.72   18.130304  (  2.440106   0.358191  -3.471007)
  35:      1386.61   27.314101  ( -4.974954  -0.739683  -1.420142)
  36:      1412.23   12.633844  ( -1.875757  -1.899509   2.346752)
  37:      1432.75   78.689269  (  7.735769   1.026474  -4.218235)
  38:      1445.30   15.803335  (  1.145163  -3.803306  -0.163711)
  39:      1461.38    1.934667  (  1.157939  -0.207905  -0.742039)
  40:      1486.91   30.040405  (  4.331422  -1.019780  -3.199881)
  41:      1494.33   22.039531  ( -2.887254   0.820689  -3.609676)
  42:      1498.47   28.481643  ( -2.278855  -4.814821   0.325512)
  43:      1664.36   36.848357  ( -2.255519   5.057857   2.485775)
  44:      1715.30    2.413649  ( -0.993505  -1.194355  -0.010623)
  45:      3040.62    7.165764  (  1.365530   2.235259   0.552007)
  46:      3092.23    0.558319  (  0.493440  -0.201595  -0.523636)
  47:      3108.82    1.160845  ( -0.374396   0.836350   0.566738)
  48:      3160.90    1.160773  ( -0.717443  -0.211581  -0.775424)
  49:      3168.77    0.265402  (  0.005478   0.511257   0.063151)
  50:      3174.28    0.461659  ( -0.613181   0.266577  -0.120851)
  51:      3191.39    0.073413  ( -0.108136   0.247870   0.016751)
  52:      3193.47    0.026535  ( -0.064209  -0.061065  -0.136688)
  53:      3255.75    0.251611  (  0.015047  -0.497162  -0.064917)
  54:      3386.12   86.033998  (  5.745787  -6.518107  -3.245645)
  55:      3428.99   89.677269  (  5.052989  -0.031609   8.008968)
  56:      3853.19   99.491866  (  3.300339  -2.554563  -9.059461)

--------------------------
THERMOCHEMISTRY AT 298.15K
--------------------------

Temperature         ... 298.15 K
Pressure            ... 1.00 atm
Total Mass          ... 102.16 AMU

Throughout the following assumptions are being made:
  (1) The electronic state is orbitally nondegenerate
  (2) There are no thermally accessible electronically excited states
  (3) Hindered rotations indicated by low frequency modes) are not
      treated as such but are treated as vibrations and this may
      case some error
  (4) All equations used are the standard statistical mechanics
      equations for an ideal gas
  (5) All vibrations are strinctly harmonic

------------
INNER ENERGY
------------

The inner energy is: U= E(el) + E(ZPE) + E(vib) + E(rot) + E(trans)
    E(el)   - is the total energy from the electronic structure calculation
              = E(kin-el) + E(nuc-el) + E(el-el) + E(nuc-nuc)
    E(ZPE)  - the the zero temperature vibrational energy from the frequency calculation
    E(vib)  - the the finite temperature correction to E(ZPE) due to population
              of excietd vibrational states
    E(rot)  - is the rotational thermal energy
    E(trans)- is the translational thermal energy

Summary of contributions to the inner energy U:
Electronic energy                ...   -327.20960458 Eh
Zero point energy                ...      0.17503333 Eh     109.83 kcal/mol
Thermal vibrational correction   ...      0.00574511 Eh       3.61 kcal/mol
Thermal rotational correction    ...      0.00141627 Eh       0.89 kcal/mol
Thermal translational correction ...      0.00141627 Eh       0.89 kcal/mol
-----------------------------------------------------------------------
Total thermal energy                   -327.02599360 Eh

Summary of corrections to the electronic energy:
(perhaps to be used in another calculation)
Total thermal correction                  0.00857765 Eh       5.38 kcal/mol
Non-thermal (ZPE) correction              0.17503333 Eh     109.83 kcal/mol
-----------------------------------------------------------------------
Total correction                          0.18361098 Eh     115.22 kcal/mol

--------
ENTHALPY
--------

The enthalpy is H = U + kB*T
                kB is Boltzmann's constant
Total free energy                 ...   -327.02599360 Eh
Thermal Enthalpy correction       ...      0.00094421 Eh       0.59 kcal/mol
-----------------------------------------------------------------------
Total Enthalpy                    ...   -327.02504939 Eh

-------
ENTROPY
-------

The entropy contributions are T*S = T*(S(el)+S(vib)+S(rot)+S(trans)
     S(el)   - electronic entropy
     S(vib)  - vibrational entropy
     S(rot)  - rotational entropy
     S(trans)- translational entropy
The entropies will be listed as mutliplied by the temperature to get
units of energy

Electronic entropy                ...      0.00000000 Eh      0.00 kcal/mol
Vibrational entropy               ...      0.01032402 Eh      6.48 kcal/mol
Rotational entropy                ...      0.01220792 Eh      7.66 kcal/mol
Translational entropy             ...      0.01890147 Eh     11.86 kcal/mol
-----------------------------------------------------------------------
Final entropy term                ...      0.04143341 Eh     26.00 kcal/mol

CAUTION: The rotational entropy is not quite correctly treated here
         because it includes a symmetry number that is not yet correctly
         implemented in ORCA!
For a nonlinear molecule the correct rotational entropy is:
    S(rot) = R*(ln(qrot/sn)+1.5)
    R    = 8.31441 J/mol/K = 1.987191683e-3 kcal/mol/K
    qrot = 276025.7886760
    sn is the rotational symmetry number. We have assumed 3 here
       if it is different for your molecule then you should correct
       the printed rotational entropy by manually evaluating the equation
       as given above

For convenience we print out the resulting values for sn=1 - 12:
 sn= 1  qrot/sn=  276025.7887 T*S(rot)=     8.31 kcal/mol T*S(tot)=    26.65 kcal/mol
 sn= 2  qrot/sn=  138012.8943 T*S(rot)=     7.90 kcal/mol T*S(tot)=    26.24 kcal/mol
 sn= 3  qrot/sn=   92008.5962 T*S(rot)=     7.66 kcal/mol T*S(tot)=    26.00 kcal/mol
 sn= 4  qrot/sn=   69006.4472 T*S(rot)=     7.49 kcal/mol T*S(tot)=    25.83 kcal/mol
 sn= 5  qrot/sn=   55205.1577 T*S(rot)=     7.36 kcal/mol T*S(tot)=    25.70 kcal/mol
 sn= 6  qrot/sn=   46004.2981 T*S(rot)=     7.25 kcal/mol T*S(tot)=    25.59 kcal/mol
 sn= 7  qrot/sn=   39432.2555 T*S(rot)=     7.16 kcal/mol T*S(tot)=    25.50 kcal/mol
 sn= 8  qrot/sn=   34503.2236 T*S(rot)=     7.08 kcal/mol T*S(tot)=    25.42 kcal/mol
 sn= 9  qrot/sn=   30669.5321 T*S(rot)=     7.01 kcal/mol T*S(tot)=    25.35 kcal/mol
 sn=10  qrot/sn=   27602.5789 T*S(rot)=     6.95 kcal/mol T*S(tot)=    25.29 kcal/mol
 sn=11  qrot/sn=   25093.2535 T*S(rot)=     6.89 kcal/mol T*S(tot)=    25.23 kcal/mol
 sn=12  qrot/sn=   23002.1491 T*S(rot)=     6.84 kcal/mol T*S(tot)=    25.18 kcal/mol

-------------------
GIBBS FREE ENTHALPY
-------------------

The Gibbs free enthalpy is G = H - T*S

Total enthalpy                    ...   -327.02504939 Eh
Total entropy correction          ...     -0.04143341 Eh    -26.00 kcal/mol
-----------------------------------------------------------------------
Final Gibbs free enthalpy         ...   -327.06648279 Eh

For completeness - the Gibbs free enthalpy minus the electronic energy
G-E(el)                           ...      0.14312179 Eh     89.81 kcal/mol

                             ****ORCA TERMINATED NORMALLY****
TOTAL RUN TIME: 0 days 0 hours 52 minutes 16 seconds 877 msec
