                         Program Version 3.0.3 - RELEASE   -
|  1> ! NORI PBE0 def2-TZVP UseSym TightOPT Freq TightSCF Grid3 FinalGrid5 XYZFile
|  2> % pal
|  3>     nprocs 8
|  4> end
|  5> %method
|  6>     SymThresh 5.0e-2
|  7> end
|  8> % geom
|  9>     MaxIter 10
| 10> end
| 11> % maxcore 2000
| 12> % output
| 13>     printlevel mini
| 14>     print[ P_Basis ] 0
| 15>     print[ P_SCFInfo ] 1
| 16>     print[ P_SCFIterInfo ] 1
| 17>     print[ P_OrbEn ] 0
| 18>     print[ P_Cartesian ] 0
| 19> end
| 20> % elprop
| 21>     Dipole false
| 22> end
| 23> *xyz 1 1
| 24>  C        1.1696957976     0.0329818587     0.2239555164
| 25>  N        2.6455623650     0.1503495632     0.1363545289
| 26>  C        3.1629670833     0.7646869676    -1.1185895563
| 27>  C        4.6696807638     0.9156661487    -0.9631180375
| 28>  O        4.8173922784     1.7078721484     0.1975729302
| 29>  C        5.3043469632    -0.3945771378    -0.8325083233
| 30>  C        5.7997832557    -1.4789721470    -0.6951831563
| 31>  H        0.9064203345    -0.4272108906     1.1747005347
| 32>  H        0.8147454355    -0.5833707433    -0.5998738474
| 33>  H        0.7335985264     1.0279061446     0.1601792535
| 34>  H        3.0193487265     0.7208802199     0.9037972802
| 35>  H        3.0886871953    -0.7689303043     0.2368686509
| 36>  H        2.8983096861     0.1250795714    -1.9590176160
| 37>  H        2.6948123272     1.7431428512    -1.2245801454
| 38>  H        5.0538750613     1.4281652221    -1.8536020193
| 39>  H        5.7484536307     1.7936835086     0.4280860548
| 40>  H        6.2702805695    -2.4316929814    -0.5897820481
| 41> *
| 42>
| 43>                          ****END OF INPUT****
 Total Charge           Charge          ....    1
 Multiplicity           Mult            ....    1
 Number of Electrons    NEL             ....   54
FINAL SINGLE POINT ENERGY      -325.952097568703

CARTESIAN COORDINATES (ANGSTROEM)
---------------------------------
  C      2.336290   -0.437036   -1.437700
  N      1.197846    0.000416   -0.593601
  C      0.214889   -1.064621   -0.247596
  C     -0.791834   -0.457606    0.719437
  O      0.000279   -0.000452    1.796773
  C     -1.536021    0.621727    0.072724
  C     -2.111802    1.524831   -0.468658
  H      2.985053    0.416128   -1.627504
  H      1.949889   -0.828337   -2.376788
  H      2.887438   -1.212387   -0.909258
  H      1.524092    0.383643    0.301397
  H      0.682410    0.762518   -1.046764
  H     -0.256415   -1.419852   -1.162641
  H      0.761749   -1.873997    0.236175
  H     -1.482380   -1.249974    1.033335
  H     -0.543024    0.476506    2.433046
  H     -2.653563    2.320710   -0.930632

FINAL SINGLE POINT ENERGY      -325.952098125564
                    ***********************HURRAY********************
 Multiplicity           Mult            ....    1
 Number of Electrons    NEL             ....   54
 Basis Dimension        Dim             ....  277
FINAL SINGLE POINT ENERGY      -325.952098375561

VIBRATIONAL FREQUENCIES
-----------------------

   0:         0.00 cm**-1
   1:         0.00 cm**-1
   2:         0.00 cm**-1
   3:         0.00 cm**-1
   4:         0.00 cm**-1
   5:         0.00 cm**-1
   6:        65.80 cm**-1
   7:       116.14 cm**-1
   8:       164.56 cm**-1
   9:       196.64 cm**-1
  10:       238.32 cm**-1
  11:       278.41 cm**-1
  12:       338.70 cm**-1
  13:       361.62 cm**-1
  14:       435.54 cm**-1
  15:       566.89 cm**-1
  16:       695.31 cm**-1
  17:       738.05 cm**-1
  18:       751.59 cm**-1
  19:       819.55 cm**-1
  20:       849.36 cm**-1
  21:       932.94 cm**-1
  22:       972.67 cm**-1
  23:      1029.07 cm**-1
  24:      1059.36 cm**-1
  25:      1083.41 cm**-1
  26:      1155.76 cm**-1
  27:      1174.70 cm**-1
  28:      1248.21 cm**-1
  29:      1304.16 cm**-1
  30:      1339.15 cm**-1
  31:      1370.16 cm**-1
  32:      1395.25 cm**-1
  33:      1402.97 cm**-1
  34:      1434.41 cm**-1
  35:      1460.77 cm**-1
  36:      1485.14 cm**-1
  37:      1494.33 cm**-1
  38:      1497.83 cm**-1
  39:      1663.54 cm**-1
  40:      2236.64 cm**-1
  41:      3052.25 cm**-1
  42:      3092.71 cm**-1
  43:      3112.84 cm**-1
  44:      3181.88 cm**-1
  45:      3192.76 cm**-1
  46:      3194.37 cm**-1
  47:      3389.22 cm**-1
  48:      3429.36 cm**-1
  49:      3452.11 cm**-1
  50:      3845.72 cm**-1

IR SPECTRUM
-----------

 Mode    freq (cm**-1)   T**2         TX         TY         TZ
-------------------------------------------------------------------
   6:        65.80    0.170922  (  0.379932  -0.161076  -0.025073)
   7:       116.14    5.838027  ( -1.803213   1.006232  -1.254571)
   8:       164.56    6.655690  (  1.740075   0.365665  -1.869256)
   9:       196.64    4.669986  ( -0.664351   0.740361   1.918460)
  10:       238.32    7.388956  (  0.193911   0.631862  -2.636684)
  11:       278.41    9.311299  (  2.930533  -0.716503   0.458144)
  12:       338.70  121.772666  ( -1.635251  -7.846576   7.584844)
  13:       361.62   23.246294  (  2.085563  -4.343212  -0.182291)
  14:       435.54   16.884844  (  3.182975   2.476913  -0.786394)
  15:       566.89   21.339068  (  0.678060   4.065531   2.085848)
  16:       695.31   11.151951  (  0.638519   0.991399   3.124320)
  17:       738.05   39.352509  (  4.958493   2.887619  -2.535254)
  18:       751.59   32.614195  (  0.358488   2.892420   4.911170)
  19:       819.55    5.886919  ( -1.723293   0.078850  -1.706154)
  20:       849.36   12.349700  ( -0.559844  -2.670098   2.215141)
  21:       932.94   18.925235  (  3.135982   1.017639   2.838179)
  22:       972.67    2.236189  (  1.345114   0.541229  -0.365961)
  23:      1029.07   17.096320  ( -0.161241  -3.024990  -2.814206)
  24:      1059.36    9.677725  (  0.231004   0.257837  -3.091583)
  25:      1083.41   65.933831  ( -4.209935  -2.326800  -6.541887)
  26:      1155.76   21.369741  ( -2.886001  -0.516334   3.574093)
  27:      1174.70    9.906035  (  1.188140  -0.072215   2.913613)
  28:      1248.21   43.324577  (  4.433273  -0.175070   4.862100)
  29:      1304.16    2.638620  (  1.086937   0.024554   1.206891)
  30:      1339.15   13.079383  (  3.247392  -1.223745   1.017978)
  31:      1370.16   26.577370  (  3.490092   1.315564  -3.558921)
  32:      1395.25   52.707171  (  7.073789  -0.164352   1.625321)
  33:      1402.97   16.698376  ( -1.786027   1.616022  -3.301054)
  34:      1434.41   69.752945  (  7.451728   0.960219  -3.647283)
  35:      1460.77    1.262926  ( -0.988023  -0.275664   0.459071)
  36:      1485.14   31.211401  ( -4.330288   1.594236   3.149351)
  37:      1494.33   22.724428  ( -3.047644   0.496272  -3.631805)
  38:      1497.83   29.815512  (  2.663968   4.710741  -0.726430)
  39:      1663.54   44.692610  (  1.626350  -6.105471  -2.184220)
  40:      2236.64   18.159594  ( -2.855645   2.670383  -1.695270)
  41:      3052.25    3.578027  ( -0.637442  -1.347147  -1.164857)
  42:      3092.71    0.334669  ( -0.326970   0.265424   0.396624)
  43:      3112.84    0.211629  ( -0.266853   0.262247   0.267666)
  44:      3181.88    0.126077  (  0.122768  -0.219527  -0.250625)
  45:      3192.76    0.130580  ( -0.057909   0.355139  -0.033210)
  46:      3194.37    0.022907  (  0.081161  -0.116687  -0.052001)
  47:      3389.22   78.397619  ( -2.552919   6.313020   5.659152)
  48:      3429.36   86.156981  (  5.143640  -2.241197   7.394389)
  49:      3452.11   98.675477  ( -5.460650   7.256528  -4.024871)
  50:      3845.72  116.133745  ( -3.202284   4.400072   9.301532)

--------------------------
THERMOCHEMISTRY AT 298.15K
--------------------------

Temperature         ... 298.15 K
Pressure            ... 1.00 atm
Total Mass          ... 100.14 AMU

Throughout the following assumptions are being made:
  (1) The electronic state is orbitally nondegenerate
  (2) There are no thermally accessible electronically excited states
  (3) Hindered rotations indicated by low frequency modes) are not
      treated as such but are treated as vibrations and this may
      case some error
  (4) All equations used are the standard statistical mechanics
      equations for an ideal gas
  (5) All vibrations are strinctly harmonic

------------
INNER ENERGY
------------

The inner energy is: U= E(el) + E(ZPE) + E(vib) + E(rot) + E(trans)
    E(el)   - is the total energy from the electronic structure calculation
              = E(kin-el) + E(nuc-el) + E(el-el) + E(nuc-nuc)
    E(ZPE)  - the the zero temperature vibrational energy from the frequency calculation
    E(vib)  - the the finite temperature correction to E(ZPE) due to population
              of excietd vibrational states
    E(rot)  - is the rotational thermal energy
    E(trans)- is the translational thermal energy

Summary of contributions to the inner energy U:
Electronic energy                ...   -325.95209838 Eh
Zero point energy                ...      0.15104286 Eh      94.78 kcal/mol
Thermal vibrational correction   ...      0.00556849 Eh       3.49 kcal/mol
Thermal rotational correction    ...      0.00141627 Eh       0.89 kcal/mol
Thermal translational correction ...      0.00141627 Eh       0.89 kcal/mol
-----------------------------------------------------------------------
Total thermal energy                   -325.79265448 Eh

Summary of corrections to the electronic energy:
(perhaps to be used in another calculation)
Total thermal correction                  0.00840104 Eh       5.27 kcal/mol
Non-thermal (ZPE) correction              0.15104286 Eh      94.78 kcal/mol
-----------------------------------------------------------------------
Total correction                          0.15944389 Eh     100.05 kcal/mol

--------
ENTHALPY
--------

The enthalpy is H = U + kB*T
                kB is Boltzmann's constant
Total free energy                 ...   -325.79265448 Eh
Thermal Enthalpy correction       ...      0.00094421 Eh       0.59 kcal/mol
-----------------------------------------------------------------------
Total Enthalpy                    ...   -325.79171027 Eh

-------
ENTROPY
-------

The entropy contributions are T*S = T*(S(el)+S(vib)+S(rot)+S(trans)
     S(el)   - electronic entropy
     S(vib)  - vibrational entropy
     S(rot)  - rotational entropy
     S(trans)- translational entropy
The entropies will be listed as mutliplied by the temperature to get
units of energy

Electronic entropy                ...      0.00000000 Eh      0.00 kcal/mol
Vibrational entropy               ...      0.01002103 Eh      6.29 kcal/mol
Rotational entropy                ...      0.01221709 Eh      7.67 kcal/mol
Translational entropy             ...      0.01887324 Eh     11.84 kcal/mol
-----------------------------------------------------------------------
Final entropy term                ...      0.04111135 Eh     25.80 kcal/mol

CAUTION: The rotational entropy is not quite correctly treated here
         because it includes a symmetry number that is not yet correctly
         implemented in ORCA!
For a nonlinear molecule the correct rotational entropy is:
    S(rot) = R*(ln(qrot/sn)+1.5)
    R    = 8.31441 J/mol/K = 1.987191683e-3 kcal/mol/K
    qrot = 278719.8681069
    sn is the rotational symmetry number. We have assumed 3 here
       if it is different for your molecule then you should correct
       the printed rotational entropy by manually evaluating the equation
       as given above

For convenience we print out the resulting values for sn=1 - 12:
 sn= 1  qrot/sn=  278719.8681 T*S(rot)=     8.32 kcal/mol T*S(tot)=    26.45 kcal/mol
 sn= 2  qrot/sn=  139359.9341 T*S(rot)=     7.91 kcal/mol T*S(tot)=    26.04 kcal/mol
 sn= 3  qrot/sn=   92906.6227 T*S(rot)=     7.67 kcal/mol T*S(tot)=    25.80 kcal/mol
 sn= 4  qrot/sn=   69679.9670 T*S(rot)=     7.50 kcal/mol T*S(tot)=    25.63 kcal/mol
 sn= 5  qrot/sn=   55743.9736 T*S(rot)=     7.36 kcal/mol T*S(tot)=    25.50 kcal/mol
 sn= 6  qrot/sn=   46453.3114 T*S(rot)=     7.26 kcal/mol T*S(tot)=    25.39 kcal/mol
 sn= 7  qrot/sn=   39817.1240 T*S(rot)=     7.16 kcal/mol T*S(tot)=    25.30 kcal/mol
 sn= 8  qrot/sn=   34839.9835 T*S(rot)=     7.09 kcal/mol T*S(tot)=    25.22 kcal/mol
 sn= 9  qrot/sn=   30968.8742 T*S(rot)=     7.02 kcal/mol T*S(tot)=    25.15 kcal/mol
 sn=10  qrot/sn=   27871.9868 T*S(rot)=     6.95 kcal/mol T*S(tot)=    25.08 kcal/mol
 sn=11  qrot/sn=   25338.1698 T*S(rot)=     6.90 kcal/mol T*S(tot)=    25.03 kcal/mol
 sn=12  qrot/sn=   23226.6557 T*S(rot)=     6.84 kcal/mol T*S(tot)=    24.98 kcal/mol

-------------------
GIBBS FREE ENTHALPY
-------------------

The Gibbs free enthalpy is G = H - T*S

Total enthalpy                    ...   -325.79171027 Eh
Total entropy correction          ...     -0.04111135 Eh    -25.80 kcal/mol
-----------------------------------------------------------------------
Final Gibbs free enthalpy         ...   -325.83282163 Eh

For completeness - the Gibbs free enthalpy minus the electronic energy
G-E(el)                           ...      0.11927675 Eh     74.85 kcal/mol

                             ****ORCA TERMINATED NORMALLY****
TOTAL RUN TIME: 0 days 0 hours 42 minutes 54 seconds 850 msec
