                         Program Version 3.0.3 - RELEASE   -
|  1> ! NORI PBE0 def2-TZVP UseSym TightOPT Freq TightSCF Grid3 FinalGrid5 XYZFile
|  2> % pal
|  3>     nprocs 8
|  4> end
|  5> %method
|  6>     SymThresh 5.0e-2
|  7> end
|  8> % geom
|  9>     MaxIter 10
| 10> end
| 11> % maxcore 2000
| 12> % output
| 13>     printlevel mini
| 14>     print[ P_Basis ] 0
| 15>     print[ P_SCFInfo ] 1
| 16>     print[ P_SCFIterInfo ] 1
| 17>     print[ P_OrbEn ] 0
| 18>     print[ P_Cartesian ] 0
| 19> end
| 20> % elprop
| 21>     Dipole false
| 22> end
| 23> *xyz 1 1
| 24>  C        2.3677910344    -1.8636033393     1.6449605886
| 25>  N        3.0203344709    -0.6720544925     1.0453532444
| 26>  C        2.8778918090    -0.5514350776    -0.4384363769
| 27>  C        3.8224619855     0.5196505458    -0.9292826202
| 28>  O        5.0732435910     0.1925319422    -0.3806421361
| 29>  C        6.1334680339     0.9979297147    -0.7106196509
| 30>  C        6.1019826953     2.0608255944    -1.4953624059
| 31>  H        2.5290939682    -1.8532790258     2.7217283799
| 32>  H        2.8105741139    -2.7574851973     1.2106532047
| 33>  H        1.3020776801    -1.8311560820     1.4252915905
| 34>  H        2.6625991181     0.1763624265     1.4885928362
| 35>  H        4.0326578953    -0.6770440691     1.2224695208
| 36>  H        3.1436220454    -1.5239874321    -0.8543179115
| 37>  H        1.8374482347    -0.3285867595    -0.6741053483
| 38>  H        3.8438329489     0.5087925934    -2.0243800606
| 39>  H        3.5055312819     1.5208701098    -0.6066547235
| 40>  H        7.0331411624     0.6343440292    -0.2313249822
| 41>  H        5.2113041650     2.4308016857    -1.9854617328
| 42>  H        7.0227937659     2.5993028335    -1.6705014161
| 43> *
| 44>
| 45>                          ****END OF INPUT****
 Total Charge           Charge          ....    1
 Multiplicity           Mult            ....    1
 Number of Electrons    NEL             ....   56
FINAL SINGLE POINT ENERGY      -327.195529288572
FINAL SINGLE POINT ENERGY      -327.195530786047

CARTESIAN COORDINATES (ANGSTROEM)
---------------------------------
  C      1.944392    0.690535   -2.418379
  N      1.019761    0.000770   -1.482882
  C     -0.276221    0.706066   -1.238302
  C     -0.966867    0.052526   -0.064534
  O     -0.001013    0.002106    0.954036
  C     -0.387481   -0.523867    2.160309
  C     -1.585460   -0.987683    2.471386
  H      2.849206    0.095481   -2.527393
  H      2.188498    1.668063   -2.007385
  H      1.452287    0.803713   -3.382450
  H      0.830751   -0.945200   -1.819818
  H      1.448002   -0.111364   -0.555523
  H     -0.025754    1.743256   -1.013076
  H     -0.874710    0.667206   -2.148240
  H     -1.833853    0.655265    0.226780
  H     -1.324008   -0.956668   -0.311851
  H      0.445260   -0.505517    2.851827
  H     -2.428392   -1.004659    1.793298
  H     -1.745986   -1.371330    3.469163

FINAL SINGLE POINT ENERGY      -327.195531483026
                    ***********************HURRAY********************
 Multiplicity           Mult            ....    1
 Number of Electrons    NEL             ....   56
 Basis Dimension        Dim             ....  289
FINAL SINGLE POINT ENERGY      -327.195531707264

VIBRATIONAL FREQUENCIES
-----------------------

   0:         0.00 cm**-1
   1:         0.00 cm**-1
   2:         0.00 cm**-1
   3:         0.00 cm**-1
   4:         0.00 cm**-1
   5:         0.00 cm**-1
   6:        61.97 cm**-1
   7:        79.58 cm**-1
   8:       134.40 cm**-1
   9:       199.21 cm**-1
  10:       231.58 cm**-1
  11:       250.82 cm**-1
  12:       284.59 cm**-1
  13:       339.89 cm**-1
  14:       514.04 cm**-1
  15:       617.62 cm**-1
  16:       718.78 cm**-1
  17:       795.79 cm**-1
  18:       859.70 cm**-1
  19:       886.10 cm**-1
  20:       897.79 cm**-1
  21:       988.46 cm**-1
  22:       989.75 cm**-1
  23:      1016.40 cm**-1
  24:      1045.62 cm**-1
  25:      1051.93 cm**-1
  26:      1080.55 cm**-1
  27:      1176.48 cm**-1
  28:      1188.51 cm**-1
  29:      1227.73 cm**-1
  30:      1270.17 cm**-1
  31:      1311.39 cm**-1
  32:      1357.00 cm**-1
  33:      1366.83 cm**-1
  34:      1395.52 cm**-1
  35:      1410.65 cm**-1
  36:      1436.08 cm**-1
  37:      1439.82 cm**-1
  38:      1461.47 cm**-1
  39:      1486.78 cm**-1
  40:      1493.75 cm**-1
  41:      1498.60 cm**-1
  42:      1512.05 cm**-1
  43:      1661.92 cm**-1
  44:      1715.42 cm**-1
  45:      3020.70 cm**-1
  46:      3081.31 cm**-1
  47:      3092.37 cm**-1
  48:      3107.59 cm**-1
  49:      3170.26 cm**-1
  50:      3192.67 cm**-1
  51:      3192.82 cm**-1
  52:      3194.90 cm**-1
  53:      3231.52 cm**-1
  54:      3282.88 cm**-1
  55:      3383.60 cm**-1
  56:      3474.04 cm**-1

IR SPECTRUM
-----------

 Mode    freq (cm**-1)   T**2         TX         TY         TZ
-------------------------------------------------------------------
   6:        61.97    0.962527  (  0.202722  -0.943606   0.176176)
   7:        79.58    5.165388  (  1.695837   1.305995  -0.764136)
   8:       134.40    7.330524  ( -0.280929   0.519591   2.642277)
   9:       199.21    6.377896  ( -0.723878   1.913780   1.480319)
  10:       231.58    2.046385  (  1.414466   0.149740   0.152482)
  11:       250.82   14.945455  ( -1.590232   1.016441   3.373939)
  12:       284.59    4.731705  ( -1.360668  -1.115172   1.279328)
  13:       339.89    2.259350  ( -0.272315   0.890125  -1.180200)
  14:       514.04    7.912055  ( -2.777198  -0.403822   0.190136)
  15:       617.62    0.065236  ( -0.145611  -0.201951   0.056999)
  16:       718.78    2.156429  ( -0.351937   1.399258   0.273215)
  17:       795.79   13.388970  (  0.720942  -1.035501  -3.434669)
  18:       859.70    2.378989  (  1.074603   0.549047   0.960606)
  19:       886.10   29.960559  ( -5.031417  -2.015676   0.763187)
  20:       897.79   63.545791  ( -2.457562   7.169937   2.469449)
  21:       988.46   28.484167  (  3.211229   0.780997  -4.190730)
  22:       989.75   21.838757  ( -0.827972   4.541890   0.724194)
  23:      1016.40    2.644853  ( -0.187638  -1.383804   0.833506)
  24:      1045.62    8.722121  (  0.688431   0.721255  -2.779923)
  25:      1051.93    6.280049  (  2.413099  -0.293939  -0.608773)
  26:      1080.55   13.111802  (  3.457165   0.536782   0.933635)
  27:      1176.48   81.304258  ( -4.667317  -2.590561   7.267008)
  28:      1188.51    5.707151  ( -0.065592   2.059706  -1.208496)
  29:      1227.73  206.282939  ( -2.015018  -4.435855  13.510952)
  30:      1270.17    3.930590  (  1.347472  -1.028309  -1.028344)
  31:      1311.39   10.371982  (  3.147609   0.659285  -0.172871)
  32:      1357.00   22.990031  ( -0.347697   1.621812  -4.498762)
  33:      1366.83   14.004986  ( -2.505729   0.003936   2.779621)
  34:      1395.52   29.784818  (  2.515538   0.275385  -4.835396)
  35:      1410.65   36.804134  (  4.457659   0.826198  -4.031229)
  36:      1436.08   37.761772  ( -5.142178   0.323996   3.348851)
  37:      1439.82    8.696073  (  2.901985  -0.031619   0.523029)
  38:      1461.47    3.367645  (  1.480620   0.436370  -0.992468)
  39:      1486.78   28.022482  ( -3.396146  -0.948409   3.948315)
  40:      1493.75   23.468670  (  3.908015   1.028266   2.671846)
  41:      1498.60   25.424575  ( -2.369622   4.374732   0.819260)
  42:      1512.05    7.832750  (  1.134718   1.933035  -1.675870)
  43:      1661.92   44.472205  ( -1.165518   5.507863  -3.574524)
  44:      1715.42  133.410014  ( -7.109980  -4.632607   7.835633)
  45:      3020.70   15.936319  ( -1.244790  -1.824922  -3.325128)
  46:      3081.31    4.595164  ( -0.779074   1.982250  -0.242679)
  47:      3092.37    0.189330  (  0.086132   0.105072  -0.413366)
  48:      3107.59    1.322978  (  0.129557   0.924799  -0.671521)
  49:      3170.26    0.240426  ( -0.044085  -0.069122  -0.483430)
  50:      3192.67    0.330259  (  0.007280  -0.435859   0.374477)
  51:      3192.82   10.248818  (  1.123367   1.145613  -2.770277)
  52:      3194.90    0.124253  ( -0.132206  -0.291201   0.148246)
  53:      3231.52    0.580111  (  0.019607   0.229047  -0.726130)
  54:      3282.88    0.043689  ( -0.185877  -0.074187  -0.060290)
  55:      3383.60  112.313175  ( -0.568290   3.549634  -9.969469)
  56:      3474.04   71.091762  ( -0.936944  -6.039694  -5.808269)

--------------------------
THERMOCHEMISTRY AT 298.15K
--------------------------

Temperature         ... 298.15 K
Pressure            ... 1.00 atm
Total Mass          ... 102.16 AMU

Throughout the following assumptions are being made:
  (1) The electronic state is orbitally nondegenerate
  (2) There are no thermally accessible electronically excited states
  (3) Hindered rotations indicated by low frequency modes) are not
      treated as such but are treated as vibrations and this may
      case some error
  (4) All equations used are the standard statistical mechanics
      equations for an ideal gas
  (5) All vibrations are strinctly harmonic

------------
INNER ENERGY
------------

The inner energy is: U= E(el) + E(ZPE) + E(vib) + E(rot) + E(trans)
    E(el)   - is the total energy from the electronic structure calculation
              = E(kin-el) + E(nuc-el) + E(el-el) + E(nuc-nuc)
    E(ZPE)  - the the zero temperature vibrational energy from the frequency calculation
    E(vib)  - the the finite temperature correction to E(ZPE) due to population
              of excietd vibrational states
    E(rot)  - is the rotational thermal energy
    E(trans)- is the translational thermal energy

Summary of contributions to the inner energy U:
Electronic energy                ...   -327.19553171 Eh
Zero point energy                ...      0.17514422 Eh     109.90 kcal/mol
Thermal vibrational correction   ...      0.00570027 Eh       3.58 kcal/mol
Thermal rotational correction    ...      0.00141627 Eh       0.89 kcal/mol
Thermal translational correction ...      0.00141627 Eh       0.89 kcal/mol
-----------------------------------------------------------------------
Total thermal energy                   -327.01185467 Eh

Summary of corrections to the electronic energy:
(perhaps to be used in another calculation)
Total thermal correction                  0.00853281 Eh       5.35 kcal/mol
Non-thermal (ZPE) correction              0.17514422 Eh     109.90 kcal/mol
-----------------------------------------------------------------------
Total correction                          0.18367703 Eh     115.26 kcal/mol

--------
ENTHALPY
--------

The enthalpy is H = U + kB*T
                kB is Boltzmann's constant
Total free energy                 ...   -327.01185467 Eh
Thermal Enthalpy correction       ...      0.00094421 Eh       0.59 kcal/mol
-----------------------------------------------------------------------
Total Enthalpy                    ...   -327.01091046 Eh

-------
ENTROPY
-------

The entropy contributions are T*S = T*(S(el)+S(vib)+S(rot)+S(trans)
     S(el)   - electronic entropy
     S(vib)  - vibrational entropy
     S(rot)  - rotational entropy
     S(trans)- translational entropy
The entropies will be listed as mutliplied by the temperature to get
units of energy

Electronic entropy                ...      0.00000000 Eh      0.00 kcal/mol
Vibrational entropy               ...      0.01068416 Eh      6.70 kcal/mol
Rotational entropy                ...      0.01221699 Eh      7.67 kcal/mol
Translational entropy             ...      0.01890147 Eh     11.86 kcal/mol
-----------------------------------------------------------------------
Final entropy term                ...      0.04180262 Eh     26.23 kcal/mol

CAUTION: The rotational entropy is not quite correctly treated here
         because it includes a symmetry number that is not yet correctly
         implemented in ORCA!
For a nonlinear molecule the correct rotational entropy is:
    S(rot) = R*(ln(qrot/sn)+1.5)
    R    = 8.31441 J/mol/K = 1.987191683e-3 kcal/mol/K
    qrot = 278692.1112674
    sn is the rotational symmetry number. We have assumed 3 here
       if it is different for your molecule then you should correct
       the printed rotational entropy by manually evaluating the equation
       as given above

For convenience we print out the resulting values for sn=1 - 12:
 sn= 1  qrot/sn=  278692.1113 T*S(rot)=     8.32 kcal/mol T*S(tot)=    26.88 kcal/mol
 sn= 2  qrot/sn=  139346.0556 T*S(rot)=     7.91 kcal/mol T*S(tot)=    26.47 kcal/mol
 sn= 3  qrot/sn=   92897.3704 T*S(rot)=     7.67 kcal/mol T*S(tot)=    26.23 kcal/mol
 sn= 4  qrot/sn=   69673.0278 T*S(rot)=     7.50 kcal/mol T*S(tot)=    26.06 kcal/mol
 sn= 5  qrot/sn=   55738.4223 T*S(rot)=     7.36 kcal/mol T*S(tot)=    25.93 kcal/mol
 sn= 6  qrot/sn=   46448.6852 T*S(rot)=     7.26 kcal/mol T*S(tot)=    25.82 kcal/mol
 sn= 7  qrot/sn=   39813.1588 T*S(rot)=     7.16 kcal/mol T*S(tot)=    25.73 kcal/mol
 sn= 8  qrot/sn=   34836.5139 T*S(rot)=     7.09 kcal/mol T*S(tot)=    25.65 kcal/mol
 sn= 9  qrot/sn=   30965.7901 T*S(rot)=     7.02 kcal/mol T*S(tot)=    25.58 kcal/mol
 sn=10  qrot/sn=   27869.2111 T*S(rot)=     6.95 kcal/mol T*S(tot)=    25.52 kcal/mol
 sn=11  qrot/sn=   25335.6465 T*S(rot)=     6.90 kcal/mol T*S(tot)=    25.46 kcal/mol
 sn=12  qrot/sn=   23224.3426 T*S(rot)=     6.84 kcal/mol T*S(tot)=    25.41 kcal/mol

-------------------
GIBBS FREE ENTHALPY
-------------------

The Gibbs free enthalpy is G = H - T*S

Total enthalpy                    ...   -327.01091046 Eh
Total entropy correction          ...     -0.04180262 Eh    -26.23 kcal/mol
-----------------------------------------------------------------------
Final Gibbs free enthalpy         ...   -327.05271308 Eh

For completeness - the Gibbs free enthalpy minus the electronic energy
G-E(el)                           ...      0.14281863 Eh     89.62 kcal/mol

                             ****ORCA TERMINATED NORMALLY****
TOTAL RUN TIME: 0 days 0 hours 46 minutes 32 seconds 377 msec
