                         Program Version 3.0.3 - RELEASE   -
|  1> ! NORI PBE0 def2-TZVP UseSym TightOPT Freq TightSCF Grid3 FinalGrid5 XYZFile
|  2> % pal
|  3>     nprocs 8
|  4> end
|  5> %method
|  6>     SymThresh 5.0e-2
|  7> end
|  8> % geom
|  9>     MaxIter 10
| 10> end
| 11> % maxcore 2000
| 12> % output
| 13>     printlevel mini
| 14>     print[ P_Basis ] 0
| 15>     print[ P_SCFInfo ] 1
| 16>     print[ P_SCFIterInfo ] 1
| 17>     print[ P_OrbEn ] 0
| 18>     print[ P_Cartesian ] 0
| 19> end
| 20> % elprop
| 21>     Dipole false
| 22> end
| 23> *xyz 1 1
| 24>  C        0.6532013612     0.7489608704    -0.3379557298
| 25>  N        2.0864181901     0.5318478330    -0.3415555271
| 26>  C        2.7517656227     0.7175276890    -1.6229140077
| 27>  C        2.7888703708     0.1910100387     0.7201143887
| 28>  O        4.0116618903     0.0021801690     0.7394656311
| 29>  C        2.0894892491    -0.0051453877     2.0812812286
| 30>  N        3.2126735595    -0.3757199030     2.9744863791
| 31>  H        0.4333327082     1.7722144236    -0.6501422365
| 32>  H        0.2213858932     0.5904705103     0.6474623347
| 33>  H        0.1739369735     0.0620766921    -1.0385356733
| 34>  H        2.5864361694     1.7381177112    -1.9740032244
| 35>  H        2.3376152333     0.0200911013    -2.3536203420
| 36>  H        3.8168660320     0.5378749190    -1.5085900001
| 37>  H        1.3497023077    -0.8041519948     2.0534986042
| 38>  H        1.6123283626     0.9077883006     2.4344161403
| 39>  H        4.0173855778    -0.3312786986     2.2250665284
| 40>  H        3.1291699639    -1.3083464362     3.3709674918
| 41>  H        3.3731605347     0.2885921621     3.7272980140
| 42> *
| 43>
| 44>                          ****END OF INPUT****
 Total Charge           Charge          ....    1
 Multiplicity           Mult            ....    1
 Number of Electrons    NEL             ....   56
FINAL SINGLE POINT ENERGY      -343.288074122533
FINAL SINGLE POINT ENERGY      -343.288074372407

CARTESIAN COORDINATES (ANGSTROEM)
---------------------------------
  C     -1.996810   -0.862974    0.000000
  N     -0.550728   -0.966667   -0.000000
  C     -0.012636   -2.319376   -0.000000
  C      0.268138    0.065928   -0.000001
  O      1.503874    0.000201   -0.000001
  C     -0.296644    1.501635   -0.000001
  N      0.929789    2.333798    0.000001
  H     -2.402636   -1.355367   -0.886435
  H     -2.329286    0.172495   -0.000000
  H     -2.402635   -1.355366    0.886437
  H     -0.360751   -2.849949   -0.888416
  H     -0.360750   -2.849948    0.888416
  H      1.072568   -2.278589   -0.000001
  H     -0.893562    1.709506    0.886454
  H     -0.893561    1.709507   -0.886456
  H      1.663416    1.513509    0.000001
  H      1.028700    2.916776    0.827226
  H      1.028701    2.916777   -0.827224

FINAL SINGLE POINT ENERGY      -343.288074449433
                    ***********************HURRAY********************
 Multiplicity           Mult            ....    1
 Number of Electrons    NEL             ....   56
 Basis Dimension        Dim             ....  283
FINAL SINGLE POINT ENERGY      -343.288074495859

VIBRATIONAL FREQUENCIES
-----------------------

   0:         0.00 cm**-1
   1:         0.00 cm**-1
   2:         0.00 cm**-1
   3:         0.00 cm**-1
   4:         0.00 cm**-1
   5:         0.00 cm**-1
   6:        82.54 cm**-1
   7:       102.85 cm**-1
   8:       121.98 cm**-1
   9:       160.17 cm**-1
  10:       239.06 cm**-1
  11:       275.13 cm**-1
  12:       369.78 cm**-1
  13:       373.76 cm**-1
  14:       421.50 cm**-1
  15:       506.94 cm**-1
  16:       574.19 cm**-1
  17:       639.28 cm**-1
  18:       812.87 cm**-1
  19:       931.00 cm**-1
  20:       972.17 cm**-1
  21:      1037.73 cm**-1
  22:      1076.77 cm**-1
  23:      1086.15 cm**-1
  24:      1109.98 cm**-1
  25:      1115.89 cm**-1
  26:      1172.58 cm**-1
  27:      1188.97 cm**-1
  28:      1269.68 cm**-1
  29:      1289.45 cm**-1
  30:      1322.10 cm**-1
  31:      1361.02 cm**-1
  32:      1440.38 cm**-1
  33:      1459.94 cm**-1
  34:      1471.58 cm**-1
  35:      1478.93 cm**-1
  36:      1487.84 cm**-1
  37:      1491.85 cm**-1
  38:      1497.12 cm**-1
  39:      1559.64 cm**-1
  40:      1638.96 cm**-1
  41:      1640.23 cm**-1
  42:      1785.22 cm**-1
  43:      2458.26 cm**-1
  44:      3064.02 cm**-1
  45:      3068.33 cm**-1
  46:      3118.98 cm**-1
  47:      3130.41 cm**-1
  48:      3137.57 cm**-1
  49:      3178.51 cm**-1
  50:      3180.15 cm**-1
  51:      3202.25 cm**-1
  52:      3507.75 cm**-1
  53:      3574.83 cm**-1

IR SPECTRUM
-----------

 Mode    freq (cm**-1)   T**2         TX         TY         TZ
-------------------------------------------------------------------
   6:        82.54    5.054898  (  0.000196  -0.000410   2.248310)
   7:       102.85    0.181126  (  0.000318   0.000296  -0.425589)
   8:       121.98    8.958344  ( -0.000020   0.000846  -2.993049)
   9:       160.17    0.441525  (  0.000269  -0.000372  -0.664473)
  10:       239.06   20.662755  ( -1.738662   4.199977  -0.000010)
  11:       275.13    3.596937  (  0.000092  -0.000094  -1.896559)
  12:       369.78    0.273773  (  0.004217   0.020385   0.522819)
  13:       373.76   20.661260  (  0.727107   4.486934  -0.001056)
  14:       421.50  275.716119  ( -1.595587 -16.527862   0.000442)
  15:       506.94   56.424392  (  3.940507   6.395060  -0.000107)
  16:       574.19    1.201186  ( -0.000450  -0.000449  -1.095986)
  17:       639.28   34.075470  (  2.165517   5.420886  -0.000094)
  18:       812.87   29.738502  ( -2.502544  -4.845180   0.000000)
  19:       931.00   10.069449  ( -0.000014   0.000723  -3.173239)
  20:       972.17    0.729080  (  0.843654  -0.131637   0.000252)
  21:      1037.73    4.599767  (  0.880515  -1.955623  -0.000120)
  22:      1076.77   17.930035  (  2.728709  -3.237929   0.000120)
  23:      1086.15  302.045426  ( -1.200795 -17.337921   0.000282)
  24:      1109.98    1.612454  (  0.001443   0.000096  -1.269824)
  25:      1115.89    0.001689  ( -0.000310   0.000732  -0.041084)
  26:      1172.58    0.918894  (  0.000818   0.000811   0.958589)
  27:      1188.97   30.592094  ( -3.387821  -4.372043  -0.000146)
  28:      1269.68  319.009265  ( 12.755750  12.502004  -0.000412)
  29:      1289.45  108.119076  ( -3.482967  -9.797348  -0.000000)
  30:      1322.10    0.970028  ( -0.001190  -0.000012   0.984899)
  31:      1361.02  172.768649  (  9.493443   9.090830  -0.000030)
  32:      1440.38   14.526421  ( -3.151492   2.143484  -0.000189)
  33:      1459.94   14.942883  (  0.778371  -3.786426   0.000468)
  34:      1471.58    2.096005  ( -0.000068  -0.000081   1.447758)
  35:      1478.93   21.737476  ( -3.103069   3.479718  -0.000680)
  36:      1487.84   15.268550  (  0.015000  -3.907470  -0.000288)
  37:      1491.85   28.039810  ( -0.000555   0.000217   5.295263)
  38:      1497.12    5.111364  ( -1.671526  -1.522288  -0.001015)
  39:      1559.64   67.471528  (  0.171132  -8.212323  -0.000063)
  40:      1638.96   26.676943  (  0.859860   5.092895  -0.002358)
  41:      1640.23   32.905426  ( -0.000435   0.002882   5.736324)
  42:      1785.22  285.889686  (-14.846793  -8.090886  -0.000128)
  43:      2458.26  512.177161  ( -7.171910  21.464875   0.000089)
  44:      3064.02    8.521099  ( -2.652477   1.218797  -0.000054)
  45:      3068.33   10.792073  ( -1.791410  -2.753710  -0.000002)
  46:      3118.98    5.152074  ( -0.032923   2.269579   0.000124)
  47:      3130.41    3.488237  (  0.000425   0.000408   1.867682)
  48:      3137.57    3.142650  ( -0.000033   0.000160   1.772752)
  49:      3178.51    1.388282  ( -0.000455  -0.000381  -1.178253)
  50:      3180.15    8.262618  (  0.131340  -2.871475   0.000138)
  51:      3202.25    0.747010  (  0.614519   0.607763   0.000202)
  52:      3507.75  103.853659  (  2.624850   9.847021  -0.000609)
  53:      3574.83  101.723589  (  0.000337   0.000867  10.085811)

--------------------------
THERMOCHEMISTRY AT 298.15K
--------------------------

Temperature         ... 298.15 K
Pressure            ... 1.00 atm
Total Mass          ... 103.14 AMU

Throughout the following assumptions are being made:
  (1) The electronic state is orbitally nondegenerate
  (2) There are no thermally accessible electronically excited states
  (3) Hindered rotations indicated by low frequency modes) are not
      treated as such but are treated as vibrations and this may
      case some error
  (4) All equations used are the standard statistical mechanics
      equations for an ideal gas
  (5) All vibrations are strinctly harmonic

------------
INNER ENERGY
------------

The inner energy is: U= E(el) + E(ZPE) + E(vib) + E(rot) + E(trans)
    E(el)   - is the total energy from the electronic structure calculation
              = E(kin-el) + E(nuc-el) + E(el-el) + E(nuc-nuc)
    E(ZPE)  - the the zero temperature vibrational energy from the frequency calculation
    E(vib)  - the the finite temperature correction to E(ZPE) due to population
              of excietd vibrational states
    E(rot)  - is the rotational thermal energy
    E(trans)- is the translational thermal energy

Summary of contributions to the inner energy U:
Electronic energy                ...   -343.28807450 Eh
Zero point energy                ...      0.16217421 Eh     101.77 kcal/mol
Thermal vibrational correction   ...      0.00569489 Eh       3.57 kcal/mol
Thermal rotational correction    ...      0.00141627 Eh       0.89 kcal/mol
Thermal translational correction ...      0.00141627 Eh       0.89 kcal/mol
-----------------------------------------------------------------------
Total thermal energy                   -343.11737285 Eh

Summary of corrections to the electronic energy:
(perhaps to be used in another calculation)
Total thermal correction                  0.00852743 Eh       5.35 kcal/mol
Non-thermal (ZPE) correction              0.16217421 Eh     101.77 kcal/mol
-----------------------------------------------------------------------
Total correction                          0.17070165 Eh     107.12 kcal/mol

--------
ENTHALPY
--------

The enthalpy is H = U + kB*T
                kB is Boltzmann's constant
Total free energy                 ...   -343.11737285 Eh
Thermal Enthalpy correction       ...      0.00094421 Eh       0.59 kcal/mol
-----------------------------------------------------------------------
Total Enthalpy                    ...   -343.11642864 Eh

-------
ENTROPY
-------

The entropy contributions are T*S = T*(S(el)+S(vib)+S(rot)+S(trans)
     S(el)   - electronic entropy
     S(vib)  - vibrational entropy
     S(rot)  - rotational entropy
     S(trans)- translational entropy
The entropies will be listed as mutliplied by the temperature to get
units of energy

Electronic entropy                ...      0.00000000 Eh      0.00 kcal/mol
Vibrational entropy               ...      0.01038015 Eh      6.51 kcal/mol
Rotational entropy                ...      0.01210877 Eh      7.60 kcal/mol
Translational entropy             ...      0.01891510 Eh     11.87 kcal/mol
-----------------------------------------------------------------------
Final entropy term                ...      0.04140402 Eh     25.98 kcal/mol

CAUTION: The rotational entropy is not quite correctly treated here
         because it includes a symmetry number that is not yet correctly
         implemented in ORCA!
For a nonlinear molecule the correct rotational entropy is:
    S(rot) = R*(ln(qrot/sn)+1.5)
    R    = 8.31441 J/mol/K = 1.987191683e-3 kcal/mol/K
    qrot = 248510.9613625
    sn is the rotational symmetry number. We have assumed 3 here
       if it is different for your molecule then you should correct
       the printed rotational entropy by manually evaluating the equation
       as given above

For convenience we print out the resulting values for sn=1 - 12:
 sn= 1  qrot/sn=  248510.9614 T*S(rot)=     8.25 kcal/mol T*S(tot)=    26.63 kcal/mol
 sn= 2  qrot/sn=  124255.4807 T*S(rot)=     7.84 kcal/mol T*S(tot)=    26.22 kcal/mol
 sn= 3  qrot/sn=   82836.9871 T*S(rot)=     7.60 kcal/mol T*S(tot)=    25.98 kcal/mol
 sn= 4  qrot/sn=   62127.7403 T*S(rot)=     7.43 kcal/mol T*S(tot)=    25.81 kcal/mol
 sn= 5  qrot/sn=   49702.1923 T*S(rot)=     7.30 kcal/mol T*S(tot)=    25.68 kcal/mol
 sn= 6  qrot/sn=   41418.4936 T*S(rot)=     7.19 kcal/mol T*S(tot)=    25.57 kcal/mol
 sn= 7  qrot/sn=   35501.5659 T*S(rot)=     7.10 kcal/mol T*S(tot)=    25.48 kcal/mol
 sn= 8  qrot/sn=   31063.8702 T*S(rot)=     7.02 kcal/mol T*S(tot)=    25.40 kcal/mol
 sn= 9  qrot/sn=   27612.3290 T*S(rot)=     6.95 kcal/mol T*S(tot)=    25.33 kcal/mol
 sn=10  qrot/sn=   24851.0961 T*S(rot)=     6.89 kcal/mol T*S(tot)=    25.27 kcal/mol
 sn=11  qrot/sn=   22591.9056 T*S(rot)=     6.83 kcal/mol T*S(tot)=    25.21 kcal/mol
 sn=12  qrot/sn=   20709.2468 T*S(rot)=     6.78 kcal/mol T*S(tot)=    25.16 kcal/mol

-------------------
GIBBS FREE ENTHALPY
-------------------

The Gibbs free enthalpy is G = H - T*S

Total enthalpy                    ...   -343.11642864 Eh
Total entropy correction          ...     -0.04140402 Eh    -25.98 kcal/mol
-----------------------------------------------------------------------
Final Gibbs free enthalpy         ...   -343.15783266 Eh

For completeness - the Gibbs free enthalpy minus the electronic energy
G-E(el)                           ...      0.13024184 Eh     81.73 kcal/mol

                             ****ORCA TERMINATED NORMALLY****
TOTAL RUN TIME: 0 days 0 hours 49 minutes 39 seconds 68 msec
