                         Program Version 3.0.3 - RELEASE   -
|  1> ! NORI PBE0 def2-TZVP UseSym TightOPT Freq TightSCF Grid3 FinalGrid5 XYZFile
|  2> % pal
|  3>     nprocs 8
|  4> end
|  5> %method
|  6>     SymThresh 5.0e-2
|  7> end
|  8> % geom
|  9>     MaxIter 10
| 10> end
| 11> % maxcore 2000
| 12> % output
| 13>     printlevel mini
| 14>     print[ P_Basis ] 0
| 15>     print[ P_SCFInfo ] 1
| 16>     print[ P_SCFIterInfo ] 1
| 17>     print[ P_OrbEn ] 0
| 18>     print[ P_Cartesian ] 0
| 19> end
| 20> % elprop
| 21>     Dipole false
| 22> end
| 23> *xyz 1 1
| 24>  C        3.0566393349     1.2190947766    -1.5072009216
| 25>  N        2.3981144506     0.1731427432    -0.6655787492
| 26>  C        3.0345687375    -1.1818706088    -0.6725113423
| 27>  C        2.2867691345    -2.0013773697    -1.7560098674
| 28>  O        1.2738857420    -1.5600331153    -2.2046289115
| 29>  C        4.4671761833    -1.1381160980    -0.8814354040
| 30>  N        5.5993389075    -1.1236694470    -1.0731801708
| 31>  H        2.4429942619     2.1168510138    -1.4586687587
| 32>  H        3.1097732691     0.8577609566    -2.5323282424
| 33>  H        4.0538282779     1.4143854504    -1.1197187043
| 34>  H        1.4548784808    -0.0099935254    -1.0583373191
| 35>  H        2.2957433457     0.5126258983     0.2911207486
| 36>  H        2.8257084160    -1.6671435317     0.2897723494
| 37>  H        2.7264014581    -2.9699871431    -2.0349747067
| 38> *
| 39>
| 40>                          ****END OF INPUT****
 Total Charge           Charge          ....    1
 Multiplicity           Mult            ....    1
 Number of Electrons    NEL             ....   52
FINAL SINGLE POINT ENERGY      -340.790672720106

CARTESIAN COORDINATES (ANGSTROEM)
---------------------------------
  C      1.305448    1.384656   -0.594206
  N      1.302960   -0.000167   -0.030027
  C     -0.006442   -0.725573   -0.057723
  C     -0.664032   -0.476853    1.324443
  O     -0.000126    0.000160    2.192514
  C     -0.851333   -0.334415   -1.167352
  N     -1.545260   -0.016579   -2.025362
  H      2.297303    1.804124   -0.435869
  H      0.560879    1.976732   -0.065695
  H      1.072929    1.339078   -1.655575
  H      1.512613    0.064773    0.984614
  H      2.028289   -0.558792   -0.480645
  H      0.195864   -1.802565   -0.121292
  H     -1.714955   -0.782048    1.434547

FINAL SINGLE POINT ENERGY      -340.790672830840
                    ***********************HURRAY********************
 Multiplicity           Mult            ....    1
 Number of Electrons    NEL             ....   52
 Basis Dimension        Dim             ....  259
FINAL SINGLE POINT ENERGY      -340.790672393449

VIBRATIONAL FREQUENCIES
-----------------------

   0:         0.00 cm**-1
   1:         0.00 cm**-1
   2:         0.00 cm**-1
   3:         0.00 cm**-1
   4:         0.00 cm**-1
   5:         0.00 cm**-1
   6:        70.51 cm**-1
   7:       128.40 cm**-1
   8:       154.79 cm**-1
   9:       213.26 cm**-1
  10:       243.74 cm**-1
  11:       323.50 cm**-1
  12:       363.82 cm**-1
  13:       500.91 cm**-1
  14:       574.62 cm**-1
  15:       676.75 cm**-1
  16:       767.42 cm**-1
  17:       843.68 cm**-1
  18:       926.66 cm**-1
  19:      1016.54 cm**-1
  20:      1026.56 cm**-1
  21:      1091.68 cm**-1
  22:      1157.97 cm**-1
  23:      1184.58 cm**-1
  24:      1274.14 cm**-1
  25:      1334.36 cm**-1
  26:      1373.52 cm**-1
  27:      1406.63 cm**-1
  28:      1452.09 cm**-1
  29:      1459.83 cm**-1
  30:      1490.59 cm**-1
  31:      1493.83 cm**-1
  32:      1595.73 cm**-1
  33:      1850.51 cm**-1
  34:      2396.13 cm**-1
  35:      3058.71 cm**-1
  36:      3061.56 cm**-1
  37:      3095.09 cm**-1
  38:      3197.08 cm**-1
  39:      3204.49 cm**-1
  40:      3229.22 cm**-1
  41:      3490.22 cm**-1

IR SPECTRUM
-----------

 Mode    freq (cm**-1)   T**2         TX         TY         TZ
-------------------------------------------------------------------
   6:        70.51    0.754367  (  0.725096  -0.430029   0.208993)
   7:       128.40   18.676962  ( -2.977094   3.000333   0.901041)
   8:       154.79   16.249955  (  2.405285   3.189717  -0.538762)
   9:       213.26    2.442758  (  1.127073  -0.277836  -1.046552)
  10:       243.74   12.627909  (  1.225342   2.025437  -2.650293)
  11:       323.50   44.240455  (  4.391736   0.336488  -4.983963)
  12:       363.82    2.099170  ( -1.196509   0.200767   0.791978)
  13:       500.91    3.102233  ( -0.425234   1.226761  -1.190154)
  14:       574.62    5.768560  (  2.044941  -0.041379  -1.258993)
  15:       676.75    1.356495  (  0.276008  -1.086301  -0.316646)
  16:       767.42   10.039957  (  1.488395  -0.343144  -2.776129)
  17:       843.68   45.552922  (  3.132547  -0.088495  -5.977645)
  18:       926.66   24.443149  ( -1.626386  -0.944085   4.572387)
  19:      1016.54    4.628043  ( -1.341926  -0.148376   1.674892)
  20:      1026.56    8.966969  ( -1.107831   1.913955  -2.019023)
  21:      1091.68   27.164139  ( -2.517722  -2.805757  -3.599020)
  22:      1157.97    5.098322  (  1.210315   1.883387   0.293794)
  23:      1184.58   16.527475  (  2.437644   0.937013  -3.115666)
  24:      1274.14    4.480849  ( -1.611511   0.355981   1.325579)
  25:      1334.36    3.500880  ( -0.851048  -0.404286  -1.616524)
  26:      1373.52   14.299321  ( -3.465647  -1.506549   0.137572)
  27:      1406.63    2.850875  ( -0.254702   1.669125  -0.004680)
  28:      1452.09   49.030706  (  4.973619   4.191483  -2.593317)
  29:      1459.83   13.496572  (  1.219900   3.233900  -1.245113)
  30:      1490.59   53.618517  (  6.341526   3.410850   1.330291)
  31:      1493.83   19.886507  ( -2.077098   1.332659   3.714323)
  32:      1595.73   72.819873  (  7.774087  -2.668065   2.294532)
  33:      1850.51  121.149708  ( -3.119989  -3.311650 -10.022392)
  34:      2396.13    6.615500  (  2.134879  -0.333348   1.395232)
  35:      3058.71    5.479648  (  0.343122   2.306489   0.205001)
  36:      3061.56   11.567279  ( -1.340700   2.612841   1.715477)
  37:      3095.09    0.832109  ( -0.399905  -0.819678   0.017703)
  38:      3197.08    1.979058  (  1.075946  -0.075231  -0.903182)
  39:      3204.49    2.312234  (  0.526020   0.842080  -1.151711)
  40:      3229.22  163.210733  ( -0.966487  -1.643272  12.632351)
  41:      3490.22  110.497275  ( -7.966420   4.697538   4.996656)

--------------------------
THERMOCHEMISTRY AT 298.15K
--------------------------

Temperature         ... 298.15 K
Pressure            ... 1.00 atm
Total Mass          ... 99.11 AMU

Throughout the following assumptions are being made:
  (1) The electronic state is orbitally nondegenerate
  (2) There are no thermally accessible electronically excited states
  (3) Hindered rotations indicated by low frequency modes) are not
      treated as such but are treated as vibrations and this may
      case some error
  (4) All equations used are the standard statistical mechanics
      equations for an ideal gas
  (5) All vibrations are strinctly harmonic

------------
INNER ENERGY
------------

The inner energy is: U= E(el) + E(ZPE) + E(vib) + E(rot) + E(trans)
    E(el)   - is the total energy from the electronic structure calculation
              = E(kin-el) + E(nuc-el) + E(el-el) + E(nuc-nuc)
    E(ZPE)  - the the zero temperature vibrational energy from the frequency calculation
    E(vib)  - the the finite temperature correction to E(ZPE) due to population
              of excietd vibrational states
    E(rot)  - is the rotational thermal energy
    E(trans)- is the translational thermal energy

Summary of contributions to the inner energy U:
Electronic energy                ...   -340.79067239 Eh
Zero point energy                ...      0.11556952 Eh      72.52 kcal/mol
Thermal vibrational correction   ...      0.00480251 Eh       3.01 kcal/mol
Thermal rotational correction    ...      0.00141627 Eh       0.89 kcal/mol
Thermal translational correction ...      0.00141627 Eh       0.89 kcal/mol
-----------------------------------------------------------------------
Total thermal energy                   -340.66746782 Eh

Summary of corrections to the electronic energy:
(perhaps to be used in another calculation)
Total thermal correction                  0.00763505 Eh       4.79 kcal/mol
Non-thermal (ZPE) correction              0.11556952 Eh      72.52 kcal/mol
-----------------------------------------------------------------------
Total correction                          0.12320458 Eh      77.31 kcal/mol

--------
ENTHALPY
--------

The enthalpy is H = U + kB*T
                kB is Boltzmann's constant
Total free energy                 ...   -340.66746782 Eh
Thermal Enthalpy correction       ...      0.00094421 Eh       0.59 kcal/mol
-----------------------------------------------------------------------
Total Enthalpy                    ...   -340.66652361 Eh

-------
ENTROPY
-------

The entropy contributions are T*S = T*(S(el)+S(vib)+S(rot)+S(trans)
     S(el)   - electronic entropy
     S(vib)  - vibrational entropy
     S(rot)  - rotational entropy
     S(trans)- translational entropy
The entropies will be listed as mutliplied by the temperature to get
units of energy

Electronic entropy                ...      0.00000000 Eh      0.00 kcal/mol
Vibrational entropy               ...      0.00875050 Eh      5.49 kcal/mol
Rotational entropy                ...      0.01207190 Eh      7.58 kcal/mol
Translational entropy             ...      0.01885862 Eh     11.83 kcal/mol
-----------------------------------------------------------------------
Final entropy term                ...      0.03968103 Eh     24.90 kcal/mol

CAUTION: The rotational entropy is not quite correctly treated here
         because it includes a symmetry number that is not yet correctly
         implemented in ORCA!
For a nonlinear molecule the correct rotational entropy is:
    S(rot) = R*(ln(qrot/sn)+1.5)
    R    = 8.31441 J/mol/K = 1.987191683e-3 kcal/mol/K
    qrot = 238993.1269031
    sn is the rotational symmetry number. We have assumed 3 here
       if it is different for your molecule then you should correct
       the printed rotational entropy by manually evaluating the equation
       as given above

For convenience we print out the resulting values for sn=1 - 12:
 sn= 1  qrot/sn=  238993.1269 T*S(rot)=     8.23 kcal/mol T*S(tot)=    25.55 kcal/mol
 sn= 2  qrot/sn=  119496.5635 T*S(rot)=     7.82 kcal/mol T*S(tot)=    25.14 kcal/mol
 sn= 3  qrot/sn=   79664.3756 T*S(rot)=     7.58 kcal/mol T*S(tot)=    24.90 kcal/mol
 sn= 4  qrot/sn=   59748.2817 T*S(rot)=     7.40 kcal/mol T*S(tot)=    24.73 kcal/mol
 sn= 5  qrot/sn=   47798.6254 T*S(rot)=     7.27 kcal/mol T*S(tot)=    24.60 kcal/mol
 sn= 6  qrot/sn=   39832.1878 T*S(rot)=     7.16 kcal/mol T*S(tot)=    24.49 kcal/mol
 sn= 7  qrot/sn=   34141.8753 T*S(rot)=     7.07 kcal/mol T*S(tot)=    24.40 kcal/mol
 sn= 8  qrot/sn=   29874.1409 T*S(rot)=     6.99 kcal/mol T*S(tot)=    24.32 kcal/mol
 sn= 9  qrot/sn=   26554.7919 T*S(rot)=     6.92 kcal/mol T*S(tot)=    24.25 kcal/mol
 sn=10  qrot/sn=   23899.3127 T*S(rot)=     6.86 kcal/mol T*S(tot)=    24.19 kcal/mol
 sn=11  qrot/sn=   21726.6479 T*S(rot)=     6.81 kcal/mol T*S(tot)=    24.13 kcal/mol
 sn=12  qrot/sn=   19916.0939 T*S(rot)=     6.75 kcal/mol T*S(tot)=    24.08 kcal/mol

-------------------
GIBBS FREE ENTHALPY
-------------------

The Gibbs free enthalpy is G = H - T*S

Total enthalpy                    ...   -340.66652361 Eh
Total entropy correction          ...     -0.03968103 Eh    -24.90 kcal/mol
-----------------------------------------------------------------------
Final Gibbs free enthalpy         ...   -340.70620463 Eh

For completeness - the Gibbs free enthalpy minus the electronic energy
G-E(el)                           ...      0.08446776 Eh     53.00 kcal/mol

                             ****ORCA TERMINATED NORMALLY****
TOTAL RUN TIME: 0 days 0 hours 33 minutes 0 seconds 114 msec
