                         Program Version 3.0.3 - RELEASE   -
|  1> ! NORI PBE0 def2-TZVP UseSym TightOPT Freq TightSCF Grid3 FinalGrid5 XYZFile
|  2> % pal
|  3>     nprocs 8
|  4> end
|  5> %method
|  6>     SymThresh 5.0e-2
|  7> end
|  8> % geom
|  9>     MaxIter 10
| 10> end
| 11> % maxcore 2000
| 12> % output
| 13>     printlevel mini
| 14>     print[ P_Basis ] 0
| 15>     print[ P_SCFInfo ] 1
| 16>     print[ P_SCFIterInfo ] 1
| 17>     print[ P_OrbEn ] 0
| 18>     print[ P_Cartesian ] 0
| 19> end
| 20> % elprop
| 21>     Dipole false
| 22> end
| 23> *xyz 1 1
| 24>  C        2.7810072504     0.3269216206     1.2642532088
| 25>  N        2.3645891677     0.0044117637    -0.1288897360
| 26>  C        2.9085304765    -1.2682701497    -0.7204041689
| 27>  C        2.5331678039    -1.2514910006    -2.2113355359
| 28>  O        2.8516486226     0.0130713646    -2.7237712000
| 29>  C        4.3523895744    -1.2914460440    -0.5338260729
| 30>  N        5.4949520139    -1.2988516917    -0.4200044949
| 31>  H        2.3109042725     1.2655121447     1.5519131897
| 32>  H        3.8644167709     0.4238032964     1.2918001479
| 33>  H        2.4564619246    -0.4751963081     1.9247977765
| 34>  H        1.3440926694    -0.0383757225    -0.1804977113
| 35>  H        2.6492136165     0.7427343969    -0.7900714463
| 36>  H        2.4518827241    -2.1131448272    -0.1976724612
| 37>  H        3.0425224552    -2.0733626088    -2.7168675367
| 38>  H        1.4539441185    -1.4110584880    -2.3083599273
| 39>  H        3.6033665388    -0.0276777464    -3.3226940315
| 40> *
| 41>
| 42>                          ****END OF INPUT****
 Total Charge           Charge          ....    1
 Multiplicity           Mult            ....    1
 Number of Electrons    NEL             ....   54
FINAL SINGLE POINT ENERGY      -342.019026618883

CARTESIAN COORDINATES (ANGSTROEM)
---------------------------------
  C      1.627889    0.678266   -1.536629
  N      1.270409    0.000148   -0.259801
  C     -0.059413   -0.703415   -0.216833
  C     -0.291810   -1.107807    1.248309
  O     -0.000473    0.000096    2.054893
  C     -1.088849    0.212498   -0.687295
  N     -1.909139    0.941588   -1.024823
  H      2.608396    1.135536   -1.416811
  H      0.880275    1.439448   -1.749442
  H      1.651831   -0.061341   -2.334859
  H      1.992923   -0.682778   -0.020229
  H      1.240046    0.665726    0.527066
  H     -0.008253   -1.575631   -0.874161
  H     -1.312603   -1.477601    1.359048
  H      0.393332   -1.922697    1.505285
  H     -0.796877    0.369605    2.447962

FINAL SINGLE POINT ENERGY      -342.019026944331
                    ***********************HURRAY********************
 Multiplicity           Mult            ....    1
 Number of Electrons    NEL             ....   54
 Basis Dimension        Dim             ....  271
FINAL SINGLE POINT ENERGY      -342.019027115739

VIBRATIONAL FREQUENCIES
-----------------------

   0:         0.00 cm**-1
   1:         0.00 cm**-1
   2:         0.00 cm**-1
   3:         0.00 cm**-1
   4:         0.00 cm**-1
   5:         0.00 cm**-1
   6:        92.88 cm**-1
   7:       107.13 cm**-1
   8:       151.12 cm**-1
   9:       191.43 cm**-1
  10:       208.63 cm**-1
  11:       267.11 cm**-1
  12:       272.42 cm**-1
  13:       359.92 cm**-1
  14:       444.32 cm**-1
  15:       585.24 cm**-1
  16:       679.31 cm**-1
  17:       796.82 cm**-1
  18:       879.96 cm**-1
  19:       900.44 cm**-1
  20:       981.98 cm**-1
  21:      1027.31 cm**-1
  22:      1056.01 cm**-1
  23:      1106.12 cm**-1
  24:      1155.78 cm**-1
  25:      1177.09 cm**-1
  26:      1231.27 cm**-1
  27:      1294.93 cm**-1
  28:      1332.45 cm**-1
  29:      1361.79 cm**-1
  30:      1398.46 cm**-1
  31:      1414.05 cm**-1
  32:      1434.32 cm**-1
  33:      1461.48 cm**-1
  34:      1491.03 cm**-1
  35:      1494.93 cm**-1
  36:      1499.22 cm**-1
  37:      1656.29 cm**-1
  38:      2395.71 cm**-1
  39:      3060.26 cm**-1
  40:      3092.75 cm**-1
  41:      3105.52 cm**-1
  42:      3133.04 cm**-1
  43:      3193.87 cm**-1
  44:      3199.54 cm**-1
  45:      3342.42 cm**-1
  46:      3466.10 cm**-1
  47:      3861.37 cm**-1

IR SPECTRUM
-----------

 Mode    freq (cm**-1)   T**2         TX         TY         TZ
-------------------------------------------------------------------
   6:        92.88    7.581448  (  1.326721   0.248863  -2.399860)
   7:       107.13   27.589537  (  0.456002  -0.398478  -5.217549)
   8:       151.12    3.122319  ( -1.568497  -0.606385  -0.542616)
   9:       191.43   33.154916  ( -2.030776  -2.697356   4.664240)
  10:       208.63   72.746594  ( -1.099148   4.253650  -7.310604)
  11:       267.11   17.388054  ( -0.049088  -3.405782   2.405472)
  12:       272.42    8.389295  ( -2.334900   1.575185  -0.675521)
  13:       359.92    1.552870  ( -0.759357   0.935404   0.318223)
  14:       444.32    4.644325  ( -0.047941  -2.000601   0.799763)
  15:       585.24    3.468441  (  1.641612  -0.246905  -0.844149)
  16:       679.31    6.894816  (  1.131866  -0.028232   2.369156)
  17:       796.82    2.263801  (  1.425220   0.104395  -0.470796)
  18:       879.96   16.588708  ( -1.406193   3.752466   0.728234)
  19:       900.44    4.432416  (  1.551706   1.414349  -0.155697)
  20:       981.98   11.205733  ( -1.033899  -2.346256  -2.152178)
  21:      1027.31   14.401353  ( -0.836598  -0.781643  -3.618078)
  22:      1056.01   44.856384  ( -5.270203  -3.560708  -2.098261)
  23:      1106.12   68.682334  ( -0.242410   4.219321   7.128878)
  24:      1155.78   12.724240  (  2.214848   1.393394  -2.424282)
  25:      1177.09    3.692218  (  1.062754   1.526793   0.481325)
  26:      1231.27   26.589261  ( -0.773049  -4.764409  -1.814404)
  27:      1294.93   11.012070  ( -1.292333  -2.318920   1.991119)
  28:      1332.45    2.268081  ( -0.339796   1.438213   0.290108)
  29:      1361.79   27.676742  (  1.523855   4.111129   2.907443)
  30:      1398.46   22.712789  (  3.721883   1.738811  -2.415971)
  31:      1414.05   33.771052  ( -5.086346  -1.121755   2.577170)
  32:      1434.32   43.102808  ( -2.823090  -4.063082   4.315593)
  33:      1461.48    5.232586  ( -1.294355  -0.808103   1.704172)
  34:      1491.03   16.562706  ( -2.392649   2.767847   1.782403)
  35:      1494.93   35.073079  (  4.647925   3.667399  -0.141607)
  36:      1499.22    7.560752  ( -1.847227   1.776174  -0.996850)
  37:      1656.29   52.489552  (  4.047748  -0.017921   6.008741)
  38:      2395.71    5.271828  (  2.034356  -1.055374   0.139313)
  39:      3060.26   11.260443  ( -1.250353   2.879669   1.185146)
  40:      3092.75    0.360521  (  0.018775  -0.600079  -0.008560)
  41:      3105.52    1.082419  (  0.382210   0.673886   0.694415)
  42:      3133.04    0.636839  ( -0.502464   0.270865  -0.557675)
  43:      3193.87    0.489666  ( -0.625402  -0.285843  -0.129736)
  44:      3199.54    1.246733  ( -0.877975   0.614649  -0.313207)
  45:      3342.42  121.077658  (  0.296597  -3.747644 -10.341415)
  46:      3466.10   79.830321  (  6.750283  -5.848306  -0.247623)
  47:      3861.37  140.199816  (  7.309948  -5.025494  -7.842760)

--------------------------
THERMOCHEMISTRY AT 298.15K
--------------------------

Temperature         ... 298.15 K
Pressure            ... 1.00 atm
Total Mass          ... 101.13 AMU

Throughout the following assumptions are being made:
  (1) The electronic state is orbitally nondegenerate
  (2) There are no thermally accessible electronically excited states
  (3) Hindered rotations indicated by low frequency modes) are not
      treated as such but are treated as vibrations and this may
      case some error
  (4) All equations used are the standard statistical mechanics
      equations for an ideal gas
  (5) All vibrations are strinctly harmonic

------------
INNER ENERGY
------------

The inner energy is: U= E(el) + E(ZPE) + E(vib) + E(rot) + E(trans)
    E(el)   - is the total energy from the electronic structure calculation
              = E(kin-el) + E(nuc-el) + E(el-el) + E(nuc-nuc)
    E(ZPE)  - the the zero temperature vibrational energy from the frequency calculation
    E(vib)  - the the finite temperature correction to E(ZPE) due to population
              of excietd vibrational states
    E(rot)  - is the rotational thermal energy
    E(trans)- is the translational thermal energy

Summary of contributions to the inner energy U:
Electronic energy                ...   -342.01902712 Eh
Zero point energy                ...      0.13979251 Eh      87.72 kcal/mol
Thermal vibrational correction   ...      0.00550560 Eh       3.45 kcal/mol
Thermal rotational correction    ...      0.00141627 Eh       0.89 kcal/mol
Thermal translational correction ...      0.00141627 Eh       0.89 kcal/mol
-----------------------------------------------------------------------
Total thermal energy                   -341.87089647 Eh

Summary of corrections to the electronic energy:
(perhaps to be used in another calculation)
Total thermal correction                  0.00833814 Eh       5.23 kcal/mol
Non-thermal (ZPE) correction              0.13979251 Eh      87.72 kcal/mol
-----------------------------------------------------------------------
Total correction                          0.14813065 Eh      92.95 kcal/mol

--------
ENTHALPY
--------

The enthalpy is H = U + kB*T
                kB is Boltzmann's constant
Total free energy                 ...   -341.87089647 Eh
Thermal Enthalpy correction       ...      0.00094421 Eh       0.59 kcal/mol
-----------------------------------------------------------------------
Total Enthalpy                    ...   -341.86995226 Eh

-------
ENTROPY
-------

The entropy contributions are T*S = T*(S(el)+S(vib)+S(rot)+S(trans)
     S(el)   - electronic entropy
     S(vib)  - vibrational entropy
     S(rot)  - rotational entropy
     S(trans)- translational entropy
The entropies will be listed as mutliplied by the temperature to get
units of energy

Electronic entropy                ...      0.00000000 Eh      0.00 kcal/mol
Vibrational entropy               ...      0.00993819 Eh      6.24 kcal/mol
Rotational entropy                ...      0.01214471 Eh      7.62 kcal/mol
Translational entropy             ...      0.01888714 Eh     11.85 kcal/mol
-----------------------------------------------------------------------
Final entropy term                ...      0.04097005 Eh     25.71 kcal/mol

CAUTION: The rotational entropy is not quite correctly treated here
         because it includes a symmetry number that is not yet correctly
         implemented in ORCA!
For a nonlinear molecule the correct rotational entropy is:
    S(rot) = R*(ln(qrot/sn)+1.5)
    R    = 8.31441 J/mol/K = 1.987191683e-3 kcal/mol/K
    qrot = 258153.2711559
    sn is the rotational symmetry number. We have assumed 3 here
       if it is different for your molecule then you should correct
       the printed rotational entropy by manually evaluating the equation
       as given above

For convenience we print out the resulting values for sn=1 - 12:
 sn= 1  qrot/sn=  258153.2712 T*S(rot)=     8.27 kcal/mol T*S(tot)=    26.36 kcal/mol
 sn= 2  qrot/sn=  129076.6356 T*S(rot)=     7.86 kcal/mol T*S(tot)=    25.95 kcal/mol
 sn= 3  qrot/sn=   86051.0904 T*S(rot)=     7.62 kcal/mol T*S(tot)=    25.71 kcal/mol
 sn= 4  qrot/sn=   64538.3178 T*S(rot)=     7.45 kcal/mol T*S(tot)=    25.54 kcal/mol
 sn= 5  qrot/sn=   51630.6542 T*S(rot)=     7.32 kcal/mol T*S(tot)=    25.41 kcal/mol
 sn= 6  qrot/sn=   43025.5452 T*S(rot)=     7.21 kcal/mol T*S(tot)=    25.30 kcal/mol
 sn= 7  qrot/sn=   36879.0387 T*S(rot)=     7.12 kcal/mol T*S(tot)=    25.21 kcal/mol
 sn= 8  qrot/sn=   32269.1589 T*S(rot)=     7.04 kcal/mol T*S(tot)=    25.13 kcal/mol
 sn= 9  qrot/sn=   28683.6968 T*S(rot)=     6.97 kcal/mol T*S(tot)=    25.06 kcal/mol
 sn=10  qrot/sn=   25815.3271 T*S(rot)=     6.91 kcal/mol T*S(tot)=    25.00 kcal/mol
 sn=11  qrot/sn=   23468.4792 T*S(rot)=     6.85 kcal/mol T*S(tot)=    24.94 kcal/mol
 sn=12  qrot/sn=   21512.7726 T*S(rot)=     6.80 kcal/mol T*S(tot)=    24.89 kcal/mol

-------------------
GIBBS FREE ENTHALPY
-------------------

The Gibbs free enthalpy is G = H - T*S

Total enthalpy                    ...   -341.86995226 Eh
Total entropy correction          ...     -0.04097005 Eh    -25.71 kcal/mol
-----------------------------------------------------------------------
Final Gibbs free enthalpy         ...   -341.91092230 Eh

For completeness - the Gibbs free enthalpy minus the electronic energy
G-E(el)                           ...      0.10810481 Eh     67.84 kcal/mol

                             ****ORCA TERMINATED NORMALLY****
TOTAL RUN TIME: 0 days 0 hours 36 minutes 7 seconds 589 msec
