                         Program Version 3.0.3 - RELEASE   -
|  1> ! NORI PBE0 def2-TZVP UseSym TightOPT Freq TightSCF Grid3 FinalGrid5 XYZFile
|  2> % pal
|  3>     nprocs 8
|  4> end
|  5> %method
|  6>     SymThresh 5.0e-2
|  7> end
|  8> % geom
|  9>     MaxIter 10
| 10> end
| 11> % maxcore 2000
| 12> % output
| 13>     printlevel mini
| 14>     print[ P_Basis ] 0
| 15>     print[ P_SCFInfo ] 1
| 16>     print[ P_SCFIterInfo ] 1
| 17>     print[ P_OrbEn ] 0
| 18>     print[ P_Cartesian ] 0
| 19> end
| 20> % elprop
| 21>     Dipole false
| 22> end
| 23> *xyz 1 1
| 24>  C        1.2552289120    -0.1891252847    -0.1422902677
| 25>  N        2.4521319198     0.4498286297     0.4792555716
| 26>  C        3.0372787190     1.5739301687    -0.2977440947
| 27>  C        4.2894179207     1.0350814879    -0.9748474353
| 28>  O        4.6758821787    -0.0769256848    -0.7383531358
| 29>  C        4.9545541204     1.9462719689    -1.8800339668
| 30>  N        5.4400751043     2.7153390941    -2.5843641592
| 31>  H        0.9522098671    -1.0319952856     0.4764652283
| 32>  H        1.5280644872    -0.5385492330    -1.1359978206
| 33>  H        0.4532375750     0.5439309997    -0.2011927521
| 34>  H        2.2312324761     0.7461576216     1.4297131731
| 35>  H        3.2134410870    -0.2524768712     0.5320687311
| 36>  H        2.3192716077     1.9485516344    -1.0295958349
| 37>  H        3.3068440251     2.3987707544     0.3668667631
| 38> *
| 39>
| 40>                          ****END OF INPUT****
 Total Charge           Charge          ....    1
 Multiplicity           Mult            ....    1
 Number of Electrons    NEL             ....   52
FINAL SINGLE POINT ENERGY      -340.799037224286

CARTESIAN COORDINATES (ANGSTROEM)
---------------------------------
  C      2.279587    1.362625   -0.750358
  N      1.812231    0.000160   -0.360117
  C      0.438563   -0.344156   -0.811598
  C     -0.466800   -0.224223    0.406028
  O      0.000474   -0.003344    1.489755
  C     -1.879882   -0.406731    0.157196
  N     -2.989528   -0.563816   -0.102064
  H      3.264559    1.528123   -0.317389
  H      1.575113    2.093964   -0.358486
  H      2.329135    1.422381   -1.835684
  H      2.481865   -0.699749   -0.679414
  H      1.765141   -0.050975    0.674605
  H      0.119647    0.325601   -1.612169
  H      0.406077   -1.368277   -1.192033

FINAL SINGLE POINT ENERGY      -340.799037867202
                    ***********************HURRAY********************
 Multiplicity           Mult            ....    1
 Number of Electrons    NEL             ....   52
 Basis Dimension        Dim             ....  259
FINAL SINGLE POINT ENERGY      -340.799037851933

VIBRATIONAL FREQUENCIES
-----------------------

   0:         0.00 cm**-1
   1:         0.00 cm**-1
   2:         0.00 cm**-1
   3:         0.00 cm**-1
   4:         0.00 cm**-1
   5:         0.00 cm**-1
   6:        40.33 cm**-1
   7:        87.25 cm**-1
   8:       143.84 cm**-1
   9:       226.15 cm**-1
  10:       259.41 cm**-1
  11:       329.35 cm**-1
  12:       374.02 cm**-1
  13:       506.61 cm**-1
  14:       566.11 cm**-1
  15:       610.82 cm**-1
  16:       783.23 cm**-1
  17:       882.40 cm**-1
  18:       923.36 cm**-1
  19:       982.38 cm**-1
  20:      1059.85 cm**-1
  21:      1140.12 cm**-1
  22:      1151.77 cm**-1
  23:      1190.49 cm**-1
  24:      1283.43 cm**-1
  25:      1351.33 cm**-1
  26:      1416.74 cm**-1
  27:      1441.61 cm**-1
  28:      1450.46 cm**-1
  29:      1472.95 cm**-1
  30:      1495.22 cm**-1
  31:      1497.62 cm**-1
  32:      1617.07 cm**-1
  33:      1820.20 cm**-1
  34:      2370.59 cm**-1
  35:      3091.04 cm**-1
  36:      3092.33 cm**-1
  37:      3149.09 cm**-1
  38:      3193.75 cm**-1
  39:      3196.95 cm**-1
  40:      3241.78 cm**-1
  41:      3495.75 cm**-1

IR SPECTRUM
-----------

 Mode    freq (cm**-1)   T**2         TX         TY         TZ
-------------------------------------------------------------------
   6:        40.33    4.357481  (  0.465512  -2.018426  -0.258333)
   7:        87.25    1.311545  (  0.087460  -0.595707  -0.974181)
   8:       143.84    1.450939  ( -1.144404   0.154928   0.342455)
   9:       226.15    8.221860  (  2.776333   0.003062  -0.716818)
  10:       259.41    9.309477  (  0.905782   2.808474  -0.775571)
  11:       329.35   61.452246  (  6.959200   0.182798  -3.603938)
  12:       374.02    0.683580  ( -0.438157   0.169747   0.680283)
  13:       506.61    4.519165  (  1.714973   0.380937   1.197047)
  14:       566.11    0.374349  ( -0.608429   0.061554   0.019350)
  15:       610.82    3.885868  (  1.864630   0.296666  -0.566580)
  16:       783.23   16.308854  ( -2.671462   0.498306   2.987279)
  17:       882.40   11.258133  ( -2.555137   1.832465   1.171102)
  18:       923.36    8.735691  ( -0.960997  -1.689788   2.226386)
  19:       982.38   19.347388  ( -3.585272  -2.547012  -0.077108)
  20:      1059.85   23.378729  (  4.188119   2.277940  -0.805839)
  21:      1140.12   75.154780  (  8.266200   0.559220  -2.551861)
  22:      1151.77    2.182397  (  1.189236   0.322724   0.814839)
  23:      1190.49   64.415659  ( -7.317892  -0.667124   3.227856)
  24:      1283.43    3.516055  (  1.831820  -0.318009  -0.243643)
  25:      1351.33   40.260902  (  5.605479  -0.606245  -2.910666)
  26:      1416.74   11.829574  ( -2.289364  -1.476061   2.099912)
  27:      1441.61   81.223568  ( -7.498583  -3.907736  -3.118401)
  28:      1450.46   11.923981  ( -0.823263   1.188576   3.135842)
  29:      1472.95   13.628209  ( -0.797589  -1.990585   3.004935)
  30:      1495.22   34.736573  ( -4.149813  -2.319509  -3.483605)
  31:      1497.62   31.553653  (  5.107360  -0.498114  -2.284821)
  32:      1617.07   81.317196  ( -6.866932   3.978643  -4.281687)
  33:      1820.20  124.318053  ( -5.212818  -2.281429  -9.588517)
  34:      2370.59  101.169321  (  9.904258   1.376045   1.086965)
  35:      3091.04    0.229779  ( -0.464920  -0.079708  -0.085295)
  36:      3092.33    8.986595  ( -1.128302   1.070678   2.562651)
  37:      3149.09    7.106946  (  0.613693  -2.540274   0.526625)
  38:      3193.75    1.025609  ( -0.951387   0.339094   0.074075)
  39:      3196.95    1.598572  ( -0.908824  -0.631726   0.611174)
  40:      3241.78  163.980038  ( -5.842637  -2.707831  11.068481)
  41:      3495.75  110.107611  ( -7.809060   5.899312   3.784748)

--------------------------
THERMOCHEMISTRY AT 298.15K
--------------------------

Temperature         ... 298.15 K
Pressure            ... 1.00 atm
Total Mass          ... 99.11 AMU

Throughout the following assumptions are being made:
  (1) The electronic state is orbitally nondegenerate
  (2) There are no thermally accessible electronically excited states
  (3) Hindered rotations indicated by low frequency modes) are not
      treated as such but are treated as vibrations and this may
      case some error
  (4) All equations used are the standard statistical mechanics
      equations for an ideal gas
  (5) All vibrations are strinctly harmonic

------------
INNER ENERGY
------------

The inner energy is: U= E(el) + E(ZPE) + E(vib) + E(rot) + E(trans)
    E(el)   - is the total energy from the electronic structure calculation
              = E(kin-el) + E(nuc-el) + E(el-el) + E(nuc-nuc)
    E(ZPE)  - the the zero temperature vibrational energy from the frequency calculation
    E(vib)  - the the finite temperature correction to E(ZPE) due to population
              of excietd vibrational states
    E(rot)  - is the rotational thermal energy
    E(trans)- is the translational thermal energy

Summary of contributions to the inner energy U:
Electronic energy                ...   -340.79903785 Eh
Zero point energy                ...      0.11603946 Eh      72.82 kcal/mol
Thermal vibrational correction   ...      0.00491471 Eh       3.08 kcal/mol
Thermal rotational correction    ...      0.00141627 Eh       0.89 kcal/mol
Thermal translational correction ...      0.00141627 Eh       0.89 kcal/mol
-----------------------------------------------------------------------
Total thermal energy                   -340.67525114 Eh

Summary of corrections to the electronic energy:
(perhaps to be used in another calculation)
Total thermal correction                  0.00774725 Eh       4.86 kcal/mol
Non-thermal (ZPE) correction              0.11603946 Eh      72.82 kcal/mol
-----------------------------------------------------------------------
Total correction                          0.12378671 Eh      77.68 kcal/mol

--------
ENTHALPY
--------

The enthalpy is H = U + kB*T
                kB is Boltzmann's constant
Total free energy                 ...   -340.67525114 Eh
Thermal Enthalpy correction       ...      0.00094421 Eh       0.59 kcal/mol
-----------------------------------------------------------------------
Total Enthalpy                    ...   -340.67430694 Eh

-------
ENTROPY
-------

The entropy contributions are T*S = T*(S(el)+S(vib)+S(rot)+S(trans)
     S(el)   - electronic entropy
     S(vib)  - vibrational entropy
     S(rot)  - rotational entropy
     S(trans)- translational entropy
The entropies will be listed as mutliplied by the temperature to get
units of energy

Electronic entropy                ...      0.00000000 Eh      0.00 kcal/mol
Vibrational entropy               ...      0.00958159 Eh      6.01 kcal/mol
Rotational entropy                ...      0.01211779 Eh      7.60 kcal/mol
Translational entropy             ...      0.01885862 Eh     11.83 kcal/mol
-----------------------------------------------------------------------
Final entropy term                ...      0.04055801 Eh     25.45 kcal/mol

CAUTION: The rotational entropy is not quite correctly treated here
         because it includes a symmetry number that is not yet correctly
         implemented in ORCA!
For a nonlinear molecule the correct rotational entropy is:
    S(rot) = R*(ln(qrot/sn)+1.5)
    R    = 8.31441 J/mol/K = 1.987191683e-3 kcal/mol/K
    qrot = 250897.1367982
    sn is the rotational symmetry number. We have assumed 3 here
       if it is different for your molecule then you should correct
       the printed rotational entropy by manually evaluating the equation
       as given above

For convenience we print out the resulting values for sn=1 - 12:
 sn= 1  qrot/sn=  250897.1368 T*S(rot)=     8.25 kcal/mol T*S(tot)=    26.10 kcal/mol
 sn= 2  qrot/sn=  125448.5684 T*S(rot)=     7.84 kcal/mol T*S(tot)=    25.69 kcal/mol
 sn= 3  qrot/sn=   83632.3789 T*S(rot)=     7.60 kcal/mol T*S(tot)=    25.45 kcal/mol
 sn= 4  qrot/sn=   62724.2842 T*S(rot)=     7.43 kcal/mol T*S(tot)=    25.28 kcal/mol
 sn= 5  qrot/sn=   50179.4274 T*S(rot)=     7.30 kcal/mol T*S(tot)=    25.15 kcal/mol
 sn= 6  qrot/sn=   41816.1895 T*S(rot)=     7.19 kcal/mol T*S(tot)=    25.04 kcal/mol
 sn= 7  qrot/sn=   35842.4481 T*S(rot)=     7.10 kcal/mol T*S(tot)=    24.95 kcal/mol
 sn= 8  qrot/sn=   31362.1421 T*S(rot)=     7.02 kcal/mol T*S(tot)=    24.87 kcal/mol
 sn= 9  qrot/sn=   27877.4596 T*S(rot)=     6.95 kcal/mol T*S(tot)=    24.80 kcal/mol
 sn=10  qrot/sn=   25089.7137 T*S(rot)=     6.89 kcal/mol T*S(tot)=    24.74 kcal/mol
 sn=11  qrot/sn=   22808.8306 T*S(rot)=     6.83 kcal/mol T*S(tot)=    24.68 kcal/mol
 sn=12  qrot/sn=   20908.0947 T*S(rot)=     6.78 kcal/mol T*S(tot)=    24.63 kcal/mol

-------------------
GIBBS FREE ENTHALPY
-------------------

The Gibbs free enthalpy is G = H - T*S

Total enthalpy                    ...   -340.67430694 Eh
Total entropy correction          ...     -0.04055801 Eh    -25.45 kcal/mol
-----------------------------------------------------------------------
Final Gibbs free enthalpy         ...   -340.71486494 Eh

For completeness - the Gibbs free enthalpy minus the electronic energy
G-E(el)                           ...      0.08417291 Eh     52.82 kcal/mol

                             ****ORCA TERMINATED NORMALLY****
TOTAL RUN TIME: 0 days 0 hours 31 minutes 40 seconds 669 msec
