                         Program Version 3.0.3 - RELEASE   -
|  1> ! NORI PBE0 def2-TZVP UseSym TightOPT Freq TightSCF Grid3 FinalGrid5 XYZFile
|  2> % pal
|  3>     nprocs 8
|  4> end
|  5> %method
|  6>     SymThresh 5.0e-2
|  7> end
|  8> % geom
|  9>     MaxIter 10
| 10> end
| 11> % maxcore 2000
| 12> % output
| 13>     printlevel mini
| 14>     print[ P_Basis ] 0
| 15>     print[ P_SCFInfo ] 1
| 16>     print[ P_SCFIterInfo ] 1
| 17>     print[ P_OrbEn ] 0
| 18>     print[ P_Cartesian ] 0
| 19> end
| 20> % elprop
| 21>     Dipole false
| 22> end
| 23> *xyz 1 1
| 24>  C        0.8724074072    -0.1013311865    -0.1129055048
| 25>  N        2.3560317992    -0.0023923582    -0.1398048852
| 26>  C        2.9060111962     1.2636014615     0.4251046730
| 27>  C        4.4227357028     1.1409653245     0.4912604994
| 28>  O        4.6611712371    -0.0067301340     1.2599215630
| 29>  C        4.9479656864     1.0020248310    -0.8768745861
| 30>  N        5.2656211584     0.8261197483    -1.9673077394
| 31>  H        0.5762490637    -1.0540793110    -0.5478949495
| 32>  H        0.4546618399     0.7199625697    -0.6918648160
| 33>  H        0.5373329425    -0.0422273095     0.9205733196
| 34>  H        2.6961515202    -0.1071992632    -1.1014115121
| 35>  H        2.7803251924    -0.7708591186     0.3921182472
| 36>  H        2.5056574966     1.3768468401     1.4324587798
| 37>  H        2.5871540619     2.0957872470    -0.2012184018
| 38>  H        4.8266877079     2.0526079359     0.9467342963
| 39>  H        5.6049859874    -0.1549272768     1.3877110166
| 40> *
| 41>
| 42>                          ****END OF INPUT****
 Total Charge           Charge          ....    1
 Multiplicity           Mult            ....    1
 Number of Electrons    NEL             ....   54
FINAL SINGLE POINT ENERGY      -342.028169480299

CARTESIAN COORDINATES (ANGSTROEM)
---------------------------------
  C      2.329015   -0.472365   -1.450771
  N      1.195423   -0.000347   -0.611415
  C      0.204519   -1.055559   -0.252000
  C     -0.786588   -0.464916    0.742471
  O     -0.000397    0.000035    1.805984
  C     -1.522283    0.628793    0.086792
  N     -1.996080    1.511686   -0.476202
  H      2.986404    0.369972   -1.657954
  H      1.933654   -0.875757   -2.380959
  H      2.869884   -1.243420   -0.905802
  H      0.703002    0.763418   -1.086626
  H      1.538167    0.394822    0.271753
  H      0.749517   -1.873570    0.219058
  H     -0.283401   -1.403975   -1.161506
  H     -1.490128   -1.250466    1.042044
  H     -0.544716    0.368617    2.511051

FINAL SINGLE POINT ENERGY      -342.028169882376
                    ***********************HURRAY********************
 Multiplicity           Mult            ....    1
 Number of Electrons    NEL             ....   54
 Basis Dimension        Dim             ....  271
FINAL SINGLE POINT ENERGY      -342.028170042458

VIBRATIONAL FREQUENCIES
-----------------------

   0:         0.00 cm**-1
   1:         0.00 cm**-1
   2:         0.00 cm**-1
   3:         0.00 cm**-1
   4:         0.00 cm**-1
   5:         0.00 cm**-1
   6:        66.12 cm**-1
   7:       108.77 cm**-1
   8:       164.52 cm**-1
   9:       200.59 cm**-1
  10:       238.21 cm**-1
  11:       284.14 cm**-1
  12:       339.75 cm**-1
  13:       359.87 cm**-1
  14:       451.91 cm**-1
  15:       590.30 cm**-1
  16:       699.38 cm**-1
  17:       814.34 cm**-1
  18:       843.32 cm**-1
  19:       931.39 cm**-1
  20:       975.70 cm**-1
  21:      1018.83 cm**-1
  22:      1053.89 cm**-1
  23:      1098.63 cm**-1
  24:      1154.90 cm**-1
  25:      1181.06 cm**-1
  26:      1247.39 cm**-1
  27:      1307.98 cm**-1
  28:      1347.81 cm**-1
  29:      1373.79 cm**-1
  30:      1395.25 cm**-1
  31:      1409.62 cm**-1
  32:      1440.19 cm**-1
  33:      1461.44 cm**-1
  34:      1483.30 cm**-1
  35:      1494.09 cm**-1
  36:      1497.20 cm**-1
  37:      1662.25 cm**-1
  38:      2377.05 cm**-1
  39:      3065.79 cm**-1
  40:      3093.04 cm**-1
  41:      3113.25 cm**-1
  42:      3180.80 cm**-1
  43:      3194.84 cm**-1
  44:      3196.29 cm**-1
  45:      3394.79 cm**-1
  46:      3437.42 cm**-1
  47:      3834.47 cm**-1

IR SPECTRUM
-----------

 Mode    freq (cm**-1)   T**2         TX         TY         TZ
-------------------------------------------------------------------
   6:        66.12    5.131564  (  2.005016  -0.173911  -1.039823)
   7:       108.77   10.531619  (  2.964182  -0.548644   1.201762)
   8:       164.52   23.591960  (  2.389304  -0.437959  -4.206112)
   9:       200.59    3.113409  (  1.502008   0.854141   0.357527)
  10:       238.21    6.507874  (  0.000931   0.746520  -2.439381)
  11:       284.14    5.237761  ( -0.003319   2.190941  -0.661460)
  12:       339.75  141.238593  (  0.222300  10.362410  -5.814605)
  13:       359.87    5.219909  (  0.988202  -0.778672  -1.907101)
  14:       451.91    6.013099  (  1.180175   1.662799   1.362125)
  15:       590.30    2.257442  (  0.154682   1.455734   0.338164)
  16:       699.38    8.475568  (  1.109408   1.000434   2.498782)
  17:       814.34    3.265156  (  1.137800   0.155631   1.395115)
  18:       843.32   14.937352  ( -0.741256   2.581879  -2.778811)
  19:       931.39   18.807079  (  3.326603   0.727017   2.685561)
  20:       975.70    3.302262  (  1.743546   0.477952  -0.184045)
  21:      1018.83   13.922944  (  0.620953  -2.934906  -2.218938)
  22:      1053.89    7.939692  (  1.731306   0.649562  -2.126109)
  23:      1098.63   65.989797  (  3.698915   2.756099   6.686684)
  24:      1154.90   17.093054  ( -2.151437  -0.848143   3.427102)
  25:      1181.06   11.550604  (  1.582069   0.056561   3.007402)
  26:      1247.39   44.563117  ( -4.695281  -0.206616  -4.740756)
  27:      1307.98    3.141954  ( -1.286647   0.127219  -1.212563)
  28:      1347.81   14.273414  ( -3.506997   0.643073  -1.249337)
  29:      1373.79   18.108965  ( -1.638548  -1.029678   3.789972)
  30:      1395.25   41.665051  ( -6.308337  -0.834055  -1.083646)
  31:      1409.62    9.028963  ( -0.790992  -1.158226   2.657406)
  32:      1440.19   55.791618  (  6.656513   0.804984  -3.291572)
  33:      1461.44    1.866176  (  1.229975   0.288840  -0.519526)
  34:      1483.30   31.461440  ( -4.179620   1.777106   3.291521)
  35:      1494.09   24.825968  (  3.395839  -0.025693   3.646037)
  36:      1497.20   33.278702  ( -2.738868  -4.862708   1.459921)
  37:      1662.25   45.586048  (  1.145592  -6.281765  -2.193877)
  38:      2377.05    3.592462  (  1.056984  -1.186878   1.032748)
  39:      3065.79    3.005651  ( -0.034941  -0.408818  -1.684428)
  40:      3093.04    0.119919  (  0.072614   0.330798   0.072244)
  41:      3113.25    0.187435  (  0.026295   0.430726  -0.034907)
  42:      3180.80    0.684124  ( -0.389114   0.059611  -0.727434)
  43:      3194.84    0.467595  (  0.219599   0.647588   0.001056)
  44:      3196.29    0.123083  (  0.177355  -0.236695   0.188689)
  45:      3394.79   69.375657  (  1.452567  -6.777003  -4.619300)
  46:      3437.42   92.592823  (  4.626505  -2.285046   8.121997)
  47:      3834.47  146.108027  ( -3.692435   3.972421  10.802491)

--------------------------
THERMOCHEMISTRY AT 298.15K
--------------------------

Temperature         ... 298.15 K
Pressure            ... 1.00 atm
Total Mass          ... 101.13 AMU

Throughout the following assumptions are being made:
  (1) The electronic state is orbitally nondegenerate
  (2) There are no thermally accessible electronically excited states
  (3) Hindered rotations indicated by low frequency modes) are not
      treated as such but are treated as vibrations and this may
      case some error
  (4) All equations used are the standard statistical mechanics
      equations for an ideal gas
  (5) All vibrations are strinctly harmonic

------------
INNER ENERGY
------------

The inner energy is: U= E(el) + E(ZPE) + E(vib) + E(rot) + E(trans)
    E(el)   - is the total energy from the electronic structure calculation
              = E(kin-el) + E(nuc-el) + E(el-el) + E(nuc-nuc)
    E(ZPE)  - the the zero temperature vibrational energy from the frequency calculation
    E(vib)  - the the finite temperature correction to E(ZPE) due to population
              of excietd vibrational states
    E(rot)  - is the rotational thermal energy
    E(trans)- is the translational thermal energy

Summary of contributions to the inner energy U:
Electronic energy                ...   -342.02817004 Eh
Zero point energy                ...      0.14029790 Eh      88.04 kcal/mol
Thermal vibrational correction   ...      0.00534918 Eh       3.36 kcal/mol
Thermal rotational correction    ...      0.00141627 Eh       0.89 kcal/mol
Thermal translational correction ...      0.00141627 Eh       0.89 kcal/mol
-----------------------------------------------------------------------
Total thermal energy                   -341.87969042 Eh

Summary of corrections to the electronic energy:
(perhaps to be used in another calculation)
Total thermal correction                  0.00818172 Eh       5.13 kcal/mol
Non-thermal (ZPE) correction              0.14029790 Eh      88.04 kcal/mol
-----------------------------------------------------------------------
Total correction                          0.14847962 Eh      93.17 kcal/mol

--------
ENTHALPY
--------

The enthalpy is H = U + kB*T
                kB is Boltzmann's constant
Total free energy                 ...   -341.87969042 Eh
Thermal Enthalpy correction       ...      0.00094421 Eh       0.59 kcal/mol
-----------------------------------------------------------------------
Total Enthalpy                    ...   -341.87874621 Eh

-------
ENTROPY
-------

The entropy contributions are T*S = T*(S(el)+S(vib)+S(rot)+S(trans)
     S(el)   - electronic entropy
     S(vib)  - vibrational entropy
     S(rot)  - rotational entropy
     S(trans)- translational entropy
The entropies will be listed as mutliplied by the temperature to get
units of energy

Electronic entropy                ...      0.00000000 Eh      0.00 kcal/mol
Vibrational entropy               ...      0.00975564 Eh      6.12 kcal/mol
Rotational entropy                ...      0.01219922 Eh      7.66 kcal/mol
Translational entropy             ...      0.01888714 Eh     11.85 kcal/mol
-----------------------------------------------------------------------
Final entropy term                ...      0.04084200 Eh     25.63 kcal/mol

CAUTION: The rotational entropy is not quite correctly treated here
         because it includes a symmetry number that is not yet correctly
         implemented in ORCA!
For a nonlinear molecule the correct rotational entropy is:
    S(rot) = R*(ln(qrot/sn)+1.5)
    R    = 8.31441 J/mol/K = 1.987191683e-3 kcal/mol/K
    qrot = 273494.6511018
    sn is the rotational symmetry number. We have assumed 3 here
       if it is different for your molecule then you should correct
       the printed rotational entropy by manually evaluating the equation
       as given above

For convenience we print out the resulting values for sn=1 - 12:
 sn= 1  qrot/sn=  273494.6511 T*S(rot)=     8.31 kcal/mol T*S(tot)=    26.28 kcal/mol
 sn= 2  qrot/sn=  136747.3256 T*S(rot)=     7.90 kcal/mol T*S(tot)=    25.87 kcal/mol
 sn= 3  qrot/sn=   91164.8837 T*S(rot)=     7.66 kcal/mol T*S(tot)=    25.63 kcal/mol
 sn= 4  qrot/sn=   68373.6628 T*S(rot)=     7.48 kcal/mol T*S(tot)=    25.46 kcal/mol
 sn= 5  qrot/sn=   54698.9302 T*S(rot)=     7.35 kcal/mol T*S(tot)=    25.33 kcal/mol
 sn= 6  qrot/sn=   45582.4419 T*S(rot)=     7.24 kcal/mol T*S(tot)=    25.22 kcal/mol
 sn= 7  qrot/sn=   39070.6644 T*S(rot)=     7.15 kcal/mol T*S(tot)=    25.13 kcal/mol
 sn= 8  qrot/sn=   34186.8314 T*S(rot)=     7.07 kcal/mol T*S(tot)=    25.05 kcal/mol
 sn= 9  qrot/sn=   30388.2946 T*S(rot)=     7.00 kcal/mol T*S(tot)=    24.98 kcal/mol
 sn=10  qrot/sn=   27349.4651 T*S(rot)=     6.94 kcal/mol T*S(tot)=    24.92 kcal/mol
 sn=11  qrot/sn=   24863.1501 T*S(rot)=     6.89 kcal/mol T*S(tot)=    24.86 kcal/mol
 sn=12  qrot/sn=   22791.2209 T*S(rot)=     6.83 kcal/mol T*S(tot)=    24.81 kcal/mol

-------------------
GIBBS FREE ENTHALPY
-------------------

The Gibbs free enthalpy is G = H - T*S

Total enthalpy                    ...   -341.87874621 Eh
Total entropy correction          ...     -0.04084200 Eh    -25.63 kcal/mol
-----------------------------------------------------------------------
Final Gibbs free enthalpy         ...   -341.91958821 Eh

For completeness - the Gibbs free enthalpy minus the electronic energy
G-E(el)                           ...      0.10858183 Eh     68.14 kcal/mol

                             ****ORCA TERMINATED NORMALLY****
TOTAL RUN TIME: 0 days 0 hours 34 minutes 40 seconds 151 msec
