                         Program Version 3.0.3 - RELEASE   -
|  1> ! NORI PBE0 def2-TZVP UseSym TightOPT Freq TightSCF Grid3 FinalGrid5 XYZFile
|  2> % pal
|  3>     nprocs 8
|  4> end
|  5> %method
|  6>     SymThresh 5.0e-2
|  7> end
|  8> % geom
|  9>     MaxIter 10
| 10> end
| 11> % maxcore 2000
| 12> % output
| 13>     printlevel mini
| 14>     print[ P_Basis ] 0
| 15>     print[ P_SCFInfo ] 1
| 16>     print[ P_SCFIterInfo ] 1
| 17>     print[ P_OrbEn ] 0
| 18>     print[ P_Cartesian ] 0
| 19> end
| 20> % elprop
| 21>     Dipole false
| 22> end
| 23> *xyz 1 1
| 24>  C        3.6506244403    -1.8020617003    -1.4228113881
| 25>  N        2.7460637539    -1.2342083792    -0.3793354834
| 26>  C        3.1965593764    -1.2964109607     1.0413430430
| 27>  C        2.4733864863    -2.5057242862     1.6509700555
| 28>  O        1.6234581863    -3.0552688955     1.0119051052
| 29>  C        4.6995876302    -1.3491801313     1.3286876673
| 30>  O        5.0507758618    -1.5178904254     2.4530493897
| 31>  H        3.0856815687    -1.8735261181    -2.3506721195
| 32>  H        3.9661050555    -2.7966151634    -1.1128717508
| 33>  H        4.5088561473    -1.1511681532    -1.5664662843
| 34>  H        1.8849721408    -1.8229849210    -0.3588333787
| 35>  H        2.4785648558    -0.2849772184    -0.6364494862
| 36>  H        2.8231592259    -0.4085482736     1.5652854905
| 37>  H        2.7823094578    -2.8000869134     2.6633355265
| 38>  H        5.4064758129    -1.2196484606     0.4904136132
| 39> *
| 40>
| 41>                          ****END OF INPUT****
 Total Charge           Charge          ....    1
 Multiplicity           Mult            ....    1
 Number of Electrons    NEL             ....   54
FINAL SINGLE POINT ENERGY      -361.875071876503
FINAL SINGLE POINT ENERGY      -361.875072883936
FINAL SINGLE POINT ENERGY      -361.875071844993
FINAL SINGLE POINT ENERGY      -361.875073890221

CARTESIAN COORDINATES (ANGSTROEM)
---------------------------------
  C     -1.940267   -0.971794   -0.501282
  N     -1.396547    0.321784    0.008250
  C      0.062740    0.579485   -0.165317
  C      0.705720    0.233056    1.184816
  O     -0.002112   -0.005256    2.120131
  C      0.793009   -0.112660   -1.319993
  O      1.975621    0.000990   -1.385023
  H     -2.948315   -1.088192   -0.107200
  H     -1.312821   -1.784349   -0.138680
  H     -1.970806   -0.962332   -1.587572
  H     -1.490989    0.310758    1.047259
  H     -1.950479    1.096028   -0.355838
  H      0.211832    1.654795   -0.319675
  H      1.804209    0.230155    1.216275
  H      0.201576   -0.681478   -2.058597

FINAL SINGLE POINT ENERGY      -361.875073872197
                    ***********************HURRAY********************
 Multiplicity           Mult            ....    1
 Number of Electrons    NEL             ....   54
 Basis Dimension        Dim             ....  265
FINAL SINGLE POINT ENERGY      -361.875074291790

VIBRATIONAL FREQUENCIES
-----------------------

   0:         0.00 cm**-1
   1:         0.00 cm**-1
   2:         0.00 cm**-1
   3:         0.00 cm**-1
   4:         0.00 cm**-1
   5:         0.00 cm**-1
   6:        60.02 cm**-1
   7:        87.01 cm**-1
   8:       166.05 cm**-1
   9:       199.73 cm**-1
  10:       244.37 cm**-1
  11:       283.65 cm**-1
  12:       345.48 cm**-1
  13:       485.13 cm**-1
  14:       517.72 cm**-1
  15:       689.98 cm**-1
  16:       792.34 cm**-1
  17:       849.05 cm**-1
  18:       883.59 cm**-1
  19:       954.33 cm**-1
  20:      1039.95 cm**-1
  21:      1065.17 cm**-1
  22:      1104.56 cm**-1
  23:      1158.93 cm**-1
  24:      1177.92 cm**-1
  25:      1236.01 cm**-1
  26:      1328.13 cm**-1
  27:      1358.09 cm**-1
  28:      1403.64 cm**-1
  29:      1414.23 cm**-1
  30:      1452.99 cm**-1
  31:      1464.35 cm**-1
  32:      1492.50 cm**-1
  33:      1504.92 cm**-1
  34:      1605.61 cm**-1
  35:      1828.38 cm**-1
  36:      1861.46 cm**-1
  37:      2994.12 cm**-1
  38:      3070.34 cm**-1
  39:      3076.45 cm**-1
  40:      3094.46 cm**-1
  41:      3141.61 cm**-1
  42:      3190.36 cm**-1
  43:      3205.58 cm**-1
  44:      3502.77 cm**-1

IR SPECTRUM
-----------

 Mode    freq (cm**-1)   T**2         TX         TY         TZ
-------------------------------------------------------------------
   6:        60.02    5.033484  (  0.074716   1.878721  -1.224054)
   7:        87.01    8.153506  (  0.476105  -2.555171   1.182341)
   8:       166.05    7.369758  (  0.878949  -2.547225   0.329925)
   9:       199.73   15.774309  ( -1.912523  -1.992317  -2.854337)
  10:       244.37    2.962669  (  0.610189  -1.556954  -0.407717)
  11:       283.65   14.026890  (  2.450614   1.543251   2.374817)
  12:       345.48   38.515798  ( -4.802162   1.711826  -3.539024)
  13:       485.13   19.462127  (  0.159501  -1.124942   4.262768)
  14:       517.72    5.811551  ( -2.347048  -0.127863  -0.535318)
  15:       689.98    3.536423  (  0.923286  -1.618949  -0.250939)
  16:       792.34   21.812781  (  3.167015  -2.453754   2.400394)
  17:       849.05   47.215342  ( -1.913884  -0.213871  -6.595957)
  18:       883.59   13.048145  ( -0.203230  -0.409072  -3.583225)
  19:       954.33   46.529478  ( -1.146534  -1.581337  -6.535619)
  20:      1039.95   55.570376  ( -1.044270   2.695843   6.871121)
  21:      1065.17    2.245025  ( -0.584837  -1.378944  -0.038769)
  22:      1104.56   16.397246  ( -1.917908  -2.057210   2.913205)
  23:      1158.93    7.479019  (  1.803357   0.651418  -1.950020)
  24:      1177.92   20.262819  (  2.696129  -0.087651   3.603613)
  25:      1236.01   21.760722  ( -1.838333   0.672237   4.234306)
  26:      1328.13    1.320020  ( -0.160198  -0.139444   1.129120)
  27:      1358.09    4.189593  ( -1.952158  -0.614175   0.038243)
  28:      1403.64    9.811489  (  0.397532   2.220249   2.173466)
  29:      1414.23    1.981183  (  0.880851  -0.970160   0.513881)
  30:      1452.99   51.339590  ( -7.150642  -0.304371  -0.339505)
  31:      1464.35   32.894894  ( -5.125303  -2.558833  -0.280238)
  32:      1492.50   60.611683  (  6.685231   1.955495  -3.477845)
  33:      1504.92   27.052864  (  4.542406  -1.140109   2.262646)
  34:      1605.61   66.040673  ( -5.713772   4.929945   3.014818)
  35:      1828.38  193.348728  (  7.134805   1.950133 -11.774560)
  36:      1861.46   75.509695  (  8.643074  -0.896294  -0.060226)
  37:      2994.12   27.980895  (  3.162680   2.594069   3.353975)
  38:      3070.34    9.657606  (  0.105946   3.053773   0.566440)
  39:      3076.45    5.222027  ( -1.075385   1.816010  -0.876174)
  40:      3094.46    2.696144  ( -0.354934  -0.168501   1.594294)
  41:      3141.61  191.131650  (  5.134052   0.940274  12.801915)
  42:      3190.36    1.175141  (  0.273764  -0.456265  -0.944466)
  43:      3205.58    2.728313  ( -0.235265   0.353671  -1.596208)
  44:      3502.77   99.835324  ( -6.245892   6.789425  -3.837690)

--------------------------
THERMOCHEMISTRY AT 298.15K
--------------------------

Temperature         ... 298.15 K
Pressure            ... 1.00 atm
Total Mass          ... 102.11 AMU

Throughout the following assumptions are being made:
  (1) The electronic state is orbitally nondegenerate
  (2) There are no thermally accessible electronically excited states
  (3) Hindered rotations indicated by low frequency modes) are not
      treated as such but are treated as vibrations and this may
      case some error
  (4) All equations used are the standard statistical mechanics
      equations for an ideal gas
  (5) All vibrations are strinctly harmonic

------------
INNER ENERGY
------------

The inner energy is: U= E(el) + E(ZPE) + E(vib) + E(rot) + E(trans)
    E(el)   - is the total energy from the electronic structure calculation
              = E(kin-el) + E(nuc-el) + E(el-el) + E(nuc-nuc)
    E(ZPE)  - the the zero temperature vibrational energy from the frequency calculation
    E(vib)  - the the finite temperature correction to E(ZPE) due to population
              of excietd vibrational states
    E(rot)  - is the rotational thermal energy
    E(trans)- is the translational thermal energy

Summary of contributions to the inner energy U:
Electronic energy                ...   -361.87507429 Eh
Zero point energy                ...      0.12605321 Eh      79.10 kcal/mol
Thermal vibrational correction   ...      0.00506101 Eh       3.18 kcal/mol
Thermal rotational correction    ...      0.00141627 Eh       0.89 kcal/mol
Thermal translational correction ...      0.00141627 Eh       0.89 kcal/mol
-----------------------------------------------------------------------
Total thermal energy                   -361.74112753 Eh

Summary of corrections to the electronic energy:
(perhaps to be used in another calculation)
Total thermal correction                  0.00789355 Eh       4.95 kcal/mol
Non-thermal (ZPE) correction              0.12605321 Eh      79.10 kcal/mol
-----------------------------------------------------------------------
Total correction                          0.13394676 Eh      84.05 kcal/mol

--------
ENTHALPY
--------

The enthalpy is H = U + kB*T
                kB is Boltzmann's constant
Total free energy                 ...   -361.74112753 Eh
Thermal Enthalpy correction       ...      0.00094421 Eh       0.59 kcal/mol
-----------------------------------------------------------------------
Total Enthalpy                    ...   -361.74018332 Eh

-------
ENTROPY
-------

The entropy contributions are T*S = T*(S(el)+S(vib)+S(rot)+S(trans)
     S(el)   - electronic entropy
     S(vib)  - vibrational entropy
     S(rot)  - rotational entropy
     S(trans)- translational entropy
The entropies will be listed as mutliplied by the temperature to get
units of energy

Electronic entropy                ...      0.00000000 Eh      0.00 kcal/mol
Vibrational entropy               ...      0.00951733 Eh      5.97 kcal/mol
Rotational entropy                ...      0.01214239 Eh      7.62 kcal/mol
Translational entropy             ...      0.01890086 Eh     11.86 kcal/mol
-----------------------------------------------------------------------
Final entropy term                ...      0.04056057 Eh     25.45 kcal/mol

CAUTION: The rotational entropy is not quite correctly treated here
         because it includes a symmetry number that is not yet correctly
         implemented in ORCA!
For a nonlinear molecule the correct rotational entropy is:
    S(rot) = R*(ln(qrot/sn)+1.5)
    R    = 8.31441 J/mol/K = 1.987191683e-3 kcal/mol/K
    qrot = 257518.2307051
    sn is the rotational symmetry number. We have assumed 3 here
       if it is different for your molecule then you should correct
       the printed rotational entropy by manually evaluating the equation
       as given above

For convenience we print out the resulting values for sn=1 - 12:
 sn= 1  qrot/sn=  257518.2307 T*S(rot)=     8.27 kcal/mol T*S(tot)=    26.10 kcal/mol
 sn= 2  qrot/sn=  128759.1154 T*S(rot)=     7.86 kcal/mol T*S(tot)=    25.69 kcal/mol
 sn= 3  qrot/sn=   85839.4102 T*S(rot)=     7.62 kcal/mol T*S(tot)=    25.45 kcal/mol
 sn= 4  qrot/sn=   64379.5577 T*S(rot)=     7.45 kcal/mol T*S(tot)=    25.28 kcal/mol
 sn= 5  qrot/sn=   51503.6461 T*S(rot)=     7.32 kcal/mol T*S(tot)=    25.15 kcal/mol
 sn= 6  qrot/sn=   42919.7051 T*S(rot)=     7.21 kcal/mol T*S(tot)=    25.04 kcal/mol
 sn= 7  qrot/sn=   36788.3187 T*S(rot)=     7.12 kcal/mol T*S(tot)=    24.95 kcal/mol
 sn= 8  qrot/sn=   32189.7788 T*S(rot)=     7.04 kcal/mol T*S(tot)=    24.87 kcal/mol
 sn= 9  qrot/sn=   28613.1367 T*S(rot)=     6.97 kcal/mol T*S(tot)=    24.80 kcal/mol
 sn=10  qrot/sn=   25751.8231 T*S(rot)=     6.91 kcal/mol T*S(tot)=    24.74 kcal/mol
 sn=11  qrot/sn=   23410.7482 T*S(rot)=     6.85 kcal/mol T*S(tot)=    24.68 kcal/mol
 sn=12  qrot/sn=   21459.8526 T*S(rot)=     6.80 kcal/mol T*S(tot)=    24.63 kcal/mol

-------------------
GIBBS FREE ENTHALPY
-------------------

The Gibbs free enthalpy is G = H - T*S

Total enthalpy                    ...   -361.74018332 Eh
Total entropy correction          ...     -0.04056057 Eh    -25.45 kcal/mol
-----------------------------------------------------------------------
Final Gibbs free enthalpy         ...   -361.78074389 Eh

For completeness - the Gibbs free enthalpy minus the electronic energy
G-E(el)                           ...      0.09433040 Eh     59.19 kcal/mol

                             ****ORCA TERMINATED NORMALLY****
TOTAL RUN TIME: 0 days 0 hours 42 minutes 13 seconds 688 msec
