                         Program Version 3.0.3 - RELEASE   -
|  1> ! NORI PBE0 def2-TZVP UseSym TightOPT Freq TightSCF Grid3 FinalGrid5 XYZFile
|  2> % pal
|  3>     nprocs 8
|  4> end
|  5> %method
|  6>     SymThresh 5.0e-2
|  7> end
|  8> % geom
|  9>     MaxIter 10
| 10> end
| 11> % maxcore 2000
| 12> % output
| 13>     printlevel mini
| 14>     print[ P_Basis ] 0
| 15>     print[ P_SCFInfo ] 1
| 16>     print[ P_SCFIterInfo ] 1
| 17>     print[ P_OrbEn ] 0
| 18>     print[ P_Cartesian ] 0
| 19> end
| 20> % elprop
| 21>     Dipole false
| 22> end
| 23> *xyz 1 1
| 24>  C        2.6639046405     0.5688758685     0.1997865814
| 25>  N        3.7813873744     0.8046846613    -0.7463888098
| 26>  C        4.0172897228    -0.2824372388    -1.7575667832
| 27>  C        3.0760554464     0.0317722811    -2.9325403190
| 28>  O        3.0262175773     1.4182691362    -3.1643338088
| 29>  C        5.4806530027    -0.2921989049    -2.1461688066
| 30>  O        5.7790897617     0.9768104102    -2.6837536957
| 31>  H        2.5491221875     1.4446754744     0.8362870433
| 32>  H        2.8862661626    -0.3071595464     0.8059704017
| 33>  H        1.7491058682     0.4102910418    -0.3671141740
| 34>  H        3.5716608089     1.6290945652    -1.3392573151
| 35>  H        4.6414364994     1.0043414905    -0.2365168824
| 36>  H        3.7616625706    -1.2387667976    -1.2968885719
| 37>  H        3.4039123344    -0.5297675046    -3.8110497986
| 38>  H        2.0566345661    -0.2844734875    -2.7033898137
| 39>  H        3.8207912727     1.6825608757    -3.6439654098
| 40>  H        6.1053251639    -0.5144316395    -1.2695445473
| 41>  H        5.6325326343    -1.0985890413    -2.8729022311
| 42>  H        6.6987824056     1.0115383560    -2.9632930593
| 43> *
| 44>
| 45>                          ****END OF INPUT****
 Total Charge           Charge          ....    1
 Multiplicity           Mult            ....    1
 Number of Electrons    NEL             ....   58
FINAL SINGLE POINT ENERGY      -364.333690614523
FINAL SINGLE POINT ENERGY      -364.333692361406
FINAL SINGLE POINT ENERGY      -364.333693443009

CARTESIAN COORDINATES (ANGSTROEM)
---------------------------------
  C     -2.054330   -1.226419   -0.704680
  N     -0.615522   -0.911462   -0.530574
  C     -0.271079    0.551733   -0.508104
  C     -0.456384    0.999245    0.951603
  O     -0.002592    0.000914    1.832913
  C      1.141146    0.739388   -1.020681
  O      1.994740   -0.004281   -0.180370
  H     -2.191270   -2.304299   -0.638316
  H     -2.384392   -0.866995   -1.677435
  H     -2.619146   -0.739033    0.086957
  H     -0.293740   -1.238867    0.399028
  H     -0.058144   -1.394068   -1.234810
  H     -0.964528    1.075950   -1.168768
  H      0.054442    1.954342    1.099394
  H     -1.513739    1.155394    1.173379
  H      0.960689    0.038673    1.877626
  H      1.213995    0.405689   -2.065633
  H      1.368086    1.811570   -1.000853
  H      2.908698    0.094318   -0.463637

FINAL SINGLE POINT ENERGY      -364.333693696878
                    ***********************HURRAY********************
 Multiplicity           Mult            ....    1
 Number of Electrons    NEL             ....   58
 Basis Dimension        Dim             ....  289
FINAL SINGLE POINT ENERGY      -364.333693821049

VIBRATIONAL FREQUENCIES
-----------------------

   0:         0.00 cm**-1
   1:         0.00 cm**-1
   2:         0.00 cm**-1
   3:         0.00 cm**-1
   4:         0.00 cm**-1
   5:         0.00 cm**-1
   6:        71.44 cm**-1
   7:        96.16 cm**-1
   8:       148.95 cm**-1
   9:       205.03 cm**-1
  10:       225.38 cm**-1
  11:       321.41 cm**-1
  12:       334.23 cm**-1
  13:       347.46 cm**-1
  14:       381.97 cm**-1
  15:       503.52 cm**-1
  16:       515.34 cm**-1
  17:       713.96 cm**-1
  18:       802.53 cm**-1
  19:       865.58 cm**-1
  20:       935.08 cm**-1
  21:       950.17 cm**-1
  22:       993.64 cm**-1
  23:      1046.73 cm**-1
  24:      1077.20 cm**-1
  25:      1104.04 cm**-1
  26:      1122.20 cm**-1
  27:      1164.18 cm**-1
  28:      1180.63 cm**-1
  29:      1212.46 cm**-1
  30:      1246.25 cm**-1
  31:      1267.11 cm**-1
  32:      1327.33 cm**-1
  33:      1363.64 cm**-1
  34:      1381.63 cm**-1
  35:      1413.11 cm**-1
  36:      1418.36 cm**-1
  37:      1439.69 cm**-1
  38:      1460.03 cm**-1
  39:      1464.02 cm**-1
  40:      1495.14 cm**-1
  41:      1495.20 cm**-1
  42:      1503.10 cm**-1
  43:      1519.82 cm**-1
  44:      1627.04 cm**-1
  45:      3011.69 cm**-1
  46:      3068.89 cm**-1
  47:      3078.13 cm**-1
  48:      3093.17 cm**-1
  49:      3116.23 cm**-1
  50:      3129.85 cm**-1
  51:      3189.50 cm**-1
  52:      3196.34 cm**-1
  53:      3238.02 cm**-1
  54:      3495.17 cm**-1
  55:      3812.86 cm**-1
  56:      3857.75 cm**-1

IR SPECTRUM
-----------

 Mode    freq (cm**-1)   T**2         TX         TY         TZ
-------------------------------------------------------------------
   6:        71.44    0.472355  (  0.262917  -0.007231  -0.634963)
   7:        96.16    5.046422  ( -1.483038  -1.266790  -1.114569)
   8:       148.95   21.952968  (  1.432867   0.715726   4.403135)
   9:       205.03    1.826916  ( -0.570879  -1.097030  -0.545471)
  10:       225.38    7.329713  (  2.653158   0.000744   0.538949)
  11:       321.41   25.105597  ( -0.779660  -2.554893  -4.239133)
  12:       334.23    8.686680  ( -2.333096   1.539274   0.934866)
  13:       347.46   20.238999  (  0.798245   3.690070   2.446464)
  14:       381.97   72.379718  (  1.025401   7.433429   4.009040)
  15:       503.52  121.982379  ( -0.888407  -4.901337  -9.857485)
  16:       515.34   72.935853  ( -1.256470   5.280700   6.593280)
  17:       713.96    3.754071  (  1.409795  -0.776841   1.078455)
  18:       802.53   21.753254  (  0.289598   3.508336   3.059570)
  19:       865.58   26.280315  ( -0.483829  -0.741893  -5.049339)
  20:       935.08   11.127993  ( -0.642068   1.991991  -2.597636)
  21:       950.17    1.614252  (  1.164541  -0.497830  -0.101298)
  22:       993.64    8.848358  (  0.268429   1.364212  -2.629682)
  23:      1046.73   20.026907  ( -4.338792  -0.699633  -0.843979)
  24:      1077.20    9.687106  (  2.018868   2.346266  -0.326055)
  25:      1104.04   19.744022  ( -1.220376  -2.883802   3.152522)
  26:      1122.20  145.437458  ( -5.684523   6.863004  -8.125443)
  27:      1164.18   15.617169  ( -1.415625  -0.819577  -3.597425)
  28:      1180.63    2.931727  ( -1.646205  -0.415236  -0.222072)
  29:      1212.46   26.296750  ( -1.908603   4.061591  -2.481424)
  30:      1246.25   34.706026  ( -3.188882   2.721696  -4.138771)
  31:      1267.11    0.824051  (  0.350050  -0.752239  -0.368311)
  32:      1327.33    2.189922  (  0.953369  -1.066420  -0.379153)
  33:      1363.64   26.024074  (  0.306491   4.349915  -2.647333)
  34:      1381.63    3.952289  (  0.191778   0.788269   1.814977)
  35:      1413.11   22.869274  (  1.117934  -1.085576   4.521175)
  36:      1418.36   10.005840  (  1.070835  -2.287657   1.904147)
  37:      1439.69   67.527853  ( -4.440005  -6.837899  -1.028274)
  38:      1460.03    1.018756  ( -0.170233  -0.112683   0.988473)
  39:      1464.02   22.763975  (  3.874054   2.359753   1.478936)
  40:      1495.14   28.483205  (  1.076476   5.044504  -1.370178)
  41:      1495.20    8.859096  ( -1.119671  -2.373523  -1.404216)
  42:      1503.10   26.222050  ( -1.367769   2.558905   4.219392)
  43:      1519.82    3.000425  (  1.067774   1.100518  -0.805695)
  44:      1627.04   50.129776  (  4.199741  -5.228696  -2.269952)
  45:      3011.69   25.536294  (  0.997735  -0.724359   4.900625)
  46:      3068.89    6.626425  ( -0.128894   2.366854   1.003900)
  47:      3078.13   13.524541  (  1.492012  -3.360371  -0.079690)
  48:      3093.17    1.123983  ( -0.797073   0.214310  -0.665379)
  49:      3116.23    2.768565  ( -0.146763   0.853345  -1.420855)
  50:      3129.85    7.187564  ( -2.571336  -0.755252  -0.073395)
  51:      3189.50    2.605263  ( -0.519556  -0.169488  -1.518749)
  52:      3196.34    0.934684  ( -0.410940  -0.027994  -0.874659)
  53:      3238.02  185.600190  (  5.331902   0.295053  12.533314)
  54:      3495.17   62.224073  (  3.290942  -3.838680  -6.054610)
  55:      3812.86  105.104444  ( 10.008537  -0.745990   2.092161)
  56:      3857.75  111.264028  ( 10.469612  -0.306848  -1.247835)

--------------------------
THERMOCHEMISTRY AT 298.15K
--------------------------

Temperature         ... 298.15 K
Pressure            ... 1.00 atm
Total Mass          ... 106.14 AMU

Throughout the following assumptions are being made:
  (1) The electronic state is orbitally nondegenerate
  (2) There are no thermally accessible electronically excited states
  (3) Hindered rotations indicated by low frequency modes) are not
      treated as such but are treated as vibrations and this may
      case some error
  (4) All equations used are the standard statistical mechanics
      equations for an ideal gas
  (5) All vibrations are strinctly harmonic

------------
INNER ENERGY
------------

The inner energy is: U= E(el) + E(ZPE) + E(vib) + E(rot) + E(trans)
    E(el)   - is the total energy from the electronic structure calculation
              = E(kin-el) + E(nuc-el) + E(el-el) + E(nuc-nuc)
    E(ZPE)  - the the zero temperature vibrational energy from the frequency calculation
    E(vib)  - the the finite temperature correction to E(ZPE) due to population
              of excietd vibrational states
    E(rot)  - is the rotational thermal energy
    E(trans)- is the translational thermal energy

Summary of contributions to the inner energy U:
Electronic energy                ...   -364.33369382 Eh
Zero point energy                ...      0.17548353 Eh     110.12 kcal/mol
Thermal vibrational correction   ...      0.00579437 Eh       3.64 kcal/mol
Thermal rotational correction    ...      0.00141627 Eh       0.89 kcal/mol
Thermal translational correction ...      0.00141627 Eh       0.89 kcal/mol
-----------------------------------------------------------------------
Total thermal energy                   -364.14958338 Eh

Summary of corrections to the electronic energy:
(perhaps to be used in another calculation)
Total thermal correction                  0.00862691 Eh       5.41 kcal/mol
Non-thermal (ZPE) correction              0.17548353 Eh     110.12 kcal/mol
-----------------------------------------------------------------------
Total correction                          0.18411044 Eh     115.53 kcal/mol

--------
ENTHALPY
--------

The enthalpy is H = U + kB*T
                kB is Boltzmann's constant
Total free energy                 ...   -364.14958338 Eh
Thermal Enthalpy correction       ...      0.00094421 Eh       0.59 kcal/mol
-----------------------------------------------------------------------
Total Enthalpy                    ...   -364.14863917 Eh

-------
ENTROPY
-------

The entropy contributions are T*S = T*(S(el)+S(vib)+S(rot)+S(trans)
     S(el)   - electronic entropy
     S(vib)  - vibrational entropy
     S(rot)  - rotational entropy
     S(trans)- translational entropy
The entropies will be listed as mutliplied by the temperature to get
units of energy

Electronic entropy                ...      0.00000000 Eh      0.00 kcal/mol
Vibrational entropy               ...      0.01045193 Eh      6.56 kcal/mol
Rotational entropy                ...      0.01215582 Eh      7.63 kcal/mol
Translational entropy             ...      0.01895570 Eh     11.89 kcal/mol
-----------------------------------------------------------------------
Final entropy term                ...      0.04156345 Eh     26.08 kcal/mol

CAUTION: The rotational entropy is not quite correctly treated here
         because it includes a symmetry number that is not yet correctly
         implemented in ORCA!
For a nonlinear molecule the correct rotational entropy is:
    S(rot) = R*(ln(qrot/sn)+1.5)
    R    = 8.31441 J/mol/K = 1.987191683e-3 kcal/mol/K
    qrot = 261209.0841571
    sn is the rotational symmetry number. We have assumed 3 here
       if it is different for your molecule then you should correct
       the printed rotational entropy by manually evaluating the equation
       as given above

For convenience we print out the resulting values for sn=1 - 12:
 sn= 1  qrot/sn=  261209.0842 T*S(rot)=     8.28 kcal/mol T*S(tot)=    26.73 kcal/mol
 sn= 2  qrot/sn=  130604.5421 T*S(rot)=     7.87 kcal/mol T*S(tot)=    26.32 kcal/mol
 sn= 3  qrot/sn=   87069.6947 T*S(rot)=     7.63 kcal/mol T*S(tot)=    26.08 kcal/mol
 sn= 4  qrot/sn=   65302.2710 T*S(rot)=     7.46 kcal/mol T*S(tot)=    25.91 kcal/mol
 sn= 5  qrot/sn=   52241.8168 T*S(rot)=     7.33 kcal/mol T*S(tot)=    25.78 kcal/mol
 sn= 6  qrot/sn=   43534.8474 T*S(rot)=     7.22 kcal/mol T*S(tot)=    25.67 kcal/mol
 sn= 7  qrot/sn=   37315.5835 T*S(rot)=     7.13 kcal/mol T*S(tot)=    25.58 kcal/mol
 sn= 8  qrot/sn=   32651.1355 T*S(rot)=     7.05 kcal/mol T*S(tot)=    25.50 kcal/mol
 sn= 9  qrot/sn=   29023.2316 T*S(rot)=     6.98 kcal/mol T*S(tot)=    25.43 kcal/mol
 sn=10  qrot/sn=   26120.9084 T*S(rot)=     6.91 kcal/mol T*S(tot)=    25.37 kcal/mol
 sn=11  qrot/sn=   23746.2804 T*S(rot)=     6.86 kcal/mol T*S(tot)=    25.31 kcal/mol
 sn=12  qrot/sn=   21767.4237 T*S(rot)=     6.81 kcal/mol T*S(tot)=    25.26 kcal/mol

-------------------
GIBBS FREE ENTHALPY
-------------------

The Gibbs free enthalpy is G = H - T*S

Total enthalpy                    ...   -364.14863917 Eh
Total entropy correction          ...     -0.04156345 Eh    -26.08 kcal/mol
-----------------------------------------------------------------------
Final Gibbs free enthalpy         ...   -364.19020262 Eh

For completeness - the Gibbs free enthalpy minus the electronic energy
G-E(el)                           ...      0.14349120 Eh     90.04 kcal/mol

                             ****ORCA TERMINATED NORMALLY****
TOTAL RUN TIME: 0 days 0 hours 56 minutes 7 seconds 973 msec
