                         Program Version 3.0.3 - RELEASE   -
|  1> ! NORI PBE0 def2-TZVP UseSym TightOPT Freq TightSCF Grid3 FinalGrid5 XYZFile
|  2> % pal
|  3>     nprocs 8
|  4> end
|  5> %method
|  6>     SymThresh 5.0e-2
|  7> end
|  8> % geom
|  9>     MaxIter 10
| 10> end
| 11> % maxcore 2000
| 12> % output
| 13>     printlevel mini
| 14>     print[ P_Basis ] 0
| 15>     print[ P_SCFInfo ] 1
| 16>     print[ P_SCFIterInfo ] 1
| 17>     print[ P_OrbEn ] 0
| 18>     print[ P_Cartesian ] 0
| 19> end
| 20> % elprop
| 21>     Dipole false
| 22> end
| 23> *xyz 1 1
| 24>  C        2.4325818400    -0.7317300005    -1.1997507725
| 25>  N        3.2321091773    -0.1959907291    -0.0737341360
| 26>  C        3.4068567931     1.2808974068    -0.0171723447
| 27>  C        2.3983812307     1.8890926098     0.9422685981
| 28>  O        2.4651874688     1.0835077161     2.0927131814
| 29>  C        4.8545342027     1.5102477548     0.4106962676
| 30>  O        5.6282454217     0.5978404251     0.4480620206
| 31>  H        2.3624022030    -1.8132139955    -1.0959459966
| 32>  H        2.9296416879    -0.4829630606    -2.1357116690
| 33>  H        1.4365467987    -0.2945762034    -1.1762438784
| 34>  H        4.1980968926    -0.5727936781    -0.0696035016
| 35>  H        2.8227027084    -0.4575866947     0.8336113867
| 36>  H        3.2805764719     1.7006214259    -1.0203301702
| 37>  H        1.3954973370     1.8906405979     0.4983014644
| 38>  H        2.6825046125     2.9299793612     1.1357695567
| 39>  H        1.8596307133     1.3951358690     2.7721037844
| 40>  H        5.1377044404     2.5473611953     0.6542962092
| 41> *
| 42>
| 43>                          ****END OF INPUT****
 Total Charge           Charge          ....    1
 Multiplicity           Mult            ....    1
 Number of Electrons    NEL             ....   56
FINAL SINGLE POINT ENERGY      -363.115755723011
FINAL SINGLE POINT ENERGY      -363.115756172956
FINAL SINGLE POINT ENERGY      -363.115756952324

CARTESIAN COORDINATES (ANGSTROEM)
---------------------------------
  C     -1.710965   -1.303875   -1.092570
  N     -0.446896   -0.883374   -0.444548
  C     -0.251082    0.577977   -0.239986
  C     -0.628228    0.961196    1.181096
  O     -0.002385   -0.001031    1.992619
  C      1.215967    0.848579   -0.565109
  O      1.892330    0.000093   -1.070605
  H     -1.730159   -2.390738   -1.150362
  H     -1.752056   -0.880860   -2.094485
  H     -2.554612   -0.952206   -0.501600
  H      0.385105   -1.183783   -0.985408
  H     -0.345794   -1.306235    0.488200
  H     -0.863285    1.131065   -0.959537
  H     -1.717478    0.957678    1.305047
  H     -0.269953    1.978827    1.375904
  H     -0.182511    0.158134    2.924058
  H      1.594546    1.857087   -0.330184

FINAL SINGLE POINT ENERGY      -363.115757668843
                    ***********************HURRAY********************
 Multiplicity           Mult            ....    1
 Number of Electrons    NEL             ....   56
 Basis Dimension        Dim             ....  277
FINAL SINGLE POINT ENERGY      -363.115757962929

VIBRATIONAL FREQUENCIES
-----------------------

   0:         0.00 cm**-1
   1:         0.00 cm**-1
   2:         0.00 cm**-1
   3:         0.00 cm**-1
   4:         0.00 cm**-1
   5:         0.00 cm**-1
   6:        81.42 cm**-1
   7:       106.86 cm**-1
   8:       153.36 cm**-1
   9:       203.79 cm**-1
  10:       256.63 cm**-1
  11:       290.89 cm**-1
  12:       323.29 cm**-1
  13:       337.53 cm**-1
  14:       411.58 cm**-1
  15:       627.83 cm**-1
  16:       686.66 cm**-1
  17:       800.72 cm**-1
  18:       881.33 cm**-1
  19:       925.85 cm**-1
  20:       971.16 cm**-1
  21:      1028.76 cm**-1
  22:      1061.52 cm**-1
  23:      1093.00 cm**-1
  24:      1133.58 cm**-1
  25:      1164.01 cm**-1
  26:      1191.82 cm**-1
  27:      1232.26 cm**-1
  28:      1259.33 cm**-1
  29:      1307.76 cm**-1
  30:      1337.00 cm**-1
  31:      1376.66 cm**-1
  32:      1398.20 cm**-1
  33:      1432.52 cm**-1
  34:      1447.51 cm**-1
  35:      1467.32 cm**-1
  36:      1495.49 cm**-1
  37:      1498.38 cm**-1
  38:      1519.03 cm**-1
  39:      1666.50 cm**-1
  40:      1842.25 cm**-1
  41:      3024.98 cm**-1
  42:      3035.52 cm**-1
  43:      3078.99 cm**-1
  44:      3090.38 cm**-1
  45:      3091.09 cm**-1
  46:      3189.39 cm**-1
  47:      3191.51 cm**-1
  48:      3238.85 cm**-1
  49:      3361.08 cm**-1
  50:      3860.85 cm**-1

IR SPECTRUM
-----------

 Mode    freq (cm**-1)   T**2         TX         TY         TZ
-------------------------------------------------------------------
   6:        81.42    0.206007  ( -0.160668   0.350077  -0.240082)
   7:       106.86    8.174995  ( -1.988672  -1.221522  -1.651685)
   8:       153.36    3.081413  ( -0.078410  -1.695473   0.447924)
   9:       203.79    3.980077  ( -1.438625  -1.160637   0.750572)
  10:       256.63   25.395535  ( -3.601865  -1.925999  -2.951716)
  11:       290.89    4.908594  (  2.026280  -0.280181   0.851048)
  12:       323.29  115.453607  ( -8.817017  -5.704699  -2.273813)
  13:       337.53   56.004676  ( -5.179630  -3.648278   3.983238)
  14:       411.58    1.776329  ( -0.785665   1.035449   0.294797)
  15:       627.83   10.373616  (  0.038113   2.529895  -1.992936)
  16:       686.66    5.025831  ( -1.839061  -0.180245   1.269330)
  17:       800.72   12.324415  ( -2.988377  -1.648188  -0.823100)
  18:       881.33   27.296876  ( -2.480360   0.155024   4.595722)
  19:       925.85   18.608712  (  3.406505   1.118461  -2.398641)
  20:       971.16   15.273840  ( -1.237564   1.748872  -3.268596)
  21:      1028.76   19.427579  ( -0.667373   4.201859  -1.151769)
  22:      1061.52    6.120034  (  1.978934   1.207723   0.863285)
  23:      1093.00   42.578416  ( -0.195863  -3.334297   5.605579)
  24:      1133.58   37.628706  (  3.009683  -4.398480   3.037086)
  25:      1164.01   13.850082  ( -2.973557  -0.229789  -2.226036)
  26:      1191.82   20.819285  ( -4.389316  -1.242161  -0.101132)
  27:      1232.26   24.493073  ( -2.071340   4.291669  -1.335740)
  28:      1259.33   13.190620  ( -2.623945   2.475028  -0.423994)
  29:      1307.76   27.792582  ( -5.197334   0.193234  -0.861951)
  30:      1337.00   30.526204  (  1.869544   5.199135  -0.000485)
  31:      1376.66    7.538458  ( -1.546774  -2.184106   0.612885)
  32:      1398.20    4.707975  ( -0.056722  -1.770457   1.253093)
  33:      1432.52   55.551368  (  3.915528   5.799487   2.566313)
  34:      1447.51   34.465962  (  0.826288   5.276505   2.437560)
  35:      1467.32   25.404826  ( -2.824438  -3.240680  -2.631610)
  36:      1495.49   32.576518  (  0.528930  -4.698308  -3.197288)
  37:      1498.38   29.109731  (  1.859223   4.723755  -1.827337)
  38:      1519.03   13.310259  ( -1.151943   2.208800   2.665424)
  39:      1666.50   43.286765  ( -4.376276   4.856799  -0.739241)
  40:      1842.25  115.095200  ( -8.226846   4.946759   4.789967)
  41:      3024.98   15.300227  ( -1.651126  -3.479393  -0.683985)
  42:      3035.52   19.558835  ( -3.170294   2.960119  -0.863577)
  43:      3078.99    8.548863  ( -2.362402  -1.720694   0.084453)
  44:      3090.38    2.042673  ( -1.424550   0.000091  -0.115455)
  45:      3091.09    0.413884  (  0.631125  -0.103211   0.070086)
  46:      3189.39    1.228358  (  0.982871   0.359248  -0.365052)
  47:      3191.51    1.729993  ( -1.139321  -0.094569   0.650383)
  48:      3238.85  176.635194  ( 12.746854   1.091034  -3.600355)
  49:      3361.08  141.655728  (  0.201636  -2.375765  11.660652)
  50:      3860.85  145.860187  (  0.557178   0.031881 -12.064358)

--------------------------
THERMOCHEMISTRY AT 298.15K
--------------------------

Temperature         ... 298.15 K
Pressure            ... 1.00 atm
Total Mass          ... 104.13 AMU

Throughout the following assumptions are being made:
  (1) The electronic state is orbitally nondegenerate
  (2) There are no thermally accessible electronically excited states
  (3) Hindered rotations indicated by low frequency modes) are not
      treated as such but are treated as vibrations and this may
      case some error
  (4) All equations used are the standard statistical mechanics
      equations for an ideal gas
  (5) All vibrations are strinctly harmonic

------------
INNER ENERGY
------------

The inner energy is: U= E(el) + E(ZPE) + E(vib) + E(rot) + E(trans)
    E(el)   - is the total energy from the electronic structure calculation
              = E(kin-el) + E(nuc-el) + E(el-el) + E(nuc-nuc)
    E(ZPE)  - the the zero temperature vibrational energy from the frequency calculation
    E(vib)  - the the finite temperature correction to E(ZPE) due to population
              of excietd vibrational states
    E(rot)  - is the rotational thermal energy
    E(trans)- is the translational thermal energy

Summary of contributions to the inner energy U:
Electronic energy                ...   -363.11575796 Eh
Zero point energy                ...      0.15075651 Eh      94.60 kcal/mol
Thermal vibrational correction   ...      0.00539547 Eh       3.39 kcal/mol
Thermal rotational correction    ...      0.00141627 Eh       0.89 kcal/mol
Thermal translational correction ...      0.00141627 Eh       0.89 kcal/mol
-----------------------------------------------------------------------
Total thermal energy                   -362.95677344 Eh

Summary of corrections to the electronic energy:
(perhaps to be used in another calculation)
Total thermal correction                  0.00822801 Eh       5.16 kcal/mol
Non-thermal (ZPE) correction              0.15075651 Eh      94.60 kcal/mol
-----------------------------------------------------------------------
Total correction                          0.15898452 Eh      99.76 kcal/mol

--------
ENTHALPY
--------

The enthalpy is H = U + kB*T
                kB is Boltzmann's constant
Total free energy                 ...   -362.95677344 Eh
Thermal Enthalpy correction       ...      0.00094421 Eh       0.59 kcal/mol
-----------------------------------------------------------------------
Total Enthalpy                    ...   -362.95582923 Eh

-------
ENTROPY
-------

The entropy contributions are T*S = T*(S(el)+S(vib)+S(rot)+S(trans)
     S(el)   - electronic entropy
     S(vib)  - vibrational entropy
     S(rot)  - rotational entropy
     S(trans)- translational entropy
The entropies will be listed as mutliplied by the temperature to get
units of energy

Electronic entropy                ...      0.00000000 Eh      0.00 kcal/mol
Vibrational entropy               ...      0.00970504 Eh      6.09 kcal/mol
Rotational entropy                ...      0.01217150 Eh      7.64 kcal/mol
Translational entropy             ...      0.01892854 Eh     11.88 kcal/mol
-----------------------------------------------------------------------
Final entropy term                ...      0.04080509 Eh     25.61 kcal/mol

CAUTION: The rotational entropy is not quite correctly treated here
         because it includes a symmetry number that is not yet correctly
         implemented in ORCA!
For a nonlinear molecule the correct rotational entropy is:
    S(rot) = R*(ln(qrot/sn)+1.5)
    R    = 8.31441 J/mol/K = 1.987191683e-3 kcal/mol/K
    qrot = 265583.1223751
    sn is the rotational symmetry number. We have assumed 3 here
       if it is different for your molecule then you should correct
       the printed rotational entropy by manually evaluating the equation
       as given above

For convenience we print out the resulting values for sn=1 - 12:
 sn= 1  qrot/sn=  265583.1224 T*S(rot)=     8.29 kcal/mol T*S(tot)=    26.26 kcal/mol
 sn= 2  qrot/sn=  132791.5612 T*S(rot)=     7.88 kcal/mol T*S(tot)=    25.85 kcal/mol
 sn= 3  qrot/sn=   88527.7075 T*S(rot)=     7.64 kcal/mol T*S(tot)=    25.61 kcal/mol
 sn= 4  qrot/sn=   66395.7806 T*S(rot)=     7.47 kcal/mol T*S(tot)=    25.44 kcal/mol
 sn= 5  qrot/sn=   53116.6245 T*S(rot)=     7.34 kcal/mol T*S(tot)=    25.30 kcal/mol
 sn= 6  qrot/sn=   44263.8537 T*S(rot)=     7.23 kcal/mol T*S(tot)=    25.19 kcal/mol
 sn= 7  qrot/sn=   37940.4461 T*S(rot)=     7.14 kcal/mol T*S(tot)=    25.10 kcal/mol
 sn= 8  qrot/sn=   33197.8903 T*S(rot)=     7.06 kcal/mol T*S(tot)=    25.02 kcal/mol
 sn= 9  qrot/sn=   29509.2358 T*S(rot)=     6.99 kcal/mol T*S(tot)=    24.95 kcal/mol
 sn=10  qrot/sn=   26558.3122 T*S(rot)=     6.92 kcal/mol T*S(tot)=    24.89 kcal/mol
 sn=11  qrot/sn=   24143.9202 T*S(rot)=     6.87 kcal/mol T*S(tot)=    24.84 kcal/mol
 sn=12  qrot/sn=   22131.9269 T*S(rot)=     6.82 kcal/mol T*S(tot)=    24.78 kcal/mol

-------------------
GIBBS FREE ENTHALPY
-------------------

The Gibbs free enthalpy is G = H - T*S

Total enthalpy                    ...   -362.95582923 Eh
Total entropy correction          ...     -0.04080509 Eh    -25.61 kcal/mol
-----------------------------------------------------------------------
Final Gibbs free enthalpy         ...   -362.99663432 Eh

For completeness - the Gibbs free enthalpy minus the electronic energy
G-E(el)                           ...      0.11912365 Eh     74.75 kcal/mol

                             ****ORCA TERMINATED NORMALLY****
TOTAL RUN TIME: 0 days 0 hours 46 minutes 44 seconds 235 msec
