                         Program Version 3.0.3 - RELEASE   -
|  1> ! NORI PBE0 def2-TZVP UseSym TightOPT Freq TightSCF Grid3 FinalGrid5 XYZFile
|  2> % pal
|  3>     nprocs 8
|  4> end
|  5> %method
|  6>     SymThresh 5.0e-2
|  7> end
|  8> % geom
|  9>     MaxIter 10
| 10> end
| 11> % maxcore 2000
| 12> % output
| 13>     printlevel mini
| 14>     print[ P_Basis ] 0
| 15>     print[ P_SCFInfo ] 1
| 16>     print[ P_SCFIterInfo ] 1
| 17>     print[ P_OrbEn ] 0
| 18>     print[ P_Cartesian ] 0
| 19> end
| 20> % elprop
| 21>     Dipole false
| 22> end
| 23> *xyz 1 1
| 24>  C        0.9460268249    -1.3664287309     0.6754517025
| 25>  N        2.2972560151    -0.9715785931     0.3271091578
| 26>  C        3.2899667975    -1.8649957918     0.2817527062
| 27>  O        3.1532930210    -3.0531621753     0.4963462743
| 28>  C        4.6858549919    -1.3052497258    -0.0308817536
| 29>  C        5.4756072384    -2.4021980129    -0.7061991261
| 30>  N        6.9594578153    -2.1783853053    -0.5860369879
| 31>  H        0.3108969219    -0.4832995716     0.6678020084
| 32>  H        0.9227409016    -1.8189366307     1.6675440742
| 33>  H        0.5623542083    -2.0928928845    -0.0422621645
| 34>  H        2.4878023710    -0.0050288612     0.1283222144
| 35>  H        4.6408242800    -0.3958391212    -0.6350777375
| 36>  H        5.1359844896    -1.0441102920     0.9346804167
| 37>  H        5.2472775737    -3.3562454054    -0.2286567288
| 38>  H        5.2571860300    -2.4807472992    -1.7711455219
| 39>  H        7.2436408758    -2.1493776416     0.3955920684
| 40>  H        7.2487803617    -1.2976404396    -1.0162292555
| 41>  H        7.4833192823    -2.9314835177    -1.0371713473
| 42> *
| 43>
| 44>                          ****END OF INPUT****
 Total Charge           Charge          ....    1
 Multiplicity           Mult            ....    1
 Number of Electrons    NEL             ....   56
FINAL SINGLE POINT ENERGY      -343.285926126977

CARTESIAN COORDINATES (ANGSTROEM)
---------------------------------
  C      2.774457    0.108089    1.239652
  N      1.840641    0.000146    0.135280
  C      0.522182   -0.054960    0.345863
  O     -0.000151    0.003041    1.441505
  C     -0.352230   -0.240746   -0.903356
  C     -1.695504    0.388730   -0.616656
  N     -2.775152   -0.166692   -1.507069
  H      3.786809    0.118601    0.841564
  H      2.663114   -0.737392    1.919793
  H      2.598620    1.026292    1.801575
  H      2.197353   -0.046929   -0.803005
  H      0.115075    0.172352   -1.800619
  H     -0.456447   -1.323166   -1.047656
  H     -1.979155    0.176903    0.415431
  H     -1.692636    1.468384   -0.766183
  H     -2.870181   -1.176268   -1.375671
  H     -2.576341   -0.002322   -2.495964
  H     -3.680782    0.258746   -1.297114

FINAL SINGLE POINT ENERGY      -343.285926942025
                    ***********************HURRAY********************
 Multiplicity           Mult            ....    1
 Number of Electrons    NEL             ....   56
 Basis Dimension        Dim             ....  283
FINAL SINGLE POINT ENERGY      -343.285927676159

VIBRATIONAL FREQUENCIES
-----------------------

   0:         0.00 cm**-1
   1:         0.00 cm**-1
   2:         0.00 cm**-1
   3:         0.00 cm**-1
   4:         0.00 cm**-1
   5:         0.00 cm**-1
   6:       -57.50 cm**-1 ***imaginary mode***
   7:        50.49 cm**-1
   8:        62.08 cm**-1
   9:       153.33 cm**-1
  10:       201.96 cm**-1
  11:       234.66 cm**-1
  12:       289.15 cm**-1
  13:       344.37 cm**-1
  14:       422.49 cm**-1
  15:       439.61 cm**-1
  16:       626.14 cm**-1
  17:       709.37 cm**-1
  18:       798.10 cm**-1
  19:       899.30 cm**-1
  20:       909.97 cm**-1
  21:       922.12 cm**-1
  22:      1012.88 cm**-1
  23:      1057.84 cm**-1
  24:      1104.76 cm**-1
  25:      1149.09 cm**-1
  26:      1149.61 cm**-1
  27:      1194.11 cm**-1
  28:      1260.52 cm**-1
  29:      1284.69 cm**-1
  30:      1322.50 cm**-1
  31:      1359.31 cm**-1
  32:      1404.06 cm**-1
  33:      1454.74 cm**-1
  34:      1469.20 cm**-1
  35:      1472.83 cm**-1
  36:      1499.34 cm**-1
  37:      1501.21 cm**-1
  38:      1511.00 cm**-1
  39:      1572.12 cm**-1
  40:      1660.63 cm**-1
  41:      1664.77 cm**-1
  42:      1792.17 cm**-1
  43:      3044.46 cm**-1
  44:      3072.83 cm**-1
  45:      3102.91 cm**-1
  46:      3108.81 cm**-1
  47:      3142.94 cm**-1
  48:      3165.88 cm**-1
  49:      3178.79 cm**-1
  50:      3421.44 cm**-1
  51:      3502.64 cm**-1
  52:      3506.50 cm**-1
  53:      3669.66 cm**-1

IR SPECTRUM
-----------

 Mode    freq (cm**-1)   T**2         TX         TY         TZ
-------------------------------------------------------------------
   7:        50.49    6.375992  (  0.435505  -0.211774   2.478201)
   8:        62.08   11.691115  (  0.122452  -3.395515   0.382882)
   9:       153.33    8.562996  (  0.201759  -1.081695  -2.711499)
  10:       201.96    5.814743  (  0.838436   1.830128  -1.327555)
  11:       234.66    0.808670  (  0.882045  -0.164474   0.060121)
  12:       289.15   10.671713  (  2.565709  -0.337319   1.993757)
  13:       344.37   29.628969  ( -5.016639   1.504821  -1.482504)
  14:       422.49   24.804853  (  2.172181   4.198921   1.567017)
  15:       439.61   54.253702  (  0.927032  -7.203041   1.229028)
  16:       626.14    1.112104  (  0.370721  -0.853116   0.496853)
  17:       709.37    0.543414  (  0.210132   0.706476   0.012295)
  18:       798.10   10.755889  (  0.656900  -2.294735   2.249125)
  19:       899.30    6.768690  ( -0.766866  -0.028908  -2.485915)
  20:       909.97   37.989319  (  6.137868   0.185309   0.530615)
  21:       922.12    3.320181  ( -0.493960   1.536259  -0.846223)
  22:      1012.88   14.448077  ( -1.780528  -1.662476  -2.917871)
  23:      1057.84    1.179909  (  0.891681  -0.137806  -0.604833)
  24:      1104.76    6.753906  (  0.646281  -2.460495   0.531219)
  25:      1149.09    3.703368  ( -1.718447   0.862293  -0.082207)
  26:      1149.61   19.013541  (  4.145172  -1.340808   0.182542)
  27:      1194.11    0.669561  ( -0.502641  -0.416236  -0.493619)
  28:      1260.52   32.458053  ( -4.993468  -0.617632  -2.672426)
  29:      1284.69    0.563698  ( -0.148465   0.715069   0.174163)
  30:      1322.50   30.579853  ( -3.782806   1.331943  -3.807382)
  31:      1359.31   22.862295  (  1.616810   1.873828   4.091086)
  32:      1404.06   19.748320  (  2.371689  -0.078309   3.757297)
  33:      1454.74   12.034354  ( -3.281138  -0.074286   1.123818)
  34:      1469.20    1.383375  ( -0.591314   0.658449   0.774705)
  35:      1472.83   14.815461  (  0.130055  -3.838881   0.248071)
  36:      1499.34   14.383037  (  2.525305   0.137212   2.826136)
  37:      1501.21   17.389526  (  2.960083  -1.644080  -2.434016)
  38:      1511.00  152.461382  (  9.012333   4.624171   7.060899)
  39:      1572.12  215.525948  ( 14.104739   0.846680   3.983143)
  40:      1660.63   50.005971  (  3.471849   3.320946  -5.188791)
  41:      1664.77   40.112456  ( -3.512486   5.258531   0.350354)
  42:      1792.17  290.283725  (-13.370876   0.239194  10.556808)
  43:      3044.46    3.377642  ( -0.279956  -1.184360  -1.377155)
  44:      3072.83   13.823223  (  2.956367   0.241722   2.241582)
  45:      3102.91    9.488621  (  2.088231  -0.794893   2.120391)
  46:      3108.81    5.752193  ( -1.138309  -0.657712   2.005956)
  47:      3142.94    5.806917  (  0.056870  -2.404706   0.145166)
  48:      3165.88    4.405503  (  1.118165   0.144641   1.770393)
  49:      3178.79    3.691114  (  1.608189  -0.037293  -1.050453)
  50:      3421.44   47.176768  ( -5.738074  -1.949612  -3.232690)
  51:      3502.64   96.462265  ( -3.682497   8.913753  -1.856469)
  52:      3506.50   96.307513  (  5.796490   0.435870  -7.906847)
  53:      3669.66   53.072169  ( -5.219903   0.134483   5.080029)

--------------------------
THERMOCHEMISTRY AT 298.15K
--------------------------

Temperature         ... 298.15 K
Pressure            ... 1.00 atm
Total Mass          ... 103.14 AMU

Throughout the following assumptions are being made:
  (1) The electronic state is orbitally nondegenerate
  (2) There are no thermally accessible electronically excited states
  (3) Hindered rotations indicated by low frequency modes) are not
      treated as such but are treated as vibrations and this may
      case some error
  (4) All equations used are the standard statistical mechanics
      equations for an ideal gas
  (5) All vibrations are strinctly harmonic

------------
INNER ENERGY
------------

The inner energy is: U= E(el) + E(ZPE) + E(vib) + E(rot) + E(trans)
    E(el)   - is the total energy from the electronic structure calculation
              = E(kin-el) + E(nuc-el) + E(el-el) + E(nuc-nuc)
    E(ZPE)  - the the zero temperature vibrational energy from the frequency calculation
    E(vib)  - the the finite temperature correction to E(ZPE) due to population
              of excietd vibrational states
    E(rot)  - is the rotational thermal energy
    E(trans)- is the translational thermal energy

Summary of contributions to the inner energy U:
Electronic energy                ...   -343.28592768 Eh
Zero point energy                ...      0.16374876 Eh     102.75 kcal/mol
Thermal vibrational correction   ...      0.00543975 Eh       3.41 kcal/mol
Thermal rotational correction    ...      0.00141627 Eh       0.89 kcal/mol
Thermal translational correction ...      0.00141627 Eh       0.89 kcal/mol
-----------------------------------------------------------------------
Total thermal energy                   -343.11390662 Eh

Summary of corrections to the electronic energy:
(perhaps to be used in another calculation)
Total thermal correction                  0.00827229 Eh       5.19 kcal/mol
Non-thermal (ZPE) correction              0.16374876 Eh     102.75 kcal/mol
-----------------------------------------------------------------------
Total correction                          0.17202106 Eh     107.94 kcal/mol

--------
ENTHALPY
--------

The enthalpy is H = U + kB*T
                kB is Boltzmann's constant
Total free energy                 ...   -343.11390662 Eh
Thermal Enthalpy correction       ...      0.00094421 Eh       0.59 kcal/mol
-----------------------------------------------------------------------
Total Enthalpy                    ...   -343.11296241 Eh

-------
ENTROPY
-------

The entropy contributions are T*S = T*(S(el)+S(vib)+S(rot)+S(trans)
     S(el)   - electronic entropy
     S(vib)  - vibrational entropy
     S(rot)  - rotational entropy
     S(trans)- translational entropy
The entropies will be listed as mutliplied by the temperature to get
units of energy

Electronic entropy                ...      0.00000000 Eh      0.00 kcal/mol
Vibrational entropy               ...      0.01048379 Eh      6.58 kcal/mol
Rotational entropy                ...      0.01219342 Eh      7.65 kcal/mol
Translational entropy             ...      0.01891510 Eh     11.87 kcal/mol
-----------------------------------------------------------------------
Final entropy term                ...      0.04159230 Eh     26.10 kcal/mol

CAUTION: The rotational entropy is not quite correctly treated here
         because it includes a symmetry number that is not yet correctly
         implemented in ORCA!
For a nonlinear molecule the correct rotational entropy is:
    S(rot) = R*(ln(qrot/sn)+1.5)
    R    = 8.31441 J/mol/K = 1.987191683e-3 kcal/mol/K
    qrot = 271819.4836334
    sn is the rotational symmetry number. We have assumed 3 here
       if it is different for your molecule then you should correct
       the printed rotational entropy by manually evaluating the equation
       as given above

For convenience we print out the resulting values for sn=1 - 12:
 sn= 1  qrot/sn=  271819.4836 T*S(rot)=     8.30 kcal/mol T*S(tot)=    26.75 kcal/mol
 sn= 2  qrot/sn=  135909.7418 T*S(rot)=     7.89 kcal/mol T*S(tot)=    26.34 kcal/mol
 sn= 3  qrot/sn=   90606.4945 T*S(rot)=     7.65 kcal/mol T*S(tot)=    26.10 kcal/mol
 sn= 4  qrot/sn=   67954.8709 T*S(rot)=     7.48 kcal/mol T*S(tot)=    25.93 kcal/mol
 sn= 5  qrot/sn=   54363.8967 T*S(rot)=     7.35 kcal/mol T*S(tot)=    25.80 kcal/mol
 sn= 6  qrot/sn=   45303.2473 T*S(rot)=     7.24 kcal/mol T*S(tot)=    25.69 kcal/mol
 sn= 7  qrot/sn=   38831.3548 T*S(rot)=     7.15 kcal/mol T*S(tot)=    25.60 kcal/mol
 sn= 8  qrot/sn=   33977.4355 T*S(rot)=     7.07 kcal/mol T*S(tot)=    25.52 kcal/mol
 sn= 9  qrot/sn=   30202.1648 T*S(rot)=     7.00 kcal/mol T*S(tot)=    25.45 kcal/mol
 sn=10  qrot/sn=   27181.9484 T*S(rot)=     6.94 kcal/mol T*S(tot)=    25.39 kcal/mol
 sn=11  qrot/sn=   24710.8621 T*S(rot)=     6.88 kcal/mol T*S(tot)=    25.33 kcal/mol
 sn=12  qrot/sn=   22651.6236 T*S(rot)=     6.83 kcal/mol T*S(tot)=    25.28 kcal/mol

-------------------
GIBBS FREE ENTHALPY
-------------------

The Gibbs free enthalpy is G = H - T*S

Total enthalpy                    ...   -343.11296241 Eh
Total entropy correction          ...     -0.04159230 Eh    -26.10 kcal/mol
-----------------------------------------------------------------------
Final Gibbs free enthalpy         ...   -343.15455472 Eh

For completeness - the Gibbs free enthalpy minus the electronic energy
G-E(el)                           ...      0.13137296 Eh     82.44 kcal/mol

                             ****ORCA TERMINATED NORMALLY****
TOTAL RUN TIME: 0 days 0 hours 39 minutes 55 seconds 948 msec
