                         Program Version 3.0.3 - RELEASE   -
|  1> ! NORI PBE0 def2-TZVP UseSym TightOPT Freq TightSCF Grid3 FinalGrid5 XYZFile
|  2> % pal
|  3>     nprocs 8
|  4> end
|  5> %method
|  6>     SymThresh 5.0e-2
|  7> end
|  8> % geom
|  9>     MaxIter 10
| 10> end
| 11> % maxcore 2000
| 12> % output
| 13>     printlevel mini
| 14>     print[ P_Basis ] 0
| 15>     print[ P_SCFInfo ] 1
| 16>     print[ P_SCFIterInfo ] 1
| 17>     print[ P_OrbEn ] 0
| 18>     print[ P_Cartesian ] 0
| 19> end
| 20> % elprop
| 21>     Dipole false
| 22> end
| 23> *xyz 1 1
| 24>  C        1.3212611199    -0.6410912587    -1.2856565611
| 25>  N        2.5591973228    -0.6675331464    -1.5257190574
| 26>  O        3.2799226070     0.0655506796    -0.5687430709
| 27>  C        4.6071257892     0.0803991375    -0.9649989436
| 28>  C        5.4884249081     0.7340492542     0.1018435467
| 29>  N        6.4015189427    -0.4791248391     0.0975300384
| 30>  C        5.3927381439    -1.2299135010    -0.7595616895
| 31>  H        0.6910584028    -1.1914605575    -1.9746451357
| 32>  H        0.8879180715    -0.1020960002    -0.4453196597
| 33>  H        4.7223515029     0.4970924911    -1.9683133404
| 34>  H        4.9866788319     0.8125273474     1.0645216674
| 35>  H        6.0140553502     1.6542597622    -0.1392231236
| 36>  H        7.2862494693    -0.3130884565    -0.3792026774
| 37>  H        6.6083047110    -0.8852452819     1.0084959545
| 38>  H        5.8558501975    -1.7083802408    -1.6184515822
| 39>  H        4.8563946294    -1.9536153899    -0.1492663657
| 40> *
| 41>
| 42>                          ****END OF INPUT****
 Total Charge           Charge          ....    1
 Multiplicity           Mult            ....    1
 Number of Electrons    NEL             ....   54
FINAL SINGLE POINT ENERGY      -341.960268805654
FINAL SINGLE POINT ENERGY      -341.960269943669
FINAL SINGLE POINT ENERGY      -341.960271908159
FINAL SINGLE POINT ENERGY      -341.960273529940

CARTESIAN COORDINATES (ANGSTROEM)
---------------------------------
  C      1.609671    0.394319    2.429545
  N      1.379716   -0.020576    1.260990
  O      0.006285    0.014809    0.968402
  C     -0.171115   -0.546222   -0.285276
  C     -1.636206   -0.458597   -0.719797
  N     -1.215828    0.198652   -2.022809
  C      0.201732    0.343505   -1.488790
  H      2.649515    0.405623    2.734116
  H      0.827355    0.723162    3.110626
  H      0.261654   -1.547325   -0.340921
  H     -2.207605    0.246711   -0.119024
  H     -2.195126   -1.377664   -0.876947
  H     -1.280317   -0.425095   -2.825374
  H     -1.695799    1.065547   -2.259489
  H      0.947228   -0.010341   -2.196501
  H      0.387485    1.378638   -1.209342

FINAL SINGLE POINT ENERGY      -341.960274333757
                    ***********************HURRAY********************
 Multiplicity           Mult            ....    1
 Number of Electrons    NEL             ....   54
 Basis Dimension        Dim             ....  271
FINAL SINGLE POINT ENERGY      -341.960274536122

VIBRATIONAL FREQUENCIES
-----------------------

   0:         0.00 cm**-1
   1:         0.00 cm**-1
   2:         0.00 cm**-1
   3:         0.00 cm**-1
   4:         0.00 cm**-1
   5:         0.00 cm**-1
   6:        28.77 cm**-1
   7:        68.25 cm**-1
   8:       108.67 cm**-1
   9:       205.63 cm**-1
  10:       395.99 cm**-1
  11:       429.95 cm**-1
  12:       528.02 cm**-1
  13:       726.90 cm**-1
  14:       802.11 cm**-1
  15:       814.69 cm**-1
  16:       834.84 cm**-1
  17:       866.76 cm**-1
  18:       899.71 cm**-1
  19:       925.05 cm**-1
  20:       972.67 cm**-1
  21:      1008.69 cm**-1
  22:      1034.94 cm**-1
  23:      1087.07 cm**-1
  24:      1117.35 cm**-1
  25:      1161.39 cm**-1
  26:      1249.71 cm**-1
  27:      1257.36 cm**-1
  28:      1282.99 cm**-1
  29:      1293.53 cm**-1
  30:      1309.36 cm**-1
  31:      1318.74 cm**-1
  32:      1334.27 cm**-1
  33:      1410.19 cm**-1
  34:      1430.31 cm**-1
  35:      1468.47 cm**-1
  36:      1485.21 cm**-1
  37:      1650.74 cm**-1
  38:      1735.11 cm**-1
  39:      3102.65 cm**-1
  40:      3128.20 cm**-1
  41:      3129.25 cm**-1
  42:      3131.22 cm**-1
  43:      3204.74 cm**-1
  44:      3207.68 cm**-1
  45:      3255.96 cm**-1
  46:      3477.45 cm**-1
  47:      3542.36 cm**-1

IR SPECTRUM
-----------

 Mode    freq (cm**-1)   T**2         TX         TY         TZ
-------------------------------------------------------------------
   7:        68.25    6.855371  ( -1.472069   2.158159  -0.175310)
   8:       108.67   17.296873  ( -1.133416  -3.742268   1.416924)
   9:       205.63    6.329684  (  2.282975  -1.057174   0.009685)
  10:       395.99   10.491718  ( -0.095891   1.297898  -2.966139)
  11:       429.95    6.786433  ( -2.592457  -0.030032  -0.254359)
  12:       528.02    1.594135  ( -0.103861  -0.818709  -0.955543)
  13:       726.90    4.563140  ( -0.967656  -1.785217  -0.663161)
  14:       802.11    3.333813  (  1.676386  -0.512507   0.510764)
  15:       814.69    3.253254  ( -1.719606  -0.241409  -0.487781)
  16:       834.84    8.322578  ( -1.882949   2.185648   0.005035)
  17:       866.76   19.193429  ( -2.504309  -1.907786  -3.046673)
  18:       899.71   11.926368  (  3.068808   0.653786   1.442687)
  19:       925.05   98.138383  (  6.469940   0.251312   7.497673)
  20:       972.67   18.508906  ( -2.894606  -1.905921  -2.549044)
  21:      1008.69    5.814655  (  1.708364   0.917947  -1.433011)
  22:      1034.94   31.358758  (  0.572352   5.243815  -1.879781)
  23:      1087.07    7.923858  ( -0.624086  -0.736238   2.644301)
  24:      1117.35   51.588728  (  3.788234   1.205961   5.981945)
  25:      1161.39   79.160962  (  3.316123   2.396690   7.900643)
  26:      1249.71   27.907623  (  0.510410  -0.130140  -5.256441)
  27:      1257.36   39.247978  (  5.574587   2.727136  -0.857140)
  28:      1282.99    6.935616  (  1.675040   0.186179  -2.023659)
  29:      1293.53   19.632489  ( -0.979327  -2.632007  -3.427236)
  30:      1309.36    1.339413  ( -0.667220  -0.256668   0.910138)
  31:      1318.74   18.747911  (  4.047255   1.292797  -0.834454)
  32:      1334.27    8.816773  (  2.386768   1.632360  -0.674919)
  33:      1410.19   40.854392  (  3.886016  -0.463931   5.053518)
  34:      1430.31   23.412540  ( -0.176910  -1.117861  -4.704427)
  35:      1468.47   20.612199  (  3.831349   1.852191  -1.581881)
  36:      1485.21    7.567658  ( -2.020006   1.424113  -1.207947)
  37:      1650.74   64.958771  (  3.674722  -1.569124   6.999503)
  38:      1735.11    3.692350  (  1.898918  -0.023268   0.293118)
  39:      3102.65   11.631876  (  0.850055   2.465149   2.198255)
  40:      3128.20    0.252469  (  0.407178   0.044266  -0.291060)
  41:      3129.25    0.973871  ( -0.981238   0.105067  -0.001711)
  42:      3131.22    0.146605  ( -0.183884   0.294778  -0.160926)
  43:      3204.74    1.262785  ( -0.824205   0.643118   0.412153)
  44:      3207.68    1.072367  ( -0.161464   1.022774   0.015133)
  45:      3255.96    2.126333  (  1.108033   0.206106   0.925266)
  46:      3477.45   85.362867  (  4.394759  -2.059188   7.861851)
  47:      3542.36   96.453897  ( -2.230641   8.785516   3.780589)

--------------------------
THERMOCHEMISTRY AT 298.15K
--------------------------

Temperature         ... 298.15 K
Pressure            ... 1.00 atm
Total Mass          ... 101.13 AMU

Throughout the following assumptions are being made:
  (1) The electronic state is orbitally nondegenerate
  (2) There are no thermally accessible electronically excited states
  (3) Hindered rotations indicated by low frequency modes) are not
      treated as such but are treated as vibrations and this may
      case some error
  (4) All equations used are the standard statistical mechanics
      equations for an ideal gas
  (5) All vibrations are strinctly harmonic

------------
INNER ENERGY
------------

The inner energy is: U= E(el) + E(ZPE) + E(vib) + E(rot) + E(trans)
    E(el)   - is the total energy from the electronic structure calculation
              = E(kin-el) + E(nuc-el) + E(el-el) + E(nuc-nuc)
    E(ZPE)  - the the zero temperature vibrational energy from the frequency calculation
    E(vib)  - the the finite temperature correction to E(ZPE) due to population
              of excietd vibrational states
    E(rot)  - is the rotational thermal energy
    E(trans)- is the translational thermal energy

Summary of contributions to the inner energy U:
Electronic energy                ...   -341.96027454 Eh
Zero point energy                ...      0.13986625 Eh      87.77 kcal/mol
Thermal vibrational correction   ...      0.00364215 Eh       2.29 kcal/mol
Thermal rotational correction    ...      0.00141627 Eh       0.89 kcal/mol
Thermal translational correction ...      0.00141627 Eh       0.89 kcal/mol
-----------------------------------------------------------------------
Total thermal energy                   -341.81393359 Eh

Summary of corrections to the electronic energy:
(perhaps to be used in another calculation)
Total thermal correction                  0.00647470 Eh       4.06 kcal/mol
Non-thermal (ZPE) correction              0.13986625 Eh      87.77 kcal/mol
-----------------------------------------------------------------------
Total correction                          0.14634094 Eh      91.83 kcal/mol

--------
ENTHALPY
--------

The enthalpy is H = U + kB*T
                kB is Boltzmann's constant
Total free energy                 ...   -341.81393359 Eh
Thermal Enthalpy correction       ...      0.00094421 Eh       0.59 kcal/mol
-----------------------------------------------------------------------
Total Enthalpy                    ...   -341.81298938 Eh

-------
ENTROPY
-------

The entropy contributions are T*S = T*(S(el)+S(vib)+S(rot)+S(trans)
     S(el)   - electronic entropy
     S(vib)  - vibrational entropy
     S(rot)  - rotational entropy
     S(trans)- translational entropy
The entropies will be listed as mutliplied by the temperature to get
units of energy

Electronic entropy                ...      0.00000000 Eh      0.00 kcal/mol
Vibrational entropy               ...      0.00665467 Eh      4.18 kcal/mol
Rotational entropy                ...      0.01196170 Eh      7.51 kcal/mol
Translational entropy             ...      0.01888714 Eh     11.85 kcal/mol
-----------------------------------------------------------------------
Final entropy term                ...      0.03750352 Eh     23.53 kcal/mol

CAUTION: The rotational entropy is not quite correctly treated here
         because it includes a symmetry number that is not yet correctly
         implemented in ORCA!
For a nonlinear molecule the correct rotational entropy is:
    S(rot) = R*(ln(qrot/sn)+1.5)
    R    = 8.31441 J/mol/K = 1.987191683e-3 kcal/mol/K
    qrot = 212666.5561614
    sn is the rotational symmetry number. We have assumed 3 here
       if it is different for your molecule then you should correct
       the printed rotational entropy by manually evaluating the equation
       as given above

For convenience we print out the resulting values for sn=1 - 12:
 sn= 1  qrot/sn=  212666.5562 T*S(rot)=     8.16 kcal/mol T*S(tot)=    24.18 kcal/mol
 sn= 2  qrot/sn=  106333.2781 T*S(rot)=     7.75 kcal/mol T*S(tot)=    23.77 kcal/mol
 sn= 3  qrot/sn=   70888.8521 T*S(rot)=     7.51 kcal/mol T*S(tot)=    23.53 kcal/mol
 sn= 4  qrot/sn=   53166.6390 T*S(rot)=     7.34 kcal/mol T*S(tot)=    23.36 kcal/mol
 sn= 5  qrot/sn=   42533.3112 T*S(rot)=     7.20 kcal/mol T*S(tot)=    23.23 kcal/mol
 sn= 6  qrot/sn=   35444.4260 T*S(rot)=     7.10 kcal/mol T*S(tot)=    23.12 kcal/mol
 sn= 7  qrot/sn=   30380.9366 T*S(rot)=     7.00 kcal/mol T*S(tot)=    23.03 kcal/mol
 sn= 8  qrot/sn=   26583.3195 T*S(rot)=     6.92 kcal/mol T*S(tot)=    22.95 kcal/mol
 sn= 9  qrot/sn=   23629.6174 T*S(rot)=     6.86 kcal/mol T*S(tot)=    22.88 kcal/mol
 sn=10  qrot/sn=   21266.6556 T*S(rot)=     6.79 kcal/mol T*S(tot)=    22.82 kcal/mol
 sn=11  qrot/sn=   19333.3233 T*S(rot)=     6.74 kcal/mol T*S(tot)=    22.76 kcal/mol
 sn=12  qrot/sn=   17722.2130 T*S(rot)=     6.68 kcal/mol T*S(tot)=    22.71 kcal/mol

-------------------
GIBBS FREE ENTHALPY
-------------------

The Gibbs free enthalpy is G = H - T*S

Total enthalpy                    ...   -341.81298938 Eh
Total entropy correction          ...     -0.03750352 Eh    -23.53 kcal/mol
-----------------------------------------------------------------------
Final Gibbs free enthalpy         ...   -341.85049290 Eh

For completeness - the Gibbs free enthalpy minus the electronic energy
G-E(el)                           ...      0.10978163 Eh     68.89 kcal/mol

                             ****ORCA TERMINATED NORMALLY****
TOTAL RUN TIME: 0 days 0 hours 42 minutes 3 seconds 845 msec
