                         Program Version 3.0.3 - RELEASE   -
|  1> ! NORI PBE0 def2-TZVP UseSym TightOPT Freq TightSCF Grid3 FinalGrid5 XYZFile
|  2> % pal
|  3>     nprocs 8
|  4> end
|  5> %method
|  6>     SymThresh 5.0e-2
|  7> end
|  8> % geom
|  9>     MaxIter 10
| 10> end
| 11> % maxcore 2000
| 12> % output
| 13>     printlevel mini
| 14>     print[ P_Basis ] 0
| 15>     print[ P_SCFInfo ] 1
| 16>     print[ P_SCFIterInfo ] 1
| 17>     print[ P_OrbEn ] 0
| 18>     print[ P_Cartesian ] 0
| 19> end
| 20> % elprop
| 21>     Dipole false
| 22> end
| 23> *xyz 1 1
| 24>  C        1.9952061439    -0.7124618047    -0.1019102918
| 25>  N        3.1904145722    -0.3549105135    -0.2850517005
| 26>  O        3.2636131285     0.7510377717    -1.1437786514
| 27>  C        4.6064075076     1.1173480618    -1.2646154242
| 28>  C        4.6428134305     2.0646091003    -2.4299029747
| 29>  C        4.3082398539     3.4842506456    -2.2567952053
| 30>  N        5.7298547218     3.0811414585    -2.4090788300
| 31>  H        1.8504775675    -1.5674938770     0.5478726617
| 32>  H        1.1437266036    -0.2117982144    -0.5584226058
| 33>  H        4.9701151798     1.6157749905    -0.3519500454
| 34>  H        5.2375490069     0.2433670870    -1.4538462980
| 35>  H        4.4969353432     1.6337299960    -3.4141911787
| 36>  H        3.9206880114     4.0555827365    -3.0901374841
| 37>  H        4.0637768582     3.8469940514    -1.2660867426
| 38>  H        6.2061339284     3.3014101121    -3.2770514164
| 39>  H        6.3262981425     3.1231983981    -1.5885738129
| 40> *
| 41>
| 42>                          ****END OF INPUT****
 Total Charge           Charge          ....    1
 Multiplicity           Mult            ....    1
 Number of Electrons    NEL             ....   54
FINAL SINGLE POINT ENERGY      -341.946349716819

CARTESIAN COORDINATES (ANGSTROEM)
---------------------------------
  C      0.513607    0.195164    3.111047
  N      0.999982   -0.000335    1.964231
  O     -0.000358   -0.001130    0.981607
  C      0.613627   -0.176521   -0.261088
  C     -0.511129   -0.497352   -1.203990
  C     -1.324697    0.571989   -1.797479
  N     -0.298600   -0.112076   -2.625907
  H      1.222154    0.206380    3.930793
  H     -0.548760    0.344933    3.293403
  H      1.136705    0.738140   -0.582693
  H      1.339846   -0.994758   -0.229383
  H     -0.968685   -1.475269   -1.103319
  H     -2.343035    0.371985   -2.103905
  H     -1.081765    1.602255   -1.569152
  H     -0.607385   -0.748007   -3.353160
  H      0.545097    0.402463   -2.858215

FINAL SINGLE POINT ENERGY      -341.946350115280
                    ***********************HURRAY********************
 Multiplicity           Mult            ....    1
 Number of Electrons    NEL             ....   54
 Basis Dimension        Dim             ....  271
FINAL SINGLE POINT ENERGY      -341.946350356641

VIBRATIONAL FREQUENCIES
-----------------------

   0:         0.00 cm**-1
   1:         0.00 cm**-1
   2:         0.00 cm**-1
   3:         0.00 cm**-1
   4:         0.00 cm**-1
   5:         0.00 cm**-1
   6:        41.69 cm**-1
   7:        65.90 cm**-1
   8:       117.26 cm**-1
   9:       172.13 cm**-1
  10:       313.10 cm**-1
  11:       349.14 cm**-1
  12:       442.52 cm**-1
  13:       577.29 cm**-1
  14:       804.97 cm**-1
  15:       815.45 cm**-1
  16:       858.97 cm**-1
  17:       869.33 cm**-1
  18:       891.11 cm**-1
  19:       921.86 cm**-1
  20:       951.83 cm**-1
  21:      1026.33 cm**-1
  22:      1027.58 cm**-1
  23:      1045.18 cm**-1
  24:      1136.40 cm**-1
  25:      1160.26 cm**-1
  26:      1182.81 cm**-1
  27:      1191.93 cm**-1
  28:      1218.19 cm**-1
  29:      1250.54 cm**-1
  30:      1253.51 cm**-1
  31:      1293.49 cm**-1
  32:      1378.23 cm**-1
  33:      1424.41 cm**-1
  34:      1453.00 cm**-1
  35:      1495.99 cm**-1
  36:      1510.64 cm**-1
  37:      1632.01 cm**-1
  38:      1736.28 cm**-1
  39:      2988.94 cm**-1
  40:      3086.39 cm**-1
  41:      3127.73 cm**-1
  42:      3174.38 cm**-1
  43:      3204.52 cm**-1
  44:      3255.37 cm**-1
  45:      3278.84 cm**-1
  46:      3510.18 cm**-1
  47:      3612.62 cm**-1

IR SPECTRUM
-----------

 Mode    freq (cm**-1)   T**2         TX         TY         TZ
-------------------------------------------------------------------
   6:        41.69    0.136770  ( -0.014848   0.342575   0.138536)
   7:        65.90    6.436778  ( -0.245804   2.502077   0.340545)
   8:       117.26   16.532033  (  1.677524   3.660451  -0.564838)
   9:       172.13    8.055716  ( -1.737628   1.964569  -1.084820)
  10:       313.10    8.954768  ( -2.117895   0.008809  -2.114051)
  11:       349.14    3.978430  ( -0.729628  -0.104292   1.853428)
  12:       442.52    3.724044  ( -1.350017   0.001045  -1.378947)
  13:       577.29    1.612429  (  0.719500  -0.134912  -1.037568)
  14:       804.97    1.056942  (  0.300814   0.817485   0.546051)
  15:       815.45    3.113068  (  0.493123   0.332738  -1.661079)
  16:       858.97   39.045605  (  0.847662  -1.082607  -6.095493)
  17:       869.33    0.536772  (  0.060462  -0.718485  -0.129983)
  18:       891.11   10.515578  ( -3.066267  -0.214015  -1.033335)
  19:       921.86  108.597191  ( -3.607189  -1.049557  -9.720278)
  20:       951.83    2.338439  ( -0.519341  -1.237758  -0.732583)
  21:      1026.33   64.478790  (  3.428331  -1.169229   7.166466)
  22:      1027.58   74.810409  ( -1.228008   7.216421  -4.607132)
  23:      1045.18   42.407743  ( -3.524289   5.409920   0.848466)
  24:      1136.40  179.345108  (  1.497031  -1.291050 -13.245271)
  25:      1160.26    5.295207  ( -0.636807  -0.428962   2.169257)
  26:      1182.81    7.129425  (  0.340424  -0.975336   2.462165)
  27:      1191.93    1.125204  ( -0.797842   0.583536   0.384886)
  28:      1218.19    9.493867  (  0.782998   0.036753  -2.979837)
  29:      1250.54    3.863366  ( -1.247863  -0.515350  -1.428502)
  30:      1253.51    2.795140  (  1.526089   0.106666  -0.674400)
  31:      1293.49    1.156572  (  0.819775   0.488783   0.495612)
  32:      1378.23   19.110228  (  1.860085  -0.163416   3.952671)
  33:      1424.41    8.664916  ( -2.576369   0.960393   1.051134)
  34:      1453.00   14.975090  (  0.631052  -1.871282   3.327937)
  35:      1495.99    8.897479  (  2.497005  -1.629349   0.087553)
  36:      1510.64    6.255885  ( -1.132158  -1.522975  -1.629310)
  37:      1632.01   73.667374  ( -3.547663  -0.026568   7.815418)
  38:      1736.28    6.220361  ( -1.401843  -0.176609  -2.055239)
  39:      2988.94   53.662604  (  2.009878   2.669124  -6.519108)
  40:      3086.39    7.879521  ( -0.458596   2.247475   1.618044)
  41:      3127.73    1.634006  ( -1.183712   0.082305  -0.475456)
  42:      3174.38    4.078071  ( -1.504289   1.346238  -0.053202)
  43:      3204.52    2.156432  ( -0.411997  -1.324917   0.480921)
  44:      3255.37    2.250706  (  0.249538   0.125412   1.474011)
  45:      3278.84    7.691811  ( -1.868344  -1.924473  -0.705340)
  46:      3510.18  121.060835  ( -4.544589   1.172221   9.951555)
  47:      3612.62  135.690427  ( -7.327222  -7.697314  -4.770073)

--------------------------
THERMOCHEMISTRY AT 298.15K
--------------------------

Temperature         ... 298.15 K
Pressure            ... 1.00 atm
Total Mass          ... 101.13 AMU

Throughout the following assumptions are being made:
  (1) The electronic state is orbitally nondegenerate
  (2) There are no thermally accessible electronically excited states
  (3) Hindered rotations indicated by low frequency modes) are not
      treated as such but are treated as vibrations and this may
      case some error
  (4) All equations used are the standard statistical mechanics
      equations for an ideal gas
  (5) All vibrations are strinctly harmonic

------------
INNER ENERGY
------------

The inner energy is: U= E(el) + E(ZPE) + E(vib) + E(rot) + E(trans)
    E(el)   - is the total energy from the electronic structure calculation
              = E(kin-el) + E(nuc-el) + E(el-el) + E(nuc-nuc)
    E(ZPE)  - the the zero temperature vibrational energy from the frequency calculation
    E(vib)  - the the finite temperature correction to E(ZPE) due to population
              of excietd vibrational states
    E(rot)  - is the rotational thermal energy
    E(trans)- is the translational thermal energy

Summary of contributions to the inner energy U:
Electronic energy                ...   -341.94635036 Eh
Zero point energy                ...      0.13862265 Eh      86.99 kcal/mol
Thermal vibrational correction   ...      0.00485963 Eh       3.05 kcal/mol
Thermal rotational correction    ...      0.00141627 Eh       0.89 kcal/mol
Thermal translational correction ...      0.00141627 Eh       0.89 kcal/mol
-----------------------------------------------------------------------
Total thermal energy                   -341.80003554 Eh

Summary of corrections to the electronic energy:
(perhaps to be used in another calculation)
Total thermal correction                  0.00769217 Eh       4.83 kcal/mol
Non-thermal (ZPE) correction              0.13862265 Eh      86.99 kcal/mol
-----------------------------------------------------------------------
Total correction                          0.14631482 Eh      91.81 kcal/mol

--------
ENTHALPY
--------

The enthalpy is H = U + kB*T
                kB is Boltzmann's constant
Total free energy                 ...   -341.80003554 Eh
Thermal Enthalpy correction       ...      0.00094421 Eh       0.59 kcal/mol
-----------------------------------------------------------------------
Total Enthalpy                    ...   -341.79909133 Eh

-------
ENTROPY
-------

The entropy contributions are T*S = T*(S(el)+S(vib)+S(rot)+S(trans)
     S(el)   - electronic entropy
     S(vib)  - vibrational entropy
     S(rot)  - rotational entropy
     S(trans)- translational entropy
The entropies will be listed as mutliplied by the temperature to get
units of energy

Electronic entropy                ...      0.00000000 Eh      0.00 kcal/mol
Vibrational entropy               ...      0.00978373 Eh      6.14 kcal/mol
Rotational entropy                ...      0.01204908 Eh      7.56 kcal/mol
Translational entropy             ...      0.01888714 Eh     11.85 kcal/mol
-----------------------------------------------------------------------
Final entropy term                ...      0.04071996 Eh     25.55 kcal/mol

CAUTION: The rotational entropy is not quite correctly treated here
         because it includes a symmetry number that is not yet correctly
         implemented in ORCA!
For a nonlinear molecule the correct rotational entropy is:
    S(rot) = R*(ln(qrot/sn)+1.5)
    R    = 8.31441 J/mol/K = 1.987191683e-3 kcal/mol/K
    qrot = 233287.2604084
    sn is the rotational symmetry number. We have assumed 3 here
       if it is different for your molecule then you should correct
       the printed rotational entropy by manually evaluating the equation
       as given above

For convenience we print out the resulting values for sn=1 - 12:
 sn= 1  qrot/sn=  233287.2604 T*S(rot)=     8.21 kcal/mol T*S(tot)=    26.20 kcal/mol
 sn= 2  qrot/sn=  116643.6302 T*S(rot)=     7.80 kcal/mol T*S(tot)=    25.79 kcal/mol
 sn= 3  qrot/sn=   77762.4201 T*S(rot)=     7.56 kcal/mol T*S(tot)=    25.55 kcal/mol
 sn= 4  qrot/sn=   58321.8151 T*S(rot)=     7.39 kcal/mol T*S(tot)=    25.38 kcal/mol
 sn= 5  qrot/sn=   46657.4521 T*S(rot)=     7.26 kcal/mol T*S(tot)=    25.25 kcal/mol
 sn= 6  qrot/sn=   38881.2101 T*S(rot)=     7.15 kcal/mol T*S(tot)=    25.14 kcal/mol
 sn= 7  qrot/sn=   33326.7515 T*S(rot)=     7.06 kcal/mol T*S(tot)=    25.05 kcal/mol
 sn= 8  qrot/sn=   29160.9076 T*S(rot)=     6.98 kcal/mol T*S(tot)=    24.97 kcal/mol
 sn= 9  qrot/sn=   25920.8067 T*S(rot)=     6.91 kcal/mol T*S(tot)=    24.90 kcal/mol
 sn=10  qrot/sn=   23328.7260 T*S(rot)=     6.85 kcal/mol T*S(tot)=    24.84 kcal/mol
 sn=11  qrot/sn=   21207.9328 T*S(rot)=     6.79 kcal/mol T*S(tot)=    24.78 kcal/mol
 sn=12  qrot/sn=   19440.6050 T*S(rot)=     6.74 kcal/mol T*S(tot)=    24.73 kcal/mol

-------------------
GIBBS FREE ENTHALPY
-------------------

The Gibbs free enthalpy is G = H - T*S

Total enthalpy                    ...   -341.79909133 Eh
Total entropy correction          ...     -0.04071996 Eh    -25.55 kcal/mol
-----------------------------------------------------------------------
Final Gibbs free enthalpy         ...   -341.83981129 Eh

For completeness - the Gibbs free enthalpy minus the electronic energy
G-E(el)                           ...      0.10653907 Eh     66.85 kcal/mol

                             ****ORCA TERMINATED NORMALLY****
TOTAL RUN TIME: 0 days 0 hours 32 minutes 22 seconds 751 msec
