                         Program Version 3.0.3 - RELEASE   -
|  1> ! NORI PBE0 def2-TZVP UseSym TightOPT Freq TightSCF Grid3 FinalGrid5 XYZFile
|  2> % pal
|  3>     nprocs 8
|  4> end
|  5> %method
|  6>     SymThresh 5.0e-2
|  7> end
|  8> % geom
|  9>     MaxIter 10
| 10> end
| 11> % maxcore 2000
| 12> % output
| 13>     printlevel mini
| 14>     print[ P_Basis ] 0
| 15>     print[ P_SCFInfo ] 1
| 16>     print[ P_SCFIterInfo ] 1
| 17>     print[ P_OrbEn ] 0
| 18>     print[ P_Cartesian ] 0
| 19> end
| 20> % elprop
| 21>     Dipole false
| 22> end
| 23> *xyz 1 1
| 24>  C        1.3182867608     0.4442906549     0.4077581036
| 25>  O        1.4631983142    -0.5849737269    -0.5531430870
| 26>  C        2.5799325693    -0.4579930337    -1.3262427840
| 27>  C        2.5896222045    -1.1971259105    -2.6058750399
| 28>  C        2.4650123345     0.3153978966    -2.6278766779
| 29>  C        3.5978186382     1.1440664102    -3.1111345299
| 30>  N        3.7060919375     1.0388496125    -4.6236472325
| 31>  H        0.4219340878     0.2167154015     0.9808872176
| 32>  H        1.2005006148     1.4225241796    -0.0730211347
| 33>  H        2.1800302737     0.4753292074     1.0840771745
| 34>  H        3.5225621580    -0.3660921030    -0.7845980052
| 35>  H        3.5237079039    -1.6568526565    -2.9120909763
| 36>  H        1.6990061725    -1.7629082771    -2.8472803876
| 37>  H        1.4704384256     0.7054714731    -2.8210308068
| 38>  H        3.4847118995     2.2061588457    -2.8885611155
| 39>  H        4.5575672896     0.8018276442    -2.7210721881
| 40>  H        2.8674735520     1.4141409655    -5.0708635386
| 41>  H        3.7762779944     0.0548205658    -4.8931053349
| 42>  H        4.5154068693     1.5384628507    -4.9977396568
| 43> *
| 44>
| 45>                          ****END OF INPUT****
 Total Charge           Charge          ....    1
 Multiplicity           Mult            ....    1
 Number of Electrons    NEL             ....   56
FINAL SINGLE POINT ENERGY      -327.183580043329
FINAL SINGLE POINT ENERGY      -327.183581525235
FINAL SINGLE POINT ENERGY      -327.183582799046

CARTESIAN COORDINATES (ANGSTROEM)
---------------------------------
  C     -0.740052   -1.120292    2.455504
  O      0.000362   -0.001011    2.003788
  C     -0.369541    0.437105    0.765916
  C      0.600895    1.289128    0.047248
  C      0.357228   -0.127757   -0.441198
  C     -0.370652   -0.354120   -1.715273
  N      0.522426    0.006460   -2.891699
  H     -0.380817   -1.351794    3.455958
  H     -0.582778   -1.988972    1.805360
  H     -1.810364   -0.891466    2.501497
  H     -1.430860    0.655490    0.638645
  H      0.207577    2.122954   -0.525103
  H      1.544065    1.477428    0.543729
  H      1.126356   -0.852593   -0.193404
  H     -0.668108   -1.392720   -1.867323
  H     -1.252115    0.282559   -1.806906
  H      1.339642   -0.605991   -2.923069
  H      0.866891    0.962792   -2.777693
  H      0.039295   -0.062581   -3.789702

FINAL SINGLE POINT ENERGY      -327.183583102603
                    ***********************HURRAY********************
 Multiplicity           Mult            ....    1
 Number of Electrons    NEL             ....   56
 Basis Dimension        Dim             ....  289
FINAL SINGLE POINT ENERGY      -327.183583258742

VIBRATIONAL FREQUENCIES
-----------------------

   0:         0.00 cm**-1
   1:         0.00 cm**-1
   2:         0.00 cm**-1
   3:         0.00 cm**-1
   4:         0.00 cm**-1
   5:         0.00 cm**-1
   6:        79.89 cm**-1
   7:       117.72 cm**-1
   8:       135.45 cm**-1
   9:       174.15 cm**-1
  10:       209.53 cm**-1
  11:       242.18 cm**-1
  12:       343.07 cm**-1
  13:       410.39 cm**-1
  14:       443.18 cm**-1
  15:       507.52 cm**-1
  16:       796.52 cm**-1
  17:       838.87 cm**-1
  18:       844.04 cm**-1
  19:       878.27 cm**-1
  20:       914.99 cm**-1
  21:       937.90 cm**-1
  22:      1029.70 cm**-1
  23:      1035.37 cm**-1
  24:      1072.61 cm**-1
  25:      1098.55 cm**-1
  26:      1109.98 cm**-1
  27:      1143.17 cm**-1
  28:      1177.03 cm**-1
  29:      1186.23 cm**-1
  30:      1212.55 cm**-1
  31:      1244.30 cm**-1
  32:      1280.68 cm**-1
  33:      1328.52 cm**-1
  34:      1356.77 cm**-1
  35:      1401.85 cm**-1
  36:      1429.20 cm**-1
  37:      1465.30 cm**-1
  38:      1486.39 cm**-1
  39:      1488.15 cm**-1
  40:      1490.20 cm**-1
  41:      1493.42 cm**-1
  42:      1509.78 cm**-1
  43:      1649.40 cm**-1
  44:      1663.00 cm**-1
  45:      3018.45 cm**-1
  46:      3084.16 cm**-1
  47:      3094.26 cm**-1
  48:      3104.34 cm**-1
  49:      3145.53 cm**-1
  50:      3151.22 cm**-1
  51:      3170.78 cm**-1
  52:      3176.66 cm**-1
  53:      3245.93 cm**-1
  54:      3417.82 cm**-1
  55:      3502.30 cm**-1
  56:      3512.37 cm**-1

IR SPECTRUM
-----------

 Mode    freq (cm**-1)   T**2         TX         TY         TZ
-------------------------------------------------------------------
   6:        79.89    9.123202  ( -0.951923   2.741469   0.837490)
   7:       117.72    0.146432  ( -0.363832   0.032445  -0.114040)
   8:       135.45    6.619393  ( -2.022705  -0.429755  -1.530807)
   9:       174.15    0.730764  ( -0.295503  -0.210151  -0.774131)
  10:       209.53    0.413037  (  0.126431   0.626666   0.065892)
  11:       242.18    5.319363  (  0.926585  -0.816174  -1.947989)
  12:       343.07    2.921367  ( -0.213075   0.546735  -1.605318)
  13:       410.39   11.923066  (  0.481587   0.021775  -3.419161)
  14:       443.18    4.406737  ( -1.701965   1.224926   0.098014)
  15:       507.52    0.590289  ( -0.602600   0.416633   0.231470)
  16:       796.52   25.410757  ( -0.621677   3.300086   3.759482)
  17:       838.87   19.076348  ( -0.194081  -1.475874   4.106151)
  18:       844.04   14.277618  (  1.590089  -1.068404  -3.256954)
  19:       878.27   16.516571  ( -1.237503   0.217357  -3.864960)
  20:       914.99   48.047403  (  0.820021   3.803304   5.736711)
  21:       937.90    3.338111  (  0.895110   0.863580   1.338327)
  22:      1029.70    6.404368  ( -1.249812   1.672590   1.429959)
  23:      1035.37   40.920924  ( -5.142243  -1.784114   3.360833)
  24:      1072.61    8.594243  (  0.545856   1.653805  -2.358223)
  25:      1098.55    8.499934  (  0.148338   2.372374   1.688127)
  26:      1109.98   36.559290  (  0.058171   1.523659  -5.851014)
  27:      1143.17   27.562301  (  2.562419   4.112312  -2.021188)
  28:      1177.03    8.005805  (  1.810439   0.462777  -2.124607)
  29:      1186.23   18.041257  ( -1.283107  -4.000150   0.627453)
  30:      1212.55   16.607943  (  1.718997  -0.493640   3.661873)
  31:      1244.30    4.135627  ( -1.764470   0.517366   0.868681)
  32:      1280.68  111.739816  (  1.189355   4.761789  -9.362191)
  33:      1328.52    5.527371  ( -0.262681  -1.972113   1.252652)
  34:      1356.77   15.325415  (  0.791481  -1.005898  -3.699614)
  35:      1401.85    6.506625  (  0.559396   2.264786  -1.031720)
  36:      1429.20   54.325898  (  0.997922  -0.409817  -7.291234)
  37:      1465.30   17.686857  (  2.069928   1.343777  -3.405366)
  38:      1486.39   17.484221  (  2.966711  -1.590462  -2.480579)
  39:      1488.15   19.746000  (  3.695239   1.729050  -1.761135)
  40:      1490.20  169.690016  (  4.079404   4.069781 -11.682695)
  41:      1493.42   36.209340  (  4.998352   1.000905  -3.197500)
  42:      1509.78   15.417139  ( -0.968291  -2.022157   3.223420)
  43:      1649.40   48.060422  (  3.069910  -6.193870   0.521589)
  44:      1663.00   32.809971  (  3.521731   2.826650   3.523838)
  45:      3018.45   35.512116  ( -3.142699  -5.005336   0.762999)
  46:      3084.16   35.088615  (  4.195970  -3.457014  -2.351915)
  47:      3094.26    3.018936  ( -0.871720  -0.580147  -1.386531)
  48:      3104.34   13.341964  ( -2.945079   1.108797  -1.854465)
  49:      3145.53    4.620753  (  0.969822  -0.991872   1.642068)
  50:      3151.22    0.351520  (  0.142710  -0.513168  -0.260409)
  51:      3170.78    6.583921  ( -0.814005   0.435344  -2.394116)
  52:      3176.66    0.312113  ( -0.066912   0.537294   0.137662)
  53:      3245.93    1.317345  (  0.796734   0.811798  -0.153440)
  54:      3417.82   33.643708  (  2.929095   1.523833  -4.768862)
  55:      3502.30   90.628717  (  0.570138   8.188421   4.822179)
  56:      3512.37   89.164437  ( -7.953260   3.112718  -4.027540)

--------------------------
THERMOCHEMISTRY AT 298.15K
--------------------------

Temperature         ... 298.15 K
Pressure            ... 1.00 atm
Total Mass          ... 102.16 AMU

Throughout the following assumptions are being made:
  (1) The electronic state is orbitally nondegenerate
  (2) There are no thermally accessible electronically excited states
  (3) Hindered rotations indicated by low frequency modes) are not
      treated as such but are treated as vibrations and this may
      case some error
  (4) All equations used are the standard statistical mechanics
      equations for an ideal gas
  (5) All vibrations are strinctly harmonic

------------
INNER ENERGY
------------

The inner energy is: U= E(el) + E(ZPE) + E(vib) + E(rot) + E(trans)
    E(el)   - is the total energy from the electronic structure calculation
              = E(kin-el) + E(nuc-el) + E(el-el) + E(nuc-nuc)
    E(ZPE)  - the the zero temperature vibrational energy from the frequency calculation
    E(vib)  - the the finite temperature correction to E(ZPE) due to population
              of excietd vibrational states
    E(rot)  - is the rotational thermal energy
    E(trans)- is the translational thermal energy

Summary of contributions to the inner energy U:
Electronic energy                ...   -327.18358326 Eh
Zero point energy                ...      0.17507637 Eh     109.86 kcal/mol
Thermal vibrational correction   ...      0.00562703 Eh       3.53 kcal/mol
Thermal rotational correction    ...      0.00141627 Eh       0.89 kcal/mol
Thermal translational correction ...      0.00141627 Eh       0.89 kcal/mol
-----------------------------------------------------------------------
Total thermal energy                   -327.00004731 Eh

Summary of corrections to the electronic energy:
(perhaps to be used in another calculation)
Total thermal correction                  0.00845957 Eh       5.31 kcal/mol
Non-thermal (ZPE) correction              0.17507637 Eh     109.86 kcal/mol
-----------------------------------------------------------------------
Total correction                          0.18353595 Eh     115.17 kcal/mol

--------
ENTHALPY
--------

The enthalpy is H = U + kB*T
                kB is Boltzmann's constant
Total free energy                 ...   -327.00004731 Eh
Thermal Enthalpy correction       ...      0.00094421 Eh       0.59 kcal/mol
-----------------------------------------------------------------------
Total Enthalpy                    ...   -326.99910310 Eh

-------
ENTROPY
-------

The entropy contributions are T*S = T*(S(el)+S(vib)+S(rot)+S(trans)
     S(el)   - electronic entropy
     S(vib)  - vibrational entropy
     S(rot)  - rotational entropy
     S(trans)- translational entropy
The entropies will be listed as mutliplied by the temperature to get
units of energy

Electronic entropy                ...      0.00000000 Eh      0.00 kcal/mol
Vibrational entropy               ...      0.01018490 Eh      6.39 kcal/mol
Rotational entropy                ...      0.01221683 Eh      7.67 kcal/mol
Translational entropy             ...      0.01890147 Eh     11.86 kcal/mol
-----------------------------------------------------------------------
Final entropy term                ...      0.04130319 Eh     25.92 kcal/mol

CAUTION: The rotational entropy is not quite correctly treated here
         because it includes a symmetry number that is not yet correctly
         implemented in ORCA!
For a nonlinear molecule the correct rotational entropy is:
    S(rot) = R*(ln(qrot/sn)+1.5)
    R    = 8.31441 J/mol/K = 1.987191683e-3 kcal/mol/K
    qrot = 278643.7637901
    sn is the rotational symmetry number. We have assumed 3 here
       if it is different for your molecule then you should correct
       the printed rotational entropy by manually evaluating the equation
       as given above

For convenience we print out the resulting values for sn=1 - 12:
 sn= 1  qrot/sn=  278643.7638 T*S(rot)=     8.32 kcal/mol T*S(tot)=    26.57 kcal/mol
 sn= 2  qrot/sn=  139321.8819 T*S(rot)=     7.91 kcal/mol T*S(tot)=    26.16 kcal/mol
 sn= 3  qrot/sn=   92881.2546 T*S(rot)=     7.67 kcal/mol T*S(tot)=    25.92 kcal/mol
 sn= 4  qrot/sn=   69660.9409 T*S(rot)=     7.50 kcal/mol T*S(tot)=    25.75 kcal/mol
 sn= 5  qrot/sn=   55728.7528 T*S(rot)=     7.36 kcal/mol T*S(tot)=    25.62 kcal/mol
 sn= 6  qrot/sn=   46440.6273 T*S(rot)=     7.26 kcal/mol T*S(tot)=    25.51 kcal/mol
 sn= 7  qrot/sn=   39806.2520 T*S(rot)=     7.16 kcal/mol T*S(tot)=    25.42 kcal/mol
 sn= 8  qrot/sn=   34830.4705 T*S(rot)=     7.09 kcal/mol T*S(tot)=    25.34 kcal/mol
 sn= 9  qrot/sn=   30960.4182 T*S(rot)=     7.02 kcal/mol T*S(tot)=    25.27 kcal/mol
 sn=10  qrot/sn=   27864.3764 T*S(rot)=     6.95 kcal/mol T*S(tot)=    25.20 kcal/mol
 sn=11  qrot/sn=   25331.2513 T*S(rot)=     6.90 kcal/mol T*S(tot)=    25.15 kcal/mol
 sn=12  qrot/sn=   23220.3136 T*S(rot)=     6.84 kcal/mol T*S(tot)=    25.10 kcal/mol

-------------------
GIBBS FREE ENTHALPY
-------------------

The Gibbs free enthalpy is G = H - T*S

Total enthalpy                    ...   -326.99910310 Eh
Total entropy correction          ...     -0.04130319 Eh    -25.92 kcal/mol
-----------------------------------------------------------------------
Final Gibbs free enthalpy         ...   -327.04040630 Eh

For completeness - the Gibbs free enthalpy minus the electronic energy
G-E(el)                           ...      0.14317696 Eh     89.84 kcal/mol

                             ****ORCA TERMINATED NORMALLY****
TOTAL RUN TIME: 0 days 0 hours 51 minutes 46 seconds 455 msec
