                         Program Version 3.0.3 - RELEASE   -
|  1> ! NORI PBE0 def2-TZVP UseSym TightOPT Freq TightSCF Grid3 FinalGrid5 XYZFile
|  2> % pal
|  3>     nprocs 8
|  4> end
|  5> %method
|  6>     SymThresh 5.0e-2
|  7> end
|  8> % geom
|  9>     MaxIter 10
| 10> end
| 11> % maxcore 2000
| 12> % output
| 13>     printlevel mini
| 14>     print[ P_Basis ] 0
| 15>     print[ P_SCFInfo ] 1
| 16>     print[ P_SCFIterInfo ] 1
| 17>     print[ P_OrbEn ] 0
| 18>     print[ P_Cartesian ] 0
| 19> end
| 20> % elprop
| 21>     Dipole false
| 22> end
| 23> *xyz 1 1
| 24>  C        1.5908098420    -0.0029784978     0.5211321048
| 25>  O        1.1341351840     1.0201958074    -0.3504415259
| 26>  C        2.0477235753     1.4029215310    -1.2837319848
| 27>  C        1.7698883960     2.6602031648    -2.0343255798
| 28>  C        2.8779053208     2.6439447804    -1.0258809671
| 29>  C        2.8054803439     3.4176252347     0.2513405553
| 30>  N        4.2558309020     2.6362433920    -1.6011447845
| 31>  H        0.7607545310    -0.2433387993     1.1816056895
| 32>  H        2.4432533232     0.3340729557     1.1219143800
| 33>  H        1.8725000804    -0.8983706062    -0.0429462374
| 34>  H        2.5267952130     0.5892904205    -1.8356833589
| 35>  H        0.8866952603     3.2200162604    -1.7517457666
| 36>  H        1.9983645618     2.6827136093    -3.0944837831
| 37>  H        2.9735498486     4.4863241859     0.0901541974
| 38>  H        3.5265305045     3.0538858140     0.9895175846
| 39>  H        1.8107140900     3.2972217948     0.6801058377
| 40>  H        4.3142059274     2.0422502128    -2.4309613247
| 41>  H        4.9352545432     2.2885016727    -0.9190056102
| 42>  H        4.5453085525     3.5796770667    -1.8763394263
| 43> *
| 44>
| 45>                          ****END OF INPUT****
 Total Charge           Charge          ....    1
 Multiplicity           Mult            ....    1
 Number of Electrons    NEL             ....   56
FINAL SINGLE POINT ENERGY      -327.183554120472
FINAL SINGLE POINT ENERGY      -327.183555526051

CARTESIAN COORDINATES (ANGSTROEM)
---------------------------------
  C      0.595951    1.201962    2.077328
  O      0.000696   -0.002051    1.617961
  C      0.516718   -0.463644    0.445958
  C     -0.243768   -1.533972   -0.259515
  C     -0.213970   -0.154332   -0.844316
  C     -1.429068    0.714373   -0.899483
  N      0.644096    0.000823   -2.056622
  H      0.130744    1.435387    3.032330
  H      0.418328    2.026952    1.378529
  H      1.673459    1.072201    2.223937
  H      1.608161   -0.515421    0.399543
  H     -1.187685   -1.838362    0.175915
  H      0.316884   -2.336276   -0.726382
  H     -2.119165    0.400113   -1.687304
  H     -1.171367    1.766529   -1.053976
  H     -1.953913    0.643964    0.052635
  H      1.510669   -0.535257   -1.975610
  H      0.896199    0.981951   -2.203483
  H      0.157061   -0.325222   -2.897046

FINAL SINGLE POINT ENERGY      -327.183556128953
                    ***********************HURRAY********************
 Multiplicity           Mult            ....    1
 Number of Electrons    NEL             ....   56
 Basis Dimension        Dim             ....  289
FINAL SINGLE POINT ENERGY      -327.183556276035

VIBRATIONAL FREQUENCIES
-----------------------

   0:         0.00 cm**-1
   1:         0.00 cm**-1
   2:         0.00 cm**-1
   3:         0.00 cm**-1
   4:         0.00 cm**-1
   5:         0.00 cm**-1
   6:        96.93 cm**-1
   7:       158.67 cm**-1
   8:       162.57 cm**-1
   9:       195.82 cm**-1
  10:       219.46 cm**-1
  11:       238.90 cm**-1
  12:       340.15 cm**-1
  13:       353.19 cm**-1
  14:       384.67 cm**-1
  15:       464.52 cm**-1
  16:       528.34 cm**-1
  17:       704.67 cm**-1
  18:       807.79 cm**-1
  19:       871.66 cm**-1
  20:       900.32 cm**-1
  21:       953.30 cm**-1
  22:       988.95 cm**-1
  23:      1018.76 cm**-1
  24:      1058.83 cm**-1
  25:      1091.47 cm**-1
  26:      1104.03 cm**-1
  27:      1135.98 cm**-1
  28:      1174.98 cm**-1
  29:      1188.80 cm**-1
  30:      1202.77 cm**-1
  31:      1222.28 cm**-1
  32:      1283.66 cm**-1
  33:      1374.00 cm**-1
  34:      1412.59 cm**-1
  35:      1428.22 cm**-1
  36:      1465.44 cm**-1
  37:      1479.26 cm**-1
  38:      1483.62 cm**-1
  39:      1487.89 cm**-1
  40:      1492.95 cm**-1
  41:      1498.65 cm**-1
  42:      1516.58 cm**-1
  43:      1646.65 cm**-1
  44:      1658.26 cm**-1
  45:      3023.68 cm**-1
  46:      3049.01 cm**-1
  47:      3074.11 cm**-1
  48:      3092.19 cm**-1
  49:      3117.66 cm**-1
  50:      3153.10 cm**-1
  51:      3162.90 cm**-1
  52:      3176.13 cm**-1
  53:      3245.99 cm**-1
  54:      3398.71 cm**-1
  55:      3472.85 cm**-1
  56:      3496.97 cm**-1

IR SPECTRUM
-----------

 Mode    freq (cm**-1)   T**2         TX         TY         TZ
-------------------------------------------------------------------
   6:        96.93    2.407006  (  1.026913  -0.954265   0.664705)
   7:       158.67    4.119230  (  1.240467   1.478541   0.628002)
   8:       162.57    0.642903  ( -0.468810  -0.493417  -0.423864)
   9:       195.82    0.207288  (  0.429882  -0.084076  -0.124182)
  10:       219.46    0.685929  (  0.207175   0.663879   0.449746)
  11:       238.90    6.494516  ( -2.435640   0.639386  -0.391609)
  12:       340.15    9.237877  ( -1.385684   0.655621  -2.624485)
  13:       353.19    1.123347  (  0.830042  -0.381588  -0.537371)
  14:       384.67    7.516490  ( -0.348202   1.984108   1.859721)
  15:       464.52    1.551672  (  0.559168  -0.507019   0.990926)
  16:       528.34    6.405871  ( -1.264368  -0.887237   2.005008)
  17:       704.67    6.230659  ( -1.074407   1.706392  -1.471235)
  18:       807.79    3.858033  ( -1.518490  -1.014118   0.723731)
  19:       871.66   13.131323  (  1.243294  -1.785593   2.897792)
  20:       900.32    1.941621  ( -0.755522   1.054102  -0.509583)
  21:       953.30    1.549365  ( -0.119439  -1.016064  -0.709023)
  22:       988.95   25.334385  (  4.074393  -0.944088   2.800429)
  23:      1018.76   14.109973  ( -1.691029  -2.937651   1.618827)
  24:      1058.83    4.048627  (  1.361696   0.519578   1.387245)
  25:      1091.47    5.555816  ( -0.216641  -1.595738   1.721193)
  26:      1104.03   45.723230  (  1.444047   6.223606   2.214652)
  27:      1135.98   22.861405  (  1.268033   2.103449   4.102316)
  28:      1174.98    6.854555  ( -1.855034  -0.385666  -1.806839)
  29:      1188.80   38.242604  (  1.671187   3.901988   4.497136)
  30:      1202.77    5.804882  ( -0.558858  -1.138081  -2.048739)
  31:      1222.28   22.904357  (  1.694501   0.747476  -4.412970)
  32:      1283.66   93.766369  (  0.402779  -4.756603  -8.424895)
  33:      1374.00   14.617077  (  0.580976   1.368312   3.522395)
  34:      1412.59   12.465589  (  1.546712   0.350275   3.154454)
  35:      1428.22   23.017547  ( -4.443937   0.340443   1.775689)
  36:      1465.44   10.576004  (  1.809482   2.537136  -0.929903)
  37:      1479.26    1.417457  ( -0.685143  -0.843636  -0.486122)
  38:      1483.62    8.240081  ( -1.812608  -1.296145  -1.809569)
  39:      1487.89   13.001184  ( -2.571247   1.670131  -1.897507)
  40:      1492.95   18.424453  ( -1.224588  -3.283015  -2.479244)
  41:      1498.65   72.264163  (  5.814559   2.604994  -5.627528)
  42:      1516.58  100.177893  ( -3.552833   2.984992   8.868207)
  43:      1646.65   41.404323  ( -3.910533  -4.216371  -2.886914)
  44:      1658.26   40.114977  ( -3.966582   4.680254  -1.573667)
  45:      3023.68   29.500510  (  2.431352   4.823437   0.568760)
  46:      3049.01    9.289520  (  0.353508  -1.986338   2.284516)
  47:      3074.11   21.973338  ( -4.107041   1.225153   1.898566)
  48:      3092.19   27.968641  (  3.398340  -2.594108   3.112961)
  49:      3117.66    6.137956  ( -1.195637  -1.953516  -0.944554)
  50:      3153.10    2.728109  (  1.077976   0.797646  -0.964281)
  51:      3162.90    1.518332  (  0.950681  -0.479084  -0.620497)
  52:      3176.13    3.578524  (  0.759647  -0.254854  -1.713625)
  53:      3245.99    2.327099  ( -1.242248  -0.744040   0.479920)
  54:      3398.71   25.391228  (  1.551969   0.567238  -4.760343)
  55:      3472.85   72.004377  (  5.284174   5.727452   3.358300)
  56:      3496.97   68.422136  ( -5.314407   6.098975  -1.726764)

--------------------------
THERMOCHEMISTRY AT 298.15K
--------------------------

Temperature         ... 298.15 K
Pressure            ... 1.00 atm
Total Mass          ... 102.16 AMU

Throughout the following assumptions are being made:
  (1) The electronic state is orbitally nondegenerate
  (2) There are no thermally accessible electronically excited states
  (3) Hindered rotations indicated by low frequency modes) are not
      treated as such but are treated as vibrations and this may
      case some error
  (4) All equations used are the standard statistical mechanics
      equations for an ideal gas
  (5) All vibrations are strinctly harmonic

------------
INNER ENERGY
------------

The inner energy is: U= E(el) + E(ZPE) + E(vib) + E(rot) + E(trans)
    E(el)   - is the total energy from the electronic structure calculation
              = E(kin-el) + E(nuc-el) + E(el-el) + E(nuc-nuc)
    E(ZPE)  - the the zero temperature vibrational energy from the frequency calculation
    E(vib)  - the the finite temperature correction to E(ZPE) due to population
              of excietd vibrational states
    E(rot)  - is the rotational thermal energy
    E(trans)- is the translational thermal energy

Summary of contributions to the inner energy U:
Electronic energy                ...   -327.18355628 Eh
Zero point energy                ...      0.17373056 Eh     109.02 kcal/mol
Thermal vibrational correction   ...      0.00576389 Eh       3.62 kcal/mol
Thermal rotational correction    ...      0.00141627 Eh       0.89 kcal/mol
Thermal translational correction ...      0.00141627 Eh       0.89 kcal/mol
-----------------------------------------------------------------------
Total thermal energy                   -327.00122929 Eh

Summary of corrections to the electronic energy:
(perhaps to be used in another calculation)
Total thermal correction                  0.00859643 Eh       5.39 kcal/mol
Non-thermal (ZPE) correction              0.17373056 Eh     109.02 kcal/mol
-----------------------------------------------------------------------
Total correction                          0.18232699 Eh     114.41 kcal/mol

--------
ENTHALPY
--------

The enthalpy is H = U + kB*T
                kB is Boltzmann's constant
Total free energy                 ...   -327.00122929 Eh
Thermal Enthalpy correction       ...      0.00094421 Eh       0.59 kcal/mol
-----------------------------------------------------------------------
Total Enthalpy                    ...   -327.00028508 Eh

-------
ENTROPY
-------

The entropy contributions are T*S = T*(S(el)+S(vib)+S(rot)+S(trans)
     S(el)   - electronic entropy
     S(vib)  - vibrational entropy
     S(rot)  - rotational entropy
     S(trans)- translational entropy
The entropies will be listed as mutliplied by the temperature to get
units of energy

Electronic entropy                ...      0.00000000 Eh      0.00 kcal/mol
Vibrational entropy               ...      0.00996472 Eh      6.25 kcal/mol
Rotational entropy                ...      0.01208957 Eh      7.59 kcal/mol
Translational entropy             ...      0.01890147 Eh     11.86 kcal/mol
-----------------------------------------------------------------------
Final entropy term                ...      0.04095575 Eh     25.70 kcal/mol

CAUTION: The rotational entropy is not quite correctly treated here
         because it includes a symmetry number that is not yet correctly
         implemented in ORCA!
For a nonlinear molecule the correct rotational entropy is:
    S(rot) = R*(ln(qrot/sn)+1.5)
    R    = 8.31441 J/mol/K = 1.987191683e-3 kcal/mol/K
    qrot = 243507.7131762
    sn is the rotational symmetry number. We have assumed 3 here
       if it is different for your molecule then you should correct
       the printed rotational entropy by manually evaluating the equation
       as given above

For convenience we print out the resulting values for sn=1 - 12:
 sn= 1  qrot/sn=  243507.7132 T*S(rot)=     8.24 kcal/mol T*S(tot)=    26.35 kcal/mol
 sn= 2  qrot/sn=  121753.8566 T*S(rot)=     7.83 kcal/mol T*S(tot)=    25.94 kcal/mol
 sn= 3  qrot/sn=   81169.2377 T*S(rot)=     7.59 kcal/mol T*S(tot)=    25.70 kcal/mol
 sn= 4  qrot/sn=   60876.9283 T*S(rot)=     7.42 kcal/mol T*S(tot)=    25.53 kcal/mol
 sn= 5  qrot/sn=   48701.5426 T*S(rot)=     7.28 kcal/mol T*S(tot)=    25.40 kcal/mol
 sn= 6  qrot/sn=   40584.6189 T*S(rot)=     7.18 kcal/mol T*S(tot)=    25.29 kcal/mol
 sn= 7  qrot/sn=   34786.8162 T*S(rot)=     7.08 kcal/mol T*S(tot)=    25.20 kcal/mol
 sn= 8  qrot/sn=   30438.4641 T*S(rot)=     7.01 kcal/mol T*S(tot)=    25.12 kcal/mol
 sn= 9  qrot/sn=   27056.4126 T*S(rot)=     6.94 kcal/mol T*S(tot)=    25.05 kcal/mol
 sn=10  qrot/sn=   24350.7713 T*S(rot)=     6.87 kcal/mol T*S(tot)=    24.99 kcal/mol
 sn=11  qrot/sn=   22137.0648 T*S(rot)=     6.82 kcal/mol T*S(tot)=    24.93 kcal/mol
 sn=12  qrot/sn=   20292.3094 T*S(rot)=     6.76 kcal/mol T*S(tot)=    24.88 kcal/mol

-------------------
GIBBS FREE ENTHALPY
-------------------

The Gibbs free enthalpy is G = H - T*S

Total enthalpy                    ...   -327.00028508 Eh
Total entropy correction          ...     -0.04095575 Eh    -25.70 kcal/mol
-----------------------------------------------------------------------
Final Gibbs free enthalpy         ...   -327.04124083 Eh

For completeness - the Gibbs free enthalpy minus the electronic energy
G-E(el)                           ...      0.14231545 Eh     89.30 kcal/mol

                             ****ORCA TERMINATED NORMALLY****
TOTAL RUN TIME: 0 days 0 hours 53 minutes 47 seconds 232 msec
