                         Program Version 3.0.3 - RELEASE   -
|  1> ! NORI PBE0 def2-TZVP UseSym TightOPT Freq TightSCF Grid3 FinalGrid5 XYZFile
|  2> % pal
|  3>     nprocs 8
|  4> end
|  5> %method
|  6>     SymThresh 5.0e-2
|  7> end
|  8> % geom
|  9>     MaxIter 10
| 10> end
| 11> % maxcore 2000
| 12> % output
| 13>     printlevel mini
| 14>     print[ P_Basis ] 0
| 15>     print[ P_SCFInfo ] 1
| 16>     print[ P_SCFIterInfo ] 1
| 17>     print[ P_OrbEn ] 0
| 18>     print[ P_Cartesian ] 0
| 19> end
| 20> % elprop
| 21>     Dipole false
| 22> end
| 23> *xyz 1 1
| 24>  C        1.0611622085    -0.0069893405     0.2097147017
| 25>  O        2.4581937134    -0.1628832342     0.0918313685
| 26>  C        2.8921414887    -0.6327799827    -1.1223779634
| 27>  C        4.4080953198    -0.5970000404    -1.3551307089
| 28>  C        4.2943126776    -1.9408080662    -2.1077606933
| 29>  C        2.9866423440    -2.1594832712    -1.3505181549
| 30>  N        1.8708758916    -2.8559683490    -2.0870800813
| 31>  H        0.8698172404     0.4643534403     1.1717396616
| 32>  H        0.5376701536    -0.9739304411     0.1967147299
| 33>  H        0.6636012518     0.6323218541    -0.5877118795
| 34>  H        2.3592941631    -0.1555333173    -1.9631163227
| 35>  H        4.8090207407     0.2572092763    -1.8952830681
| 36>  H        4.9326418554    -0.7086166156    -0.4057248670
| 37>  H        4.1294420589    -1.7845424527    -3.1777227302
| 38>  H        5.0811376370    -2.6805433889    -1.9720775207
| 39>  H        3.1198628609    -2.6884801931    -0.4060007897
| 40>  H        1.6579934873    -2.3678650487    -2.9598548788
| 41>  H        1.0137375044    -2.8875668330    -1.5307151785
| 42>  H        2.1243974029    -3.8179039963    -2.3260456248
| 43> *
| 44>
| 45>                          ****END OF INPUT****
 Total Charge           Charge          ....    1
 Multiplicity           Mult            ....    1
 Number of Electrons    NEL             ....   56
FINAL SINGLE POINT ENERGY      -327.190130177982
FINAL SINGLE POINT ENERGY      -327.190131200274

CARTESIAN COORDINATES (ANGSTROEM)
---------------------------------
  C      1.189173   -0.592713    2.095126
  O      0.000026    0.000199    1.621256
  C     -0.346075   -0.332906    0.335696
  C     -1.741025    0.112979   -0.122199
  C     -1.155303    0.409132   -1.519526
  C      0.206718    0.510244   -0.836976
  N      1.401299   -0.000694   -1.601405
  H      1.281724   -0.331303    3.147237
  H      2.076725   -0.207868    1.571563
  H      1.155511   -1.684196    1.998481
  H     -0.196950   -1.407772    0.133929
  H     -2.544825   -0.615182   -0.050503
  H     -2.027884    1.027509    0.397716
  H     -1.224006   -0.465482   -2.172420
  H     -1.511650    1.284794   -2.057775
  H      0.450166    1.521922   -0.510414
  H      1.256535   -0.972362   -1.884296
  H      2.253559    0.036636   -1.038174
  H      1.563323    0.546624   -2.450487

FINAL SINGLE POINT ENERGY      -327.190131541231
                    ***********************HURRAY********************
 Multiplicity           Mult            ....    1
 Number of Electrons    NEL             ....   56
 Basis Dimension        Dim             ....  289
FINAL SINGLE POINT ENERGY      -327.190131680676

VIBRATIONAL FREQUENCIES
-----------------------

   0:         0.00 cm**-1
   1:         0.00 cm**-1
   2:         0.00 cm**-1
   3:         0.00 cm**-1
   4:         0.00 cm**-1
   5:         0.00 cm**-1
   6:        57.85 cm**-1
   7:       126.78 cm**-1
   8:       174.43 cm**-1
   9:       188.72 cm**-1
  10:       226.54 cm**-1
  11:       311.57 cm**-1
  12:       339.78 cm**-1
  13:       429.89 cm**-1
  14:       495.66 cm**-1
  15:       608.03 cm**-1
  16:       782.38 cm**-1
  17:       799.47 cm**-1
  18:       896.23 cm**-1
  19:       931.88 cm**-1
  20:       954.84 cm**-1
  21:       971.90 cm**-1
  22:      1019.27 cm**-1
  23:      1059.55 cm**-1
  24:      1078.22 cm**-1
  25:      1149.67 cm**-1
  26:      1169.80 cm**-1
  27:      1185.48 cm**-1
  28:      1196.98 cm**-1
  29:      1215.42 cm**-1
  30:      1240.51 cm**-1
  31:      1263.62 cm**-1
  32:      1269.78 cm**-1
  33:      1282.93 cm**-1
  34:      1305.88 cm**-1
  35:      1383.39 cm**-1
  36:      1413.04 cm**-1
  37:      1472.96 cm**-1
  38:      1476.60 cm**-1
  39:      1486.09 cm**-1
  40:      1490.12 cm**-1
  41:      1495.93 cm**-1
  42:      1503.43 cm**-1
  43:      1654.23 cm**-1
  44:      1655.96 cm**-1
  45:      2967.76 cm**-1
  46:      2987.56 cm**-1
  47:      3063.30 cm**-1
  48:      3076.99 cm**-1
  49:      3111.97 cm**-1
  50:      3130.65 cm**-1
  51:      3162.93 cm**-1
  52:      3168.57 cm**-1
  53:      3182.85 cm**-1
  54:      3413.72 cm**-1
  55:      3496.12 cm**-1
  56:      3504.75 cm**-1

IR SPECTRUM
-----------

 Mode    freq (cm**-1)   T**2         TX         TY         TZ
-------------------------------------------------------------------
   6:        57.85    0.762602  (  0.765991   0.303771   0.289108)
   7:       126.78    2.895684  (  0.396881   0.627653   1.531085)
   8:       174.43    0.914561  (  0.058577  -0.081413  -0.951053)
   9:       188.72    0.320951  (  0.142456   0.312097  -0.450836)
  10:       226.54    9.609335  (  0.877477   2.282517  -1.905121)
  11:       311.57    6.161894  ( -0.691766   0.142466  -2.379718)
  12:       339.78    3.610142  (  0.057435   0.992213   1.619369)
  13:       429.89    4.868259  ( -2.202026   0.113972   0.079709)
  14:       495.66    6.342775  ( -1.399974  -0.591475   2.008234)
  15:       608.03    1.197697  ( -0.025527   0.950256  -0.542271)
  16:       782.38    8.622625  (  0.882146   2.447037  -1.362518)
  17:       799.47    2.446296  ( -0.747751   1.233706  -0.604264)
  18:       896.23   14.720714  (  2.752616  -0.503923   2.624858)
  19:       931.88   26.917756  (  3.295873   2.365501  -3.234097)
  20:       954.84    2.406381  (  0.856786   1.285055  -0.144680)
  21:       971.90    3.162708  ( -0.926080  -0.088105  -1.515692)
  22:      1019.27   38.630635  (  4.344171  -3.483275  -2.761450)
  23:      1059.55    7.076077  ( -2.159784   1.472561  -0.492923)
  24:      1078.22   11.635314  (  2.553049  -1.627329   1.571323)
  25:      1149.67    7.526506  (  1.662920  -1.353580   1.711440)
  26:      1169.80    5.427098  ( -1.731677  -1.267895  -0.905999)
  27:      1185.48   43.709427  (  3.550142  -1.624967   5.335298)
  28:      1196.98   12.344268  ( -2.473076   0.593135  -2.424119)
  29:      1215.42   18.692424  ( -3.299043   0.502216  -2.748913)
  30:      1240.51   37.905470  ( -1.588657   0.548169  -5.922934)
  31:      1263.62   42.042672  ( -2.629955   0.395809  -5.913488)
  32:      1269.78   22.778587  ( -3.155303   0.108716  -3.579222)
  33:      1282.93    5.666801  (  1.865465   0.275175   1.452969)
  34:      1305.88   20.595131  (  1.764733  -0.265341   4.172582)
  35:      1383.39   34.775211  ( -0.168193   2.227827  -5.457445)
  36:      1413.04   33.634851  (  4.809389  -0.097170   3.239627)
  37:      1472.96   14.012136  (  0.103112  -1.097036   3.577431)
  38:      1476.60    2.644203  ( -1.343730  -0.001353  -0.915747)
  39:      1486.09   42.054367  (  5.441296  -3.467925  -0.648192)
  40:      1490.12   26.786231  ( -1.016206   3.423600   3.746001)
  41:      1495.93   97.379561  ( -8.346177   1.655675   4.997963)
  42:      1503.43   29.303918  ( -0.778635   0.908043   5.279498)
  43:      1654.23   41.921200  ( -0.313890   5.071544  -4.012743)
  44:      1655.96   46.197822  (  4.126903   4.192845   3.403901)
  45:      2967.76   28.189241  ( -1.437286  -4.507192  -2.410119)
  46:      2987.56   59.443559  ( -7.276850   1.417835   2.116781)
  47:      3063.30   35.362686  ( -1.900176  -5.156064   2.273109)
  48:      3076.99    9.079129  (  0.681377  -1.469726  -2.540622)
  49:      3111.97    1.875035  ( -0.877532   0.286230   1.011457)
  50:      3130.65    0.979781  (  0.431426   0.044806   0.889745)
  51:      3162.93    2.533158  ( -0.883900   1.095943  -0.742151)
  52:      3168.57    3.495896  ( -0.366841  -0.520556  -1.757938)
  53:      3182.85    1.540161  ( -0.894938  -0.850334   0.127198)
  54:      3413.72   36.817170  (  4.854607  -0.765318  -3.558687)
  55:      3496.12   87.038100  (  0.474979  -7.496683   5.532833)
  56:      3504.75   81.386577  ( -5.475554  -3.936040  -5.992702)

--------------------------
THERMOCHEMISTRY AT 298.15K
--------------------------

Temperature         ... 298.15 K
Pressure            ... 1.00 atm
Total Mass          ... 102.16 AMU

Throughout the following assumptions are being made:
  (1) The electronic state is orbitally nondegenerate
  (2) There are no thermally accessible electronically excited states
  (3) Hindered rotations indicated by low frequency modes) are not
      treated as such but are treated as vibrations and this may
      case some error
  (4) All equations used are the standard statistical mechanics
      equations for an ideal gas
  (5) All vibrations are strinctly harmonic

------------
INNER ENERGY
------------

The inner energy is: U= E(el) + E(ZPE) + E(vib) + E(rot) + E(trans)
    E(el)   - is the total energy from the electronic structure calculation
              = E(kin-el) + E(nuc-el) + E(el-el) + E(nuc-nuc)
    E(ZPE)  - the the zero temperature vibrational energy from the frequency calculation
    E(vib)  - the the finite temperature correction to E(ZPE) due to population
              of excietd vibrational states
    E(rot)  - is the rotational thermal energy
    E(trans)- is the translational thermal energy

Summary of contributions to the inner energy U:
Electronic energy                ...   -327.19013168 Eh
Zero point energy                ...      0.17549177 Eh     110.12 kcal/mol
Thermal vibrational correction   ...      0.00529139 Eh       3.32 kcal/mol
Thermal rotational correction    ...      0.00141627 Eh       0.89 kcal/mol
Thermal translational correction ...      0.00141627 Eh       0.89 kcal/mol
-----------------------------------------------------------------------
Total thermal energy                   -327.00651598 Eh

Summary of corrections to the electronic energy:
(perhaps to be used in another calculation)
Total thermal correction                  0.00812393 Eh       5.10 kcal/mol
Non-thermal (ZPE) correction              0.17549177 Eh     110.12 kcal/mol
-----------------------------------------------------------------------
Total correction                          0.18361570 Eh     115.22 kcal/mol

--------
ENTHALPY
--------

The enthalpy is H = U + kB*T
                kB is Boltzmann's constant
Total free energy                 ...   -327.00651598 Eh
Thermal Enthalpy correction       ...      0.00094421 Eh       0.59 kcal/mol
-----------------------------------------------------------------------
Total Enthalpy                    ...   -327.00557177 Eh

-------
ENTROPY
-------

The entropy contributions are T*S = T*(S(el)+S(vib)+S(rot)+S(trans)
     S(el)   - electronic entropy
     S(vib)  - vibrational entropy
     S(rot)  - rotational entropy
     S(trans)- translational entropy
The entropies will be listed as mutliplied by the temperature to get
units of energy

Electronic entropy                ...      0.00000000 Eh      0.00 kcal/mol
Vibrational entropy               ...      0.00961083 Eh      6.03 kcal/mol
Rotational entropy                ...      0.01213162 Eh      7.61 kcal/mol
Translational entropy             ...      0.01890147 Eh     11.86 kcal/mol
-----------------------------------------------------------------------
Final entropy term                ...      0.04064391 Eh     25.50 kcal/mol

CAUTION: The rotational entropy is not quite correctly treated here
         because it includes a symmetry number that is not yet correctly
         implemented in ORCA!
For a nonlinear molecule the correct rotational entropy is:
    S(rot) = R*(ln(qrot/sn)+1.5)
    R    = 8.31441 J/mol/K = 1.987191683e-3 kcal/mol/K
    qrot = 254597.7582126
    sn is the rotational symmetry number. We have assumed 3 here
       if it is different for your molecule then you should correct
       the printed rotational entropy by manually evaluating the equation
       as given above

For convenience we print out the resulting values for sn=1 - 12:
 sn= 1  qrot/sn=  254597.7582 T*S(rot)=     8.26 kcal/mol T*S(tot)=    26.16 kcal/mol
 sn= 2  qrot/sn=  127298.8791 T*S(rot)=     7.85 kcal/mol T*S(tot)=    25.74 kcal/mol
 sn= 3  qrot/sn=   84865.9194 T*S(rot)=     7.61 kcal/mol T*S(tot)=    25.50 kcal/mol
 sn= 4  qrot/sn=   63649.4396 T*S(rot)=     7.44 kcal/mol T*S(tot)=    25.33 kcal/mol
 sn= 5  qrot/sn=   50919.5516 T*S(rot)=     7.31 kcal/mol T*S(tot)=    25.20 kcal/mol
 sn= 6  qrot/sn=   42432.9597 T*S(rot)=     7.20 kcal/mol T*S(tot)=    25.09 kcal/mol
 sn= 7  qrot/sn=   36371.1083 T*S(rot)=     7.11 kcal/mol T*S(tot)=    25.00 kcal/mol
 sn= 8  qrot/sn=   31824.7198 T*S(rot)=     7.03 kcal/mol T*S(tot)=    24.92 kcal/mol
 sn= 9  qrot/sn=   28288.6398 T*S(rot)=     6.96 kcal/mol T*S(tot)=    24.85 kcal/mol
 sn=10  qrot/sn=   25459.7758 T*S(rot)=     6.90 kcal/mol T*S(tot)=    24.79 kcal/mol
 sn=11  qrot/sn=   23145.2507 T*S(rot)=     6.84 kcal/mol T*S(tot)=    24.73 kcal/mol
 sn=12  qrot/sn=   21216.4799 T*S(rot)=     6.79 kcal/mol T*S(tot)=    24.68 kcal/mol

-------------------
GIBBS FREE ENTHALPY
-------------------

The Gibbs free enthalpy is G = H - T*S

Total enthalpy                    ...   -327.00557177 Eh
Total entropy correction          ...     -0.04064391 Eh    -25.50 kcal/mol
-----------------------------------------------------------------------
Final Gibbs free enthalpy         ...   -327.04621568 Eh

For completeness - the Gibbs free enthalpy minus the electronic energy
G-E(el)                           ...      0.14391600 Eh     90.31 kcal/mol

                             ****ORCA TERMINATED NORMALLY****
TOTAL RUN TIME: 0 days 0 hours 53 minutes 18 seconds 492 msec
