                         Program Version 3.0.3 - RELEASE   -
|  1> ! NORI PBE0 def2-TZVP UseSym TightOPT Freq TightSCF Grid3 FinalGrid5 XYZFile
|  2> % pal
|  3>     nprocs 8
|  4> end
|  5> %method
|  6>     SymThresh 5.0e-2
|  7> end
|  8> % geom
|  9>     MaxIter 10
| 10> end
| 11> % maxcore 2000
| 12> % output
| 13>     printlevel mini
| 14>     print[ P_Basis ] 0
| 15>     print[ P_SCFInfo ] 1
| 16>     print[ P_SCFIterInfo ] 1
| 17>     print[ P_OrbEn ] 0
| 18>     print[ P_Cartesian ] 0
| 19> end
| 20> % elprop
| 21>     Dipole false
| 22> end
| 23> *xyz 1 1
| 24>  C        2.4210629232     0.2555036933     0.8827850780
| 25>  O        3.3350856257     0.9857448254     0.0647916641
| 26>  C        2.9416752431     1.2167756609    -1.2574896938
| 27>  C        2.1717675088     0.1531027287    -1.9751491910
| 28>  C        3.9292326834     2.0649544152    -1.9789645319
| 29>  C        2.6502057507     2.6890695174    -1.5093148821
| 30>  N        2.7679208412     3.4993389843    -0.2857748819
| 31>  H        2.8557977456     0.2447182987     1.8805191362
| 32>  H        2.3162904584    -0.7715232589     0.5311092679
| 33>  H        1.4338599084     0.7294015760     0.9167744979
| 34>  H        1.9756094559     0.4670435412    -3.0009612870
| 35>  H        1.2116831472    -0.0562369119    -1.5018750503
| 36>  H        2.7553766112    -0.7689495890    -2.0142416671
| 37>  H        4.8426457490     2.3129933890    -1.4483742860
| 38>  H        4.0462439986     1.9350198307    -3.0468757449
| 39>  H        1.8945441144     3.0426483322    -2.1976370105
| 40>  H        3.1768053773     2.8463653434     0.4138023240
| 41>  H        1.8598262946     3.8172403870     0.0547770638
| 42>  H        3.3748165633     4.3132192363    -0.3963708052
| 43> *
| 44>
| 45>                          ****END OF INPUT****
 Total Charge           Charge          ....    1
 Multiplicity           Mult            ....    1
 Number of Electrons    NEL             ....   56
FINAL SINGLE POINT ENERGY      -327.189998698145

CARTESIAN COORDINATES (ANGSTROEM)
---------------------------------
  C     -0.261407    1.256123    1.772947
  O     -0.000336    0.000303    1.146680
  C     -0.521717   -0.176690   -0.139278
  C     -1.856753    0.416546   -0.462529
  C     -0.103911   -1.481014   -0.721714
  C      0.577784   -0.231301   -1.190163
  N      1.913093   -0.000075   -0.614664
  H      0.281989    1.238421    2.715671
  H     -1.325292    1.376229    1.979904
  H      0.086653    2.097662    1.163697
  H     -2.138315    0.158284   -1.484179
  H     -1.859097    1.504217   -0.381324
  H     -2.618420    0.010076    0.206078
  H      0.450542   -2.152079   -0.073734
  H     -0.762098   -1.971962   -1.426434
  H      0.464329    0.143955   -2.198095
  H      1.752500   -0.008509    0.413549
  H      2.294642    0.909045   -0.878979
  H      2.591824   -0.720851   -0.865135

FINAL SINGLE POINT ENERGY      -327.189999283702
                    ***********************HURRAY********************
 Multiplicity           Mult            ....    1
 Number of Electrons    NEL             ....   56
 Basis Dimension        Dim             ....  289
FINAL SINGLE POINT ENERGY      -327.189999424537

VIBRATIONAL FREQUENCIES
-----------------------

   0:         0.00 cm**-1
   1:         0.00 cm**-1
   2:         0.00 cm**-1
   3:         0.00 cm**-1
   4:         0.00 cm**-1
   5:         0.00 cm**-1
   6:        97.41 cm**-1
   7:       193.65 cm**-1
   8:       222.57 cm**-1
   9:       238.62 cm**-1
  10:       261.14 cm**-1
  11:       310.90 cm**-1
  12:       336.71 cm**-1
  13:       362.18 cm**-1
  14:       443.28 cm**-1
  15:       475.82 cm**-1
  16:       584.73 cm**-1
  17:       707.46 cm**-1
  18:       797.59 cm**-1
  19:       836.35 cm**-1
  20:       903.16 cm**-1
  21:       939.39 cm**-1
  22:       986.22 cm**-1
  23:      1010.73 cm**-1
  24:      1066.95 cm**-1
  25:      1095.71 cm**-1
  26:      1117.93 cm**-1
  27:      1121.18 cm**-1
  28:      1163.34 cm**-1
  29:      1176.05 cm**-1
  30:      1199.17 cm**-1
  31:      1210.36 cm**-1
  32:      1289.61 cm**-1
  33:      1317.62 cm**-1
  34:      1406.82 cm**-1
  35:      1428.63 cm**-1
  36:      1456.53 cm**-1
  37:      1473.05 cm**-1
  38:      1475.16 cm**-1
  39:      1483.70 cm**-1
  40:      1491.28 cm**-1
  41:      1506.67 cm**-1
  42:      1507.39 cm**-1
  43:      1645.51 cm**-1
  44:      1666.99 cm**-1
  45:      3034.35 cm**-1
  46:      3067.90 cm**-1
  47:      3129.77 cm**-1
  48:      3147.61 cm**-1
  49:      3151.44 cm**-1
  50:      3153.45 cm**-1
  51:      3173.94 cm**-1
  52:      3183.14 cm**-1
  53:      3224.07 cm**-1
  54:      3250.59 cm**-1
  55:      3460.02 cm**-1
  56:      3515.01 cm**-1

IR SPECTRUM
-----------

 Mode    freq (cm**-1)   T**2         TX         TY         TZ
-------------------------------------------------------------------
   6:        97.41    2.458461  (  1.169865   0.977879   0.365556)
   7:       193.65    3.662880  (  0.799811   1.108119  -1.339871)
   8:       222.57    6.579950  (  0.544301  -2.482173  -0.350002)
   9:       238.62   13.021561  (  2.821250  -0.650880  -2.153710)
  10:       261.14   34.440529  (  4.481356  -0.100329  -3.787864)
  11:       310.90    2.918393  (  1.347745  -0.979612   0.377279)
  12:       336.71    3.501109  (  1.266875   0.227987  -1.357998)
  13:       362.18   15.771260  (  3.762852  -0.838020  -0.953902)
  14:       443.28    4.126054  ( -1.603730  -0.881197   0.881814)
  15:       475.82    5.637162  (  2.163349   0.978156  -0.017156)
  16:       584.73    3.040912  ( -1.080957   0.916267   1.016316)
  17:       707.46    8.994824  (  2.662542  -0.547487   1.267261)
  18:       797.59   19.851956  (  1.745533   1.586614  -3.779911)
  19:       836.35    7.368301  ( -1.452799   2.173599   0.730167)
  20:       903.16    8.428285  (  2.737820   0.014490  -0.965618)
  21:       939.39    0.958822  (  0.248061  -0.192282   0.927532)
  22:       986.22    4.112154  ( -0.325038   1.743034  -0.984041)
  23:      1010.73   49.660338  (  4.287235  -1.371958  -5.421963)
  24:      1066.95    3.307520  ( -0.492094  -1.691606  -0.451479)
  25:      1095.71   48.351346  (  0.602875  -5.675037  -3.972637)
  26:      1117.93   15.984774  (  2.486813   1.630188  -2.672643)
  27:      1121.18   64.115458  (  2.585220  -5.649389  -5.051386)
  28:      1163.34    6.507071  (  1.624368  -0.694356  -1.840209)
  29:      1176.05    6.274627  ( -1.775182   1.270700   1.228282)
  30:      1199.17    1.267169  (  0.527263  -0.121165   0.987158)
  31:      1210.36   17.348251  (  0.552862   0.595599  -4.085077)
  32:      1289.61   98.858116  ( -1.979895  -3.834366  -8.957442)
  33:      1317.62   23.807574  ( -3.082139   1.141213   3.606332)
  34:      1406.82    2.978913  (  0.874052  -0.637718   1.344716)
  35:      1428.63   44.930400  ( -5.861343  -0.819096  -3.147085)
  36:      1456.53   75.021786  (  8.313161  -0.050329   2.431176)
  37:      1473.05   16.529642  ( -3.384737   0.864612   2.079819)
  38:      1475.16   19.236990  (  1.781863  -3.909476  -0.882015)
  39:      1483.70    8.676789  (  1.015240  -1.228263   2.477387)
  40:      1491.28   36.613338  ( -5.093479  -3.215975  -0.572115)
  41:      1506.67   22.608965  (  3.960009  -2.494755   0.838746)
  42:      1507.39   13.019995  ( -0.744051   0.501479  -3.494982)
  43:      1645.51   28.845489  (  3.466543   1.948721  -3.609856)
  44:      1666.99   27.946687  ( -1.285866   4.750181   1.931066)
  45:      3034.35   26.359240  ( -0.141933  -5.089468  -0.660617)
  46:      3067.90    2.047855  ( -0.834549   1.160354   0.070432)
  47:      3129.77   13.556037  ( -2.452379  -0.735573   2.645903)
  48:      3147.61    1.362588  ( -0.376794  -0.701403   0.853609)
  49:      3151.44    6.741369  (  0.248790   2.189995   1.372368)
  50:      3153.45    0.204855  ( -0.422932  -0.061101   0.149163)
  51:      3173.94    7.986317  ( -2.591195   0.614080   0.946008)
  52:      3183.14  168.494220  ( -6.255188   1.301858  11.299204)
  53:      3224.07   11.974403  (  1.379703  -0.293867  -3.159821)
  54:      3250.59    2.505573  ( -0.457730  -0.187704  -1.503603)
  55:      3460.02   91.913840  ( -8.056349   0.205361   5.192967)
  56:      3515.01   86.619044  ( -0.476902   9.265278  -0.739072)

--------------------------
THERMOCHEMISTRY AT 298.15K
--------------------------

Temperature         ... 298.15 K
Pressure            ... 1.00 atm
Total Mass          ... 102.16 AMU

Throughout the following assumptions are being made:
  (1) The electronic state is orbitally nondegenerate
  (2) There are no thermally accessible electronically excited states
  (3) Hindered rotations indicated by low frequency modes) are not
      treated as such but are treated as vibrations and this may
      case some error
  (4) All equations used are the standard statistical mechanics
      equations for an ideal gas
  (5) All vibrations are strinctly harmonic

------------
INNER ENERGY
------------

The inner energy is: U= E(el) + E(ZPE) + E(vib) + E(rot) + E(trans)
    E(el)   - is the total energy from the electronic structure calculation
              = E(kin-el) + E(nuc-el) + E(el-el) + E(nuc-nuc)
    E(ZPE)  - the the zero temperature vibrational energy from the frequency calculation
    E(vib)  - the the finite temperature correction to E(ZPE) due to population
              of excietd vibrational states
    E(rot)  - is the rotational thermal energy
    E(trans)- is the translational thermal energy

Summary of contributions to the inner energy U:
Electronic energy                ...   -327.18999942 Eh
Zero point energy                ...      0.17427725 Eh     109.36 kcal/mol
Thermal vibrational correction   ...      0.00530210 Eh       3.33 kcal/mol
Thermal rotational correction    ...      0.00141627 Eh       0.89 kcal/mol
Thermal translational correction ...      0.00141627 Eh       0.89 kcal/mol
-----------------------------------------------------------------------
Total thermal energy                   -327.00758753 Eh

Summary of corrections to the electronic energy:
(perhaps to be used in another calculation)
Total thermal correction                  0.00813464 Eh       5.10 kcal/mol
Non-thermal (ZPE) correction              0.17427725 Eh     109.36 kcal/mol
-----------------------------------------------------------------------
Total correction                          0.18241189 Eh     114.46 kcal/mol

--------
ENTHALPY
--------

The enthalpy is H = U + kB*T
                kB is Boltzmann's constant
Total free energy                 ...   -327.00758753 Eh
Thermal Enthalpy correction       ...      0.00094421 Eh       0.59 kcal/mol
-----------------------------------------------------------------------
Total Enthalpy                    ...   -327.00664332 Eh

-------
ENTROPY
-------

The entropy contributions are T*S = T*(S(el)+S(vib)+S(rot)+S(trans)
     S(el)   - electronic entropy
     S(vib)  - vibrational entropy
     S(rot)  - rotational entropy
     S(trans)- translational entropy
The entropies will be listed as mutliplied by the temperature to get
units of energy

Electronic entropy                ...      0.00000000 Eh      0.00 kcal/mol
Vibrational entropy               ...      0.00881887 Eh      5.53 kcal/mol
Rotational entropy                ...      0.01200543 Eh      7.53 kcal/mol
Translational entropy             ...      0.01890147 Eh     11.86 kcal/mol
-----------------------------------------------------------------------
Final entropy term                ...      0.03972577 Eh     24.93 kcal/mol

CAUTION: The rotational entropy is not quite correctly treated here
         because it includes a symmetry number that is not yet correctly
         implemented in ORCA!
For a nonlinear molecule the correct rotational entropy is:
    S(rot) = R*(ln(qrot/sn)+1.5)
    R    = 8.31441 J/mol/K = 1.987191683e-3 kcal/mol/K
    qrot = 222747.6222039
    sn is the rotational symmetry number. We have assumed 3 here
       if it is different for your molecule then you should correct
       the printed rotational entropy by manually evaluating the equation
       as given above

For convenience we print out the resulting values for sn=1 - 12:
 sn= 1  qrot/sn=  222747.6222 T*S(rot)=     8.18 kcal/mol T*S(tot)=    25.58 kcal/mol
 sn= 2  qrot/sn=  111373.8111 T*S(rot)=     7.77 kcal/mol T*S(tot)=    25.17 kcal/mol
 sn= 3  qrot/sn=   74249.2074 T*S(rot)=     7.53 kcal/mol T*S(tot)=    24.93 kcal/mol
 sn= 4  qrot/sn=   55686.9056 T*S(rot)=     7.36 kcal/mol T*S(tot)=    24.76 kcal/mol
 sn= 5  qrot/sn=   44549.5244 T*S(rot)=     7.23 kcal/mol T*S(tot)=    24.63 kcal/mol
 sn= 6  qrot/sn=   37124.6037 T*S(rot)=     7.12 kcal/mol T*S(tot)=    24.52 kcal/mol
 sn= 7  qrot/sn=   31821.0889 T*S(rot)=     7.03 kcal/mol T*S(tot)=    24.43 kcal/mol
 sn= 8  qrot/sn=   27843.4528 T*S(rot)=     6.95 kcal/mol T*S(tot)=    24.35 kcal/mol
 sn= 9  qrot/sn=   24749.7358 T*S(rot)=     6.88 kcal/mol T*S(tot)=    24.28 kcal/mol
 sn=10  qrot/sn=   22274.7622 T*S(rot)=     6.82 kcal/mol T*S(tot)=    24.21 kcal/mol
 sn=11  qrot/sn=   20249.7838 T*S(rot)=     6.76 kcal/mol T*S(tot)=    24.16 kcal/mol
 sn=12  qrot/sn=   18562.3019 T*S(rot)=     6.71 kcal/mol T*S(tot)=    24.11 kcal/mol

-------------------
GIBBS FREE ENTHALPY
-------------------

The Gibbs free enthalpy is G = H - T*S

Total enthalpy                    ...   -327.00664332 Eh
Total entropy correction          ...     -0.03972577 Eh    -24.93 kcal/mol
-----------------------------------------------------------------------
Final Gibbs free enthalpy         ...   -327.04636910 Eh

For completeness - the Gibbs free enthalpy minus the electronic energy
G-E(el)                           ...      0.14363033 Eh     90.13 kcal/mol

                             ****ORCA TERMINATED NORMALLY****
TOTAL RUN TIME: 0 days 0 hours 53 minutes 47 seconds 368 msec
