                         Program Version 3.0.3 - RELEASE   -
|  1> ! NORI PBE0 def2-TZVP UseSym TightOPT Freq TightSCF Grid3 FinalGrid5 XYZFile
|  2> % pal
|  3>     nprocs 8
|  4> end
|  5> %method
|  6>     SymThresh 5.0e-2
|  7> end
|  8> % geom
|  9>     MaxIter 10
| 10> end
| 11> % maxcore 2000
| 12> % output
| 13>     printlevel mini
| 14>     print[ P_Basis ] 0
| 15>     print[ P_SCFInfo ] 1
| 16>     print[ P_SCFIterInfo ] 1
| 17>     print[ P_OrbEn ] 0
| 18>     print[ P_Cartesian ] 0
| 19> end
| 20> % elprop
| 21>     Dipole false
| 22> end
| 23> *xyz 1 1
| 24>  C        1.3721341380     0.7192478883    -1.0875245184
| 25>  O        1.9339039725    -0.2159379096    -0.1832326698
| 26>  C        2.7351247964    -1.1438327068    -0.7736089773
| 27>  C        3.0245248472    -2.4013596111    -0.0175496090
| 28>  C        2.4814140597    -2.6465996394     1.3620714337
| 29>  C        2.1095201805    -2.4475163683    -1.2053285224
| 30>  N        2.5693098324    -3.1169911579    -2.4474989023
| 31>  H        0.7901175051     1.4206926726    -0.4936717909
| 32>  H        0.7104191733     0.2240599222    -1.8087222845
| 33>  H        2.1552569674     1.2652531929    -1.6248484870
| 34>  H        3.5400125442    -0.7471662648    -1.3987386027
| 35>  H        4.0280085651    -2.7856267507    -0.1902698546
| 36>  H        1.4944289847    -2.2014181748     1.4839042079
| 37>  H        3.1408565578    -2.1957994868     2.1046501737
| 38>  H        2.4151466141    -3.7158006698     1.5695311051
| 39>  H        1.0477975326    -2.5891699851    -1.0469933270
| 40>  H        3.5622672374    -2.9368228830    -2.6113519335
| 41>  H        2.0586614182    -2.7829940756    -3.2690763373
| 42>  H        2.4514250735    -4.1331279924    -2.3938911037
| 43> *
| 44>
| 45>                          ****END OF INPUT****
 Total Charge           Charge          ....    1
 Multiplicity           Mult            ....    1
 Number of Electrons    NEL             ....   56
FINAL SINGLE POINT ENERGY      -327.179418071705
FINAL SINGLE POINT ENERGY      -327.179419898944
FINAL SINGLE POINT ENERGY      -327.179421937284
FINAL SINGLE POINT ENERGY      -327.179422754965

CARTESIAN COORDINATES (ANGSTROEM)
---------------------------------
  C      1.214472    0.165575    2.224021
  O      0.000545    0.003557    1.509457
  C      0.152444   -0.551701    0.276653
  C     -0.963037   -0.385137   -0.706635
  C     -2.227838    0.348537   -0.358406
  C      0.315336    0.374793   -0.902864
  N      1.214050   -0.001305   -2.022755
  H      0.952774    0.575515    3.196842
  H      1.886862    0.862211    1.709551
  H      1.719467   -0.796587    2.361279
  H      0.702508   -1.496419    0.244831
  H     -1.096882   -1.246875   -1.357694
  H     -2.032509    1.168113    0.332532
  H     -2.928701   -0.332674    0.125826
  H     -2.705769    0.747135   -1.254802
  H      0.324601    1.442873   -0.725960
  H      1.248372   -1.016739   -2.136453
  H      2.172242    0.320700   -1.863024
  H      0.892968    0.391810   -2.912260

FINAL SINGLE POINT ENERGY      -327.179423670448
                    ***********************HURRAY********************
 Multiplicity           Mult            ....    1
 Number of Electrons    NEL             ....   56
 Basis Dimension        Dim             ....  289
FINAL SINGLE POINT ENERGY      -327.179423975144

VIBRATIONAL FREQUENCIES
-----------------------

   0:         0.00 cm**-1
   1:         0.00 cm**-1
   2:         0.00 cm**-1
   3:         0.00 cm**-1
   4:         0.00 cm**-1
   5:         0.00 cm**-1
   6:        93.42 cm**-1
   7:       152.62 cm**-1
   8:       161.78 cm**-1
   9:       175.62 cm**-1
  10:       184.37 cm**-1
  11:       216.25 cm**-1
  12:       272.26 cm**-1
  13:       310.61 cm**-1
  14:       381.66 cm**-1
  15:       466.04 cm**-1
  16:       586.58 cm**-1
  17:       807.35 cm**-1
  18:       848.95 cm**-1
  19:       866.38 cm**-1
  20:       960.31 cm**-1
  21:       975.86 cm**-1
  22:      1009.22 cm**-1
  23:      1042.49 cm**-1
  24:      1080.08 cm**-1
  25:      1108.82 cm**-1
  26:      1144.12 cm**-1
  27:      1162.61 cm**-1
  28:      1175.65 cm**-1
  29:      1186.95 cm**-1
  30:      1200.31 cm**-1
  31:      1241.09 cm**-1
  32:      1284.61 cm**-1
  33:      1350.64 cm**-1
  34:      1373.00 cm**-1
  35:      1421.20 cm**-1
  36:      1460.15 cm**-1
  37:      1481.87 cm**-1
  38:      1484.60 cm**-1
  39:      1487.60 cm**-1
  40:      1492.26 cm**-1
  41:      1505.37 cm**-1
  42:      1516.65 cm**-1
  43:      1652.22 cm**-1
  44:      1659.88 cm**-1
  45:      3018.47 cm**-1
  46:      3072.66 cm**-1
  47:      3073.96 cm**-1
  48:      3087.19 cm**-1
  49:      3137.69 cm**-1
  50:      3148.54 cm**-1
  51:      3164.76 cm**-1
  52:      3175.16 cm**-1
  53:      3213.84 cm**-1
  54:      3404.53 cm**-1
  55:      3477.44 cm**-1
  56:      3495.77 cm**-1

IR SPECTRUM
-----------

 Mode    freq (cm**-1)   T**2         TX         TY         TZ
-------------------------------------------------------------------
   6:        93.42    3.825441  ( -0.707055  -1.822306  -0.068664)
   7:       152.62    0.429650  ( -0.369199   0.096183  -0.533001)
   8:       161.78    0.273275  ( -0.222178  -0.076246  -0.467010)
   9:       175.62    0.338667  (  0.366075  -0.331609   0.307719)
  10:       184.37    1.710593  (  0.663430   1.098990   0.250347)
  11:       216.25   11.747361  (  2.015485  -1.560065   2.291588)
  12:       272.26    2.992104  ( -1.698379  -0.327298  -0.022137)
  13:       310.61    2.652679  ( -0.145860   1.574557   0.390094)
  14:       381.66    1.071816  (  0.725082   0.148264   0.723941)
  15:       466.04   11.563710  ( -1.240385  -0.479309   3.129763)
  16:       586.58    0.374538  ( -0.600906  -0.037353   0.109796)
  17:       807.35   12.877241  ( -0.578169  -2.816677   2.146926)
  18:       848.95   10.703709  ( -0.946826  -2.052951   2.364872)
  19:       866.38   11.833760  (  3.358303   0.667759  -0.331151)
  20:       960.31   16.664171  ( -3.698667  -0.332157  -1.695201)
  21:       975.86   21.909621  (  2.665457   2.924492  -2.500461)
  22:      1009.22   13.017694  ( -2.583123   2.472900   0.479516)
  23:      1042.49    5.158006  (  2.170253   0.128751   0.656834)
  24:      1080.08    3.083033  ( -0.193084  -0.846051   1.526417)
  25:      1108.82   64.525680  (  5.058443   0.843897   6.182691)
  26:      1144.12   30.733164  ( -3.137261  -0.941312  -4.472660)
  27:      1162.61    9.398409  ( -2.610851   0.065070  -1.605501)
  28:      1175.65    4.457629  ( -0.036183   1.392435  -1.586646)
  29:      1186.95    1.335442  ( -0.554745  -0.637794  -0.787984)
  30:      1200.31    9.693908  ( -2.581242  -0.584606  -1.639918)
  31:      1241.09    3.468382  ( -0.332629  -1.451686  -1.118190)
  32:      1284.61   93.296098  ( -2.263062  -2.025712  -9.169031)
  33:      1350.64    5.268497  ( -1.209697  -1.434767   1.321580)
  34:      1373.00   39.575835  (  1.712660   0.366990   6.042181)
  35:      1421.20    3.982368  (  1.313811  -1.438897   0.431096)
  36:      1460.15    2.989832  (  1.115515  -0.987111   0.878106)
  37:      1481.87   12.199365  (  0.642402   1.583453  -3.046204)
  38:      1484.60    2.078175  ( -1.415604   0.003027  -0.272453)
  39:      1487.60   14.325237  ( -0.158746  -3.293518   1.858164)
  40:      1492.26   22.382698  ( -0.826359  -1.903264  -4.251754)
  41:      1505.37   62.022124  ( -6.719698   1.784630   3.699038)
  42:      1516.65   91.092639  ( -2.151938   3.635196   8.558455)
  43:      1652.22   35.066726  ( -4.243853   1.900967  -3.666438)
  44:      1659.88   49.343287  (  2.084884   6.705905  -0.165465)
  45:      3018.47   35.115159  (  5.637777   1.160141   1.408796)
  46:      3072.66    5.771899  (  2.067029  -1.006319   0.697574)
  47:      3073.96   20.230279  ( -1.439692   3.834113   1.859340)
  48:      3087.19   27.438891  (  0.530928   4.529487  -2.576966)
  49:      3137.69    5.660759  ( -1.686787   1.257660   1.110765)
  50:      3148.54    3.601107  (  0.274128  -0.890115   1.653377)
  51:      3164.76    3.743736  ( -0.556857  -1.298521  -1.321927)
  52:      3175.16    3.764750  ( -0.461312   0.658202   1.765988)
  53:      3213.84    1.792447  ( -0.108551   1.261247  -0.435797)
  54:      3404.53   34.720154  (  3.206252   0.482665  -4.920075)
  55:      3477.44   85.959416  ( -7.182402   2.391849  -5.352717)
  56:      3495.77   81.658685  ( -2.648101  -8.613611  -0.672267)

--------------------------
THERMOCHEMISTRY AT 298.15K
--------------------------

Temperature         ... 298.15 K
Pressure            ... 1.00 atm
Total Mass          ... 102.16 AMU

Throughout the following assumptions are being made:
  (1) The electronic state is orbitally nondegenerate
  (2) There are no thermally accessible electronically excited states
  (3) Hindered rotations indicated by low frequency modes) are not
      treated as such but are treated as vibrations and this may
      case some error
  (4) All equations used are the standard statistical mechanics
      equations for an ideal gas
  (5) All vibrations are strinctly harmonic

------------
INNER ENERGY
------------

The inner energy is: U= E(el) + E(ZPE) + E(vib) + E(rot) + E(trans)
    E(el)   - is the total energy from the electronic structure calculation
              = E(kin-el) + E(nuc-el) + E(el-el) + E(nuc-nuc)
    E(ZPE)  - the the zero temperature vibrational energy from the frequency calculation
    E(vib)  - the the finite temperature correction to E(ZPE) due to population
              of excietd vibrational states
    E(rot)  - is the rotational thermal energy
    E(trans)- is the translational thermal energy

Summary of contributions to the inner energy U:
Electronic energy                ...   -327.17942398 Eh
Zero point energy                ...      0.17416928 Eh     109.29 kcal/mol
Thermal vibrational correction   ...      0.00592832 Eh       3.72 kcal/mol
Thermal rotational correction    ...      0.00141627 Eh       0.89 kcal/mol
Thermal translational correction ...      0.00141627 Eh       0.89 kcal/mol
-----------------------------------------------------------------------
Total thermal energy                   -326.99649383 Eh

Summary of corrections to the electronic energy:
(perhaps to be used in another calculation)
Total thermal correction                  0.00876086 Eh       5.50 kcal/mol
Non-thermal (ZPE) correction              0.17416928 Eh     109.29 kcal/mol
-----------------------------------------------------------------------
Total correction                          0.18293014 Eh     114.79 kcal/mol

--------
ENTHALPY
--------

The enthalpy is H = U + kB*T
                kB is Boltzmann's constant
Total free energy                 ...   -326.99649383 Eh
Thermal Enthalpy correction       ...      0.00094421 Eh       0.59 kcal/mol
-----------------------------------------------------------------------
Total Enthalpy                    ...   -326.99554962 Eh

-------
ENTROPY
-------

The entropy contributions are T*S = T*(S(el)+S(vib)+S(rot)+S(trans)
     S(el)   - electronic entropy
     S(vib)  - vibrational entropy
     S(rot)  - rotational entropy
     S(trans)- translational entropy
The entropies will be listed as mutliplied by the temperature to get
units of energy

Electronic entropy                ...      0.00000000 Eh      0.00 kcal/mol
Vibrational entropy               ...      0.01049725 Eh      6.59 kcal/mol
Rotational entropy                ...      0.01223122 Eh      7.68 kcal/mol
Translational entropy             ...      0.01890147 Eh     11.86 kcal/mol
-----------------------------------------------------------------------
Final entropy term                ...      0.04162994 Eh     26.12 kcal/mol

CAUTION: The rotational entropy is not quite correctly treated here
         because it includes a symmetry number that is not yet correctly
         implemented in ORCA!
For a nonlinear molecule the correct rotational entropy is:
    S(rot) = R*(ln(qrot/sn)+1.5)
    R    = 8.31441 J/mol/K = 1.987191683e-3 kcal/mol/K
    qrot = 282924.4598574
    sn is the rotational symmetry number. We have assumed 3 here
       if it is different for your molecule then you should correct
       the printed rotational entropy by manually evaluating the equation
       as given above

For convenience we print out the resulting values for sn=1 - 12:
 sn= 1  qrot/sn=  282924.4599 T*S(rot)=     8.33 kcal/mol T*S(tot)=    26.77 kcal/mol
 sn= 2  qrot/sn=  141462.2299 T*S(rot)=     7.92 kcal/mol T*S(tot)=    26.36 kcal/mol
 sn= 3  qrot/sn=   94308.1533 T*S(rot)=     7.68 kcal/mol T*S(tot)=    26.12 kcal/mol
 sn= 4  qrot/sn=   70731.1150 T*S(rot)=     7.50 kcal/mol T*S(tot)=    25.95 kcal/mol
 sn= 5  qrot/sn=   56584.8920 T*S(rot)=     7.37 kcal/mol T*S(tot)=    25.82 kcal/mol
 sn= 6  qrot/sn=   47154.0766 T*S(rot)=     7.26 kcal/mol T*S(tot)=    25.71 kcal/mol
 sn= 7  qrot/sn=   40417.7800 T*S(rot)=     7.17 kcal/mol T*S(tot)=    25.62 kcal/mol
 sn= 8  qrot/sn=   35365.5575 T*S(rot)=     7.09 kcal/mol T*S(tot)=    25.54 kcal/mol
 sn= 9  qrot/sn=   31436.0511 T*S(rot)=     7.02 kcal/mol T*S(tot)=    25.47 kcal/mol
 sn=10  qrot/sn=   28292.4460 T*S(rot)=     6.96 kcal/mol T*S(tot)=    25.41 kcal/mol
 sn=11  qrot/sn=   25720.4054 T*S(rot)=     6.91 kcal/mol T*S(tot)=    25.35 kcal/mol
 sn=12  qrot/sn=   23577.0383 T*S(rot)=     6.85 kcal/mol T*S(tot)=    25.30 kcal/mol

-------------------
GIBBS FREE ENTHALPY
-------------------

The Gibbs free enthalpy is G = H - T*S

Total enthalpy                    ...   -326.99554962 Eh
Total entropy correction          ...     -0.04162994 Eh    -26.12 kcal/mol
-----------------------------------------------------------------------
Final Gibbs free enthalpy         ...   -327.03717957 Eh

For completeness - the Gibbs free enthalpy minus the electronic energy
G-E(el)                           ...      0.14224441 Eh     89.26 kcal/mol

                             ****ORCA TERMINATED NORMALLY****
TOTAL RUN TIME: 0 days 0 hours 57 minutes 3 seconds 715 msec
