                         Program Version 3.0.3 - RELEASE   -
|  1> ! NORI PBE0 def2-TZVP UseSym TightOPT Freq TightSCF Grid3 FinalGrid5 XYZFile
|  2> % pal
|  3>     nprocs 8
|  4> end
|  5> %method
|  6>     SymThresh 5.0e-2
|  7> end
|  8> % geom
|  9>     MaxIter 10
| 10> end
| 11> % maxcore 2000
| 12> % output
| 13>     printlevel mini
| 14>     print[ P_Basis ] 0
| 15>     print[ P_SCFInfo ] 1
| 16>     print[ P_SCFIterInfo ] 1
| 17>     print[ P_OrbEn ] 0
| 18>     print[ P_Cartesian ] 0
| 19> end
| 20> % elprop
| 21>     Dipole false
| 22> end
| 23> *xyz 1 1
| 24>  C        2.1999301677    -0.7745246147     0.8912652926
| 25>  O        2.0395372498     0.5609444449     0.4355043928
| 26>  C        3.2282503684     1.1870753930     0.0295845493
| 27>  C        2.8534839531     2.3462933189    -0.8926583432
| 28>  C        2.5095256291     3.5104105545     0.0442025415
| 29>  N        2.8120959081     2.9745365241     1.4249177773
| 30>  C        3.8361438278     1.9003512357     1.2306389952
| 31>  H        1.2102697646    -1.1340905089     1.1647214618
| 32>  H        2.8552888375    -0.8347884030     1.7677168278
| 33>  H        2.6055727798    -1.4054777525     0.0944694933
| 34>  H        3.9259095978     0.4834567015    -0.4340599184
| 35>  H        2.0124087738     2.0638907723    -1.5231834601
| 36>  H        3.6930595974     2.6072786908    -1.5370724074
| 37>  H        1.4664731106     3.8179480575     0.0168133814
| 38>  H        3.1401374705     4.3843029909    -0.1110784316
| 39>  H        1.9721256450     2.5198505170     1.7909963183
| 40>  H        3.0973320857     3.7010240484     2.0796252950
| 41>  H        4.7935450483     2.3728419773     1.0078857407
| 42>  H        3.9150701851     1.2949860523     2.1321504938
| 43> *
| 44>
| 45>                          ****END OF INPUT****
 Total Charge           Charge          ....    1
 Multiplicity           Mult            ....    1
 Number of Electrons    NEL             ....   56
FINAL SINGLE POINT ENERGY      -327.223068977302
FINAL SINGLE POINT ENERGY      -327.223070201586

CARTESIAN COORDINATES (ANGSTROEM)
---------------------------------
  C     -0.143194   -0.992523    2.316598
  O     -0.002573    0.002832    1.313611
  C     -0.746104   -0.235192    0.147509
  C     -0.914814    1.098528   -0.578704
  C      0.375178    1.281760   -1.387310
  N      1.141831   -0.000658   -1.156069
  C      0.114121   -1.036389   -0.821922
  H      0.476050   -0.682970    3.155970
  H      0.193400   -1.976208    1.969472
  H     -1.184886   -1.063644    2.643064
  H     -1.699439   -0.726748    0.361455
  H     -1.064494    1.899253    0.142838
  H     -1.780727    1.065601   -1.239806
  H      0.995476    2.114875   -1.063814
  H      0.199040    1.367112   -2.458479
  H      1.728456    0.113508   -0.325802
  H      1.739731   -0.253270   -1.941235
  H     -0.413112   -1.307033   -1.737565
  H      0.596275   -1.912530   -0.390882

FINAL SINGLE POINT ENERGY      -327.223070704836
                    ***********************HURRAY********************
 Multiplicity           Mult            ....    1
 Number of Electrons    NEL             ....   56
 Basis Dimension        Dim             ....  289
FINAL SINGLE POINT ENERGY      -327.223070899789

VIBRATIONAL FREQUENCIES
-----------------------

   0:         0.00 cm**-1
   1:         0.00 cm**-1
   2:         0.00 cm**-1
   3:         0.00 cm**-1
   4:         0.00 cm**-1
   5:         0.00 cm**-1
   6:        85.62 cm**-1
   7:        99.94 cm**-1
   8:       160.80 cm**-1
   9:       201.54 cm**-1
  10:       306.54 cm**-1
  11:       380.82 cm**-1
  12:       453.16 cm**-1
  13:       619.82 cm**-1
  14:       747.83 cm**-1
  15:       790.21 cm**-1
  16:       876.19 cm**-1
  17:       880.36 cm**-1
  18:       899.70 cm**-1
  19:       922.09 cm**-1
  20:       944.67 cm**-1
  21:       995.97 cm**-1
  22:      1043.93 cm**-1
  23:      1071.24 cm**-1
  24:      1088.75 cm**-1
  25:      1141.71 cm**-1
  26:      1179.40 cm**-1
  27:      1185.05 cm**-1
  28:      1220.63 cm**-1
  29:      1237.58 cm**-1
  30:      1257.53 cm**-1
  31:      1296.94 cm**-1
  32:      1319.92 cm**-1
  33:      1328.98 cm**-1
  34:      1365.55 cm**-1
  35:      1392.73 cm**-1
  36:      1395.61 cm**-1
  37:      1408.70 cm**-1
  38:      1474.23 cm**-1
  39:      1478.09 cm**-1
  40:      1485.45 cm**-1
  41:      1489.59 cm**-1
  42:      1499.94 cm**-1
  43:      1509.50 cm**-1
  44:      1624.07 cm**-1
  45:      3026.04 cm**-1
  46:      3087.51 cm**-1
  47:      3099.01 cm**-1
  48:      3108.11 cm**-1
  49:      3113.94 cm**-1
  50:      3121.51 cm**-1
  51:      3167.09 cm**-1
  52:      3172.12 cm**-1
  53:      3177.58 cm**-1
  54:      3185.12 cm**-1
  55:      3441.29 cm**-1
  56:      3526.35 cm**-1

IR SPECTRUM
-----------

 Mode    freq (cm**-1)   T**2         TX         TY         TZ
-------------------------------------------------------------------
   6:        85.62    0.738753  ( -0.193028  -0.567053   0.616396)
   7:        99.94    3.431199  ( -1.338726   1.248247  -0.284415)
   8:       160.80    7.651161  (  0.436293   0.057949  -2.730833)
   9:       201.54   14.076524  (  1.634045  -0.631506  -3.317774)
  10:       306.54    8.087689  (  2.718970  -0.066716  -0.830928)
  11:       380.82    0.468506  (  0.033747  -0.006715  -0.683609)
  12:       453.16    6.314647  ( -0.951108   1.856682   1.400989)
  13:       619.82    6.352823  (  0.961206   0.736585  -2.210509)
  14:       747.83    0.795659  ( -0.418480  -0.547515   0.566357)
  15:       790.21    0.270907  ( -0.085020  -0.359720  -0.366442)
  16:       876.19    5.187380  (  0.562470  -0.400903   2.170319)
  17:       880.36   10.978814  (  0.007583   2.559705   2.103965)
  18:       899.70    5.672639  ( -2.145564  -0.675817   0.782603)
  19:       922.09    3.983914  (  0.006106   1.964629   0.352294)
  20:       944.67   10.500036  (  1.739151   2.673822   0.571022)
  21:       995.97    4.905303  ( -0.511765  -1.227501   1.771057)
  22:      1043.93    6.361448  ( -2.012573   0.472992   1.444741)
  23:      1071.24    5.696590  (  0.307600   2.259717  -0.704025)
  24:      1088.75    7.612768  ( -0.417824   1.621151   2.193185)
  25:      1141.71  133.175060  ( -1.031760   5.660423 -10.003506)
  26:      1179.40   16.945147  (  0.992793   1.501149  -3.702170)
  27:      1185.05    1.597040  (  1.223556   0.284741   0.137380)
  28:      1220.63   16.598134  ( -0.716288  -3.137813  -2.497838)
  29:      1237.58   35.909318  (  2.188386  -2.514038   4.979949)
  30:      1257.53   13.040907  (  1.014383   2.326293   2.569104)
  31:      1296.94    4.779835  (  0.804853   0.571351   1.950796)
  32:      1319.92    9.735208  (  0.846527  -0.957487   2.846369)
  33:      1328.98    2.060569  ( -0.007300   1.383839  -0.381453)
  34:      1365.55   10.823414  ( -0.325393   0.429048  -3.245528)
  35:      1392.73    8.211051  ( -0.908944   0.215877   2.708924)
  36:      1395.61   20.074982  (  0.956235   3.371174  -2.792093)
  37:      1408.70   42.022544  ( -1.538432  -5.468344   3.122977)
  38:      1474.23    6.136585  ( -0.759380   0.993230   2.138556)
  39:      1478.09   11.139778  (  2.415689  -2.261106   0.437753)
  40:      1485.45    5.480082  (  2.004036   1.156939  -0.354139)
  41:      1489.59   12.916097  ( -2.601742   2.348310   0.795283)
  42:      1499.94   16.467252  (  0.328394   2.635485   3.068163)
  43:      1509.50   10.728121  ( -0.072759  -1.235926   3.032378)
  44:      1624.07   80.150536  (  8.844423   0.059793  -1.386776)
  45:      3026.04   29.873780  (  0.047714   4.978983  -2.254158)
  46:      3087.51    6.380113  (  2.506224   0.314572   0.000287)
  47:      3099.01   19.954943  ( -3.134739   2.041031   2.441833)
  48:      3108.11    1.066592  (  0.275026  -0.704793  -0.703007)
  49:      3113.94    2.570771  ( -1.364740  -0.763738  -0.353498)
  50:      3121.51    1.769810  (  0.189168   0.186011  -1.303620)
  51:      3167.09    0.062864  (  0.127232  -0.212283  -0.040149)
  52:      3172.12    4.093136  (  1.222407   0.571921   1.507237)
  53:      3177.58    0.443320  (  0.102547  -0.448249   0.481537)
  54:      3185.12    0.085282  (  0.025390  -0.241259   0.162577)
  55:      3441.29   57.193058  (  6.646860  -0.402819   3.584696)
  56:      3526.35   97.019278  (  3.300945  -2.139279  -9.030311)

--------------------------
THERMOCHEMISTRY AT 298.15K
--------------------------

Temperature         ... 298.15 K
Pressure            ... 1.00 atm
Total Mass          ... 102.16 AMU

Throughout the following assumptions are being made:
  (1) The electronic state is orbitally nondegenerate
  (2) There are no thermally accessible electronically excited states
  (3) Hindered rotations indicated by low frequency modes) are not
      treated as such but are treated as vibrations and this may
      case some error
  (4) All equations used are the standard statistical mechanics
      equations for an ideal gas
  (5) All vibrations are strinctly harmonic

------------
INNER ENERGY
------------

The inner energy is: U= E(el) + E(ZPE) + E(vib) + E(rot) + E(trans)
    E(el)   - is the total energy from the electronic structure calculation
              = E(kin-el) + E(nuc-el) + E(el-el) + E(nuc-nuc)
    E(ZPE)  - the the zero temperature vibrational energy from the frequency calculation
    E(vib)  - the the finite temperature correction to E(ZPE) due to population
              of excietd vibrational states
    E(rot)  - is the rotational thermal energy
    E(trans)- is the translational thermal energy

Summary of contributions to the inner energy U:
Electronic energy                ...   -327.22307090 Eh
Zero point energy                ...      0.17789308 Eh     111.63 kcal/mol
Thermal vibrational correction   ...      0.00459334 Eh       2.88 kcal/mol
Thermal rotational correction    ...      0.00141627 Eh       0.89 kcal/mol
Thermal translational correction ...      0.00141627 Eh       0.89 kcal/mol
-----------------------------------------------------------------------
Total thermal energy                   -327.03775193 Eh

Summary of corrections to the electronic energy:
(perhaps to be used in another calculation)
Total thermal correction                  0.00742589 Eh       4.66 kcal/mol
Non-thermal (ZPE) correction              0.17789308 Eh     111.63 kcal/mol
-----------------------------------------------------------------------
Total correction                          0.18531897 Eh     116.29 kcal/mol

--------
ENTHALPY
--------

The enthalpy is H = U + kB*T
                kB is Boltzmann's constant
Total free energy                 ...   -327.03775193 Eh
Thermal Enthalpy correction       ...      0.00094421 Eh       0.59 kcal/mol
-----------------------------------------------------------------------
Total Enthalpy                    ...   -327.03680772 Eh

-------
ENTROPY
-------

The entropy contributions are T*S = T*(S(el)+S(vib)+S(rot)+S(trans)
     S(el)   - electronic entropy
     S(vib)  - vibrational entropy
     S(rot)  - rotational entropy
     S(trans)- translational entropy
The entropies will be listed as mutliplied by the temperature to get
units of energy

Electronic entropy                ...      0.00000000 Eh      0.00 kcal/mol
Vibrational entropy               ...      0.00828659 Eh      5.20 kcal/mol
Rotational entropy                ...      0.01194241 Eh      7.49 kcal/mol
Translational entropy             ...      0.01890147 Eh     11.86 kcal/mol
-----------------------------------------------------------------------
Final entropy term                ...      0.03913046 Eh     24.55 kcal/mol

CAUTION: The rotational entropy is not quite correctly treated here
         because it includes a symmetry number that is not yet correctly
         implemented in ORCA!
For a nonlinear molecule the correct rotational entropy is:
    S(rot) = R*(ln(qrot/sn)+1.5)
    R    = 8.31441 J/mol/K = 1.987191683e-3 kcal/mol/K
    qrot = 208364.3844553
    sn is the rotational symmetry number. We have assumed 3 here
       if it is different for your molecule then you should correct
       the printed rotational entropy by manually evaluating the equation
       as given above

For convenience we print out the resulting values for sn=1 - 12:
 sn= 1  qrot/sn=  208364.3845 T*S(rot)=     8.14 kcal/mol T*S(tot)=    25.21 kcal/mol
 sn= 2  qrot/sn=  104182.1922 T*S(rot)=     7.73 kcal/mol T*S(tot)=    24.79 kcal/mol
 sn= 3  qrot/sn=   69454.7948 T*S(rot)=     7.49 kcal/mol T*S(tot)=    24.55 kcal/mol
 sn= 4  qrot/sn=   52091.0961 T*S(rot)=     7.32 kcal/mol T*S(tot)=    24.38 kcal/mol
 sn= 5  qrot/sn=   41672.8769 T*S(rot)=     7.19 kcal/mol T*S(tot)=    24.25 kcal/mol
 sn= 6  qrot/sn=   34727.3974 T*S(rot)=     7.08 kcal/mol T*S(tot)=    24.14 kcal/mol
 sn= 7  qrot/sn=   29766.3406 T*S(rot)=     6.99 kcal/mol T*S(tot)=    24.05 kcal/mol
 sn= 8  qrot/sn=   26045.5481 T*S(rot)=     6.91 kcal/mol T*S(tot)=    23.97 kcal/mol
 sn= 9  qrot/sn=   23151.5983 T*S(rot)=     6.84 kcal/mol T*S(tot)=    23.90 kcal/mol
 sn=10  qrot/sn=   20836.4384 T*S(rot)=     6.78 kcal/mol T*S(tot)=    23.84 kcal/mol
 sn=11  qrot/sn=   18942.2168 T*S(rot)=     6.72 kcal/mol T*S(tot)=    23.78 kcal/mol
 sn=12  qrot/sn=   17363.6987 T*S(rot)=     6.67 kcal/mol T*S(tot)=    23.73 kcal/mol

-------------------
GIBBS FREE ENTHALPY
-------------------

The Gibbs free enthalpy is G = H - T*S

Total enthalpy                    ...   -327.03680772 Eh
Total entropy correction          ...     -0.03913046 Eh    -24.55 kcal/mol
-----------------------------------------------------------------------
Final Gibbs free enthalpy         ...   -327.07593819 Eh

For completeness - the Gibbs free enthalpy minus the electronic energy
G-E(el)                           ...      0.14713271 Eh     92.33 kcal/mol

                             ****ORCA TERMINATED NORMALLY****
TOTAL RUN TIME: 0 days 0 hours 57 minutes 22 seconds 937 msec
