                         Program Version 3.0.3 - RELEASE   -
|  1> ! NORI PBE0 def2-TZVP UseSym TightOPT Freq TightSCF Grid3 FinalGrid5 XYZFile
|  2> % pal
|  3>     nprocs 8
|  4> end
|  5> %method
|  6>     SymThresh 5.0e-2
|  7> end
|  8> % geom
|  9>     MaxIter 10
| 10> end
| 11> % maxcore 2000
| 12> % output
| 13>     printlevel mini
| 14>     print[ P_Basis ] 0
| 15>     print[ P_SCFInfo ] 1
| 16>     print[ P_SCFIterInfo ] 1
| 17>     print[ P_OrbEn ] 0
| 18>     print[ P_Cartesian ] 0
| 19> end
| 20> % elprop
| 21>     Dipole false
| 22> end
| 23> *xyz 1 1
| 24>  C        1.8530064797    -0.0969651025     1.0690997998
| 25>  O        3.0981910941     0.3506635625     0.5557391989
| 26>  C        3.0549277799     1.0877155265    -0.6150198033
| 27>  C        2.3081902905     0.4360108923    -1.7579851935
| 28>  C        2.7146032822     2.5978208413    -0.4103557663
| 29>  N        4.0558706559     2.9764377824    -1.0065345969
| 30>  C        4.4920218882     1.5249524394    -0.9588026934
| 31>  H        2.0666124585    -0.5286587324     2.0441874192
| 32>  H        1.4033834223    -0.8619452108     0.4316693438
| 33>  H        1.1478236961     0.7331859641     1.1967702234
| 34>  H        2.4117038123     1.0158728441    -2.6790589651
| 35>  H        1.2419387503     0.3556602799    -1.5411453931
| 36>  H        2.7041812181    -0.5648512129    -1.9394955231
| 37>  H        1.8851816520     3.0370124760    -0.9602443466
| 38>  H        2.6902711631     2.8882243830     0.6378604595
| 39>  H        3.9840997570     3.3441240390    -1.9533574312
| 40>  H        4.6188200351     3.6259319336    -0.4601487448
| 41>  H        5.1743138129     1.3741819225    -0.1245332488
| 42>  H        4.9315087518     1.1906953721    -1.8958247385
| 43> *
| 44>
| 45>                          ****END OF INPUT****
 Total Charge           Charge          ....    1
 Multiplicity           Mult            ....    1
 Number of Electrons    NEL             ....   56
FINAL SINGLE POINT ENERGY      -327.191006406654
FINAL SINGLE POINT ENERGY      -327.191008042272

CARTESIAN COORDINATES (ANGSTROEM)
---------------------------------
  C     -0.939057    0.834151    2.013147
  O     -0.000845   -0.000975    1.352564
  C     -0.181844   -0.180340   -0.007844
  C     -1.560126   -0.649921   -0.418177
  C      0.384334    0.978082   -0.888607
  N      1.327968    0.000239   -1.560058
  C      0.972799   -1.056234   -0.532168
  H     -0.561609    0.970563    3.024202
  H     -1.928447    0.373543    2.062149
  H     -1.016380    1.815143    1.529240
  H     -1.595831   -0.884221   -1.485582
  H     -2.314042    0.114925   -0.227209
  H     -1.827546   -1.550932    0.137133
  H     -0.269335    1.472008   -1.604668
  H      0.960646    1.702487   -0.316572
  H      1.042506   -0.246412   -2.505856
  H      2.307875    0.276207   -1.590885
  H      1.777733   -1.146922    0.193994
  H      0.737784   -2.016664   -0.985254

FINAL SINGLE POINT ENERGY      -327.191008433348
                    ***********************HURRAY********************
 Multiplicity           Mult            ....    1
 Number of Electrons    NEL             ....   56
 Basis Dimension        Dim             ....  289
FINAL SINGLE POINT ENERGY      -327.191008573215

VIBRATIONAL FREQUENCIES
-----------------------

   0:         0.00 cm**-1
   1:         0.00 cm**-1
   2:         0.00 cm**-1
   3:         0.00 cm**-1
   4:         0.00 cm**-1
   5:         0.00 cm**-1
   6:        46.76 cm**-1
   7:        99.64 cm**-1
   8:       184.91 cm**-1
   9:       250.44 cm**-1
  10:       278.90 cm**-1
  11:       331.88 cm**-1
  12:       362.23 cm**-1
  13:       422.19 cm**-1
  14:       475.98 cm**-1
  15:       659.20 cm**-1
  16:       764.08 cm**-1
  17:       829.77 cm**-1
  18:       858.26 cm**-1
  19:       902.88 cm**-1
  20:       916.27 cm**-1
  21:       934.33 cm**-1
  22:       939.17 cm**-1
  23:       973.62 cm**-1
  24:      1070.96 cm**-1
  25:      1111.67 cm**-1
  26:      1166.29 cm**-1
  27:      1174.58 cm**-1
  28:      1209.51 cm**-1
  29:      1240.50 cm**-1
  30:      1254.61 cm**-1
  31:      1265.66 cm**-1
  32:      1307.92 cm**-1
  33:      1317.18 cm**-1
  34:      1325.67 cm**-1
  35:      1361.80 cm**-1
  36:      1415.20 cm**-1
  37:      1465.40 cm**-1
  38:      1470.75 cm**-1
  39:      1477.81 cm**-1
  40:      1483.76 cm**-1
  41:      1486.08 cm**-1
  42:      1498.97 cm**-1
  43:      1505.00 cm**-1
  44:      1649.84 cm**-1
  45:      3026.33 cm**-1
  46:      3057.86 cm**-1
  47:      3108.91 cm**-1
  48:      3120.36 cm**-1
  49:      3126.83 cm**-1
  50:      3132.71 cm**-1
  51:      3154.18 cm**-1
  52:      3173.75 cm**-1
  53:      3198.35 cm**-1
  54:      3204.71 cm**-1
  55:      3479.53 cm**-1
  56:      3544.07 cm**-1

IR SPECTRUM
-----------

 Mode    freq (cm**-1)   T**2         TX         TY         TZ
-------------------------------------------------------------------
   6:        46.76    5.372114  ( -1.736287  -0.974869  -1.186193)
   7:        99.64    4.919694  ( -0.557052  -2.116460   0.360534)
   8:       184.91    0.554997  ( -0.008386  -0.699431   0.256364)
   9:       250.44    1.364315  (  0.505542  -0.085760   1.049470)
  10:       278.90    1.506229  (  0.346142   1.070410   0.490548)
  11:       331.88    0.972520  (  0.046951  -0.570789   0.802817)
  12:       362.23    2.500000  (  1.460149   0.341360   0.501434)
  13:       422.19   12.205417  (  2.574989   1.924843  -1.367416)
  14:       475.98    0.413800  ( -0.295996   0.563663   0.092033)
  15:       659.20    4.858558  ( -0.094695   0.599677  -2.118957)
  16:       764.08    6.105910  (  2.078728   0.914356   0.974040)
  17:       829.77    0.767794  ( -0.600610   0.377959  -0.514012)
  18:       858.26    3.466132  (  1.248036   0.671602   1.207265)
  19:       902.88    5.048171  (  1.889936  -0.869597   0.848594)
  20:       916.27    1.880309  (  0.335573   0.616578   1.177935)
  21:       934.33   11.092174  (  2.973727  -1.281152   0.779595)
  22:       939.17    5.662691  ( -0.371442  -1.717351   1.604814)
  23:       973.62    4.926683  (  1.220227   0.379610  -1.814835)
  24:      1070.96    1.625440  (  0.679090   0.093176  -1.074986)
  25:      1111.67   63.829976  (  4.074670  -4.668372  -5.043149)
  26:      1166.29   13.306917  (  0.419383   2.687260  -2.430981)
  27:      1174.58    3.846681  (  1.109998   1.443878  -0.727876)
  28:      1209.51   16.790467  ( -1.936413  -0.813086   3.518474)
  29:      1240.50   48.478846  ( -3.475953   5.034268   3.324567)
  30:      1254.61   22.935140  ( -0.360266   4.367387  -1.931653)
  31:      1265.66   44.772961  (  1.935636  -0.782877  -6.357152)
  32:      1307.92    5.623993  (  0.150930  -2.246719  -0.743953)
  33:      1317.18   22.456582  ( -2.086249   4.029451  -1.366627)
  34:      1325.67   57.312334  ( -0.060954  -2.881118  -7.000556)
  35:      1361.80   39.317801  (  3.843901   0.156689  -4.951532)
  36:      1415.20   28.658236  ( -3.347200  -1.957068  -3.691121)
  37:      1465.40   23.206453  ( -1.608252   3.961895  -2.218866)
  38:      1470.75   13.278426  ( -0.433408   3.166608   1.750193)
  39:      1477.81    0.652859  (  0.657627  -0.453409   0.121682)
  40:      1483.76    8.087194  (  1.815947   2.067647  -0.717192)
  41:      1486.08    5.524951  ( -1.051660   1.574705   1.392575)
  42:      1498.97    7.247075  ( -1.247707  -0.447599  -2.343066)
  43:      1505.00    8.463809  ( -1.375078  -0.930981   2.388775)
  44:      1649.84   69.065292  ( -4.641501  -0.089698   6.893019)
  45:      3026.33   24.922988  ( -2.754555   4.144668   0.396407)
  46:      3057.86    3.105703  (  0.173115   0.088065   1.751565)
  47:      3108.91   20.665588  (  2.908359   2.905416  -1.940513)
  48:      3120.36    0.340937  ( -0.221219   0.539989  -0.020286)
  49:      3126.83    0.263307  (  0.493733   0.138986  -0.014756)
  50:      3132.71    9.475500  ( -1.040540   0.368769   2.873462)
  51:      3154.18    1.558279  (  0.572239  -1.079937  -0.254082)
  52:      3173.75    3.593207  ( -0.941123  -0.326388  -1.612751)
  53:      3198.35    0.326430  ( -0.224855  -0.522945  -0.048974)
  54:      3204.71    1.166758  (  0.695061  -0.374719   0.737044)
  55:      3479.53   77.014524  ( -5.794757  -0.406617   6.577992)
  56:      3544.07   89.209553  ( -7.082228  -3.001536  -5.481094)

--------------------------
THERMOCHEMISTRY AT 298.15K
--------------------------

Temperature         ... 298.15 K
Pressure            ... 1.00 atm
Total Mass          ... 102.16 AMU

Throughout the following assumptions are being made:
  (1) The electronic state is orbitally nondegenerate
  (2) There are no thermally accessible electronically excited states
  (3) Hindered rotations indicated by low frequency modes) are not
      treated as such but are treated as vibrations and this may
      case some error
  (4) All equations used are the standard statistical mechanics
      equations for an ideal gas
  (5) All vibrations are strinctly harmonic

------------
INNER ENERGY
------------

The inner energy is: U= E(el) + E(ZPE) + E(vib) + E(rot) + E(trans)
    E(el)   - is the total energy from the electronic structure calculation
              = E(kin-el) + E(nuc-el) + E(el-el) + E(nuc-nuc)
    E(ZPE)  - the the zero temperature vibrational energy from the frequency calculation
    E(vib)  - the the finite temperature correction to E(ZPE) due to population
              of excietd vibrational states
    E(rot)  - is the rotational thermal energy
    E(trans)- is the translational thermal energy

Summary of contributions to the inner energy U:
Electronic energy                ...   -327.19100857 Eh
Zero point energy                ...      0.17500258 Eh     109.82 kcal/mol
Thermal vibrational correction   ...      0.00518030 Eh       3.25 kcal/mol
Thermal rotational correction    ...      0.00141627 Eh       0.89 kcal/mol
Thermal translational correction ...      0.00141627 Eh       0.89 kcal/mol
-----------------------------------------------------------------------
Total thermal energy                   -327.00799315 Eh

Summary of corrections to the electronic energy:
(perhaps to be used in another calculation)
Total thermal correction                  0.00801284 Eh       5.03 kcal/mol
Non-thermal (ZPE) correction              0.17500258 Eh     109.82 kcal/mol
-----------------------------------------------------------------------
Total correction                          0.18301542 Eh     114.84 kcal/mol

--------
ENTHALPY
--------

The enthalpy is H = U + kB*T
                kB is Boltzmann's constant
Total free energy                 ...   -327.00799315 Eh
Thermal Enthalpy correction       ...      0.00094421 Eh       0.59 kcal/mol
-----------------------------------------------------------------------
Total Enthalpy                    ...   -327.00704894 Eh

-------
ENTROPY
-------

The entropy contributions are T*S = T*(S(el)+S(vib)+S(rot)+S(trans)
     S(el)   - electronic entropy
     S(vib)  - vibrational entropy
     S(rot)  - rotational entropy
     S(trans)- translational entropy
The entropies will be listed as mutliplied by the temperature to get
units of energy

Electronic entropy                ...      0.00000000 Eh      0.00 kcal/mol
Vibrational entropy               ...      0.00953032 Eh      5.98 kcal/mol
Rotational entropy                ...      0.01197109 Eh      7.51 kcal/mol
Translational entropy             ...      0.01890147 Eh     11.86 kcal/mol
-----------------------------------------------------------------------
Final entropy term                ...      0.04040288 Eh     25.35 kcal/mol

CAUTION: The rotational entropy is not quite correctly treated here
         because it includes a symmetry number that is not yet correctly
         implemented in ORCA!
For a nonlinear molecule the correct rotational entropy is:
    S(rot) = R*(ln(qrot/sn)+1.5)
    R    = 8.31441 J/mol/K = 1.987191683e-3 kcal/mol/K
    qrot = 214791.5903967
    sn is the rotational symmetry number. We have assumed 3 here
       if it is different for your molecule then you should correct
       the printed rotational entropy by manually evaluating the equation
       as given above

For convenience we print out the resulting values for sn=1 - 12:
 sn= 1  qrot/sn=  214791.5904 T*S(rot)=     8.16 kcal/mol T*S(tot)=    26.00 kcal/mol
 sn= 2  qrot/sn=  107395.7952 T*S(rot)=     7.75 kcal/mol T*S(tot)=    25.59 kcal/mol
 sn= 3  qrot/sn=   71597.1968 T*S(rot)=     7.51 kcal/mol T*S(tot)=    25.35 kcal/mol
 sn= 4  qrot/sn=   53697.8976 T*S(rot)=     7.34 kcal/mol T*S(tot)=    25.18 kcal/mol
 sn= 5  qrot/sn=   42958.3181 T*S(rot)=     7.21 kcal/mol T*S(tot)=    25.05 kcal/mol
 sn= 6  qrot/sn=   35798.5984 T*S(rot)=     7.10 kcal/mol T*S(tot)=    24.94 kcal/mol
 sn= 7  qrot/sn=   30684.5129 T*S(rot)=     7.01 kcal/mol T*S(tot)=    24.85 kcal/mol
 sn= 8  qrot/sn=   26848.9488 T*S(rot)=     6.93 kcal/mol T*S(tot)=    24.77 kcal/mol
 sn= 9  qrot/sn=   23865.7323 T*S(rot)=     6.86 kcal/mol T*S(tot)=    24.70 kcal/mol
 sn=10  qrot/sn=   21479.1590 T*S(rot)=     6.80 kcal/mol T*S(tot)=    24.64 kcal/mol
 sn=11  qrot/sn=   19526.5082 T*S(rot)=     6.74 kcal/mol T*S(tot)=    24.58 kcal/mol
 sn=12  qrot/sn=   17899.2992 T*S(rot)=     6.69 kcal/mol T*S(tot)=    24.53 kcal/mol

-------------------
GIBBS FREE ENTHALPY
-------------------

The Gibbs free enthalpy is G = H - T*S

Total enthalpy                    ...   -327.00704894 Eh
Total entropy correction          ...     -0.04040288 Eh    -25.35 kcal/mol
-----------------------------------------------------------------------
Final Gibbs free enthalpy         ...   -327.04745182 Eh

For completeness - the Gibbs free enthalpy minus the electronic energy
G-E(el)                           ...      0.14355675 Eh     90.08 kcal/mol

                             ****ORCA TERMINATED NORMALLY****
TOTAL RUN TIME: 0 days 0 hours 57 minutes 33 seconds 213 msec
