                         Program Version 3.0.3 - RELEASE   -
|  1> ! NORI PBE0 def2-TZVP UseSym TightOPT Freq TightSCF Grid3 FinalGrid5 XYZFile
|  2> % pal
|  3>     nprocs 8
|  4> end
|  5> %method
|  6>     SymThresh 5.0e-2
|  7> end
|  8> % geom
|  9>     MaxIter 10
| 10> end
| 11> % maxcore 2000
| 12> % output
| 13>     printlevel mini
| 14>     print[ P_Basis ] 0
| 15>     print[ P_SCFInfo ] 1
| 16>     print[ P_SCFIterInfo ] 1
| 17>     print[ P_OrbEn ] 0
| 18>     print[ P_Cartesian ] 0
| 19> end
| 20> % elprop
| 21>     Dipole false
| 22> end
| 23> *xyz 1 1
| 24>  C        2.9534705259     0.5359446709    -0.9028081174
| 25>  O        2.2104756373    -0.1941894416     0.0548127461
| 26>  C        2.9175447421    -1.2026681162     0.6629223456
| 27>  C        2.1059726724    -1.9446030693     1.7364164321
| 28>  C        2.6258118234    -3.2759854080     1.1823710641
| 29>  N        3.7994833409    -3.7932646217     1.9815726313
| 30>  C        3.0811336823    -2.5555450732    -0.0916097360
| 31>  H        2.2980695622     1.3166333928    -1.2829553904
| 32>  H        3.2700912397    -0.1012661205    -1.7365291450
| 33>  H        3.8365219451     0.9974517794    -0.4457655721
| 34>  H        3.8847050338    -0.8322991613     1.0403726465
| 35>  H        1.0403243461    -1.8459855700     1.5239822014
| 36>  H        2.2739472180    -1.7092675787     2.7894565673
| 37>  H        1.9371668469    -4.1155397795     1.0969457252
| 38>  H        4.5044308514    -3.0648970007     2.1147480654
| 39>  H        4.2508421291    -4.5794744798     1.5087579669
| 40>  H        3.5035781199    -4.1101871058     2.9074356311
| 41>  H        4.0509903079    -2.8236872528    -0.5167590919
| 42>  H        2.3187799756    -2.6557400639    -0.8656469703
| 43> *
| 44>
| 45>                          ****END OF INPUT****
 Total Charge           Charge          ....    1
 Multiplicity           Mult            ....    1
 Number of Electrons    NEL             ....   56
FINAL SINGLE POINT ENERGY      -327.188643075790
FINAL SINGLE POINT ENERGY      -327.188644122303

CARTESIAN COORDINATES (ANGSTROEM)
---------------------------------
  C     -0.472059    1.135580    2.508869
  O     -0.000583    0.000150    1.808061
  C      0.237987    0.224326    0.474225
  C      0.802389   -1.006856   -0.252376
  C     -0.165200   -0.742948   -1.411033
  N      0.508132    0.001452   -2.540221
  C     -0.968862    0.202079   -0.510449
  H     -0.590334    0.838612    3.548642
  H     -1.440802    1.472717    2.122255
  H      0.247821    1.960316    2.449190
  H      0.858367    1.124485    0.331779
  H      0.506994   -1.912916    0.277645
  H      1.873149   -1.058829   -0.460170
  H     -0.671907   -1.587079   -1.876516
  H      1.015126    0.817712   -2.191417
  H     -0.175121    0.330447   -3.226049
  H      1.180751   -0.595836   -3.026545
  H     -1.334404    1.137787   -0.939757
  H     -1.810081   -0.334253   -0.069716

FINAL SINGLE POINT ENERGY      -327.188644711533
                    ***********************HURRAY********************
 Multiplicity           Mult            ....    1
 Number of Electrons    NEL             ....   56
 Basis Dimension        Dim             ....  289
FINAL SINGLE POINT ENERGY      -327.188644960432

VIBRATIONAL FREQUENCIES
-----------------------

   0:         0.00 cm**-1
   1:         0.00 cm**-1
   2:         0.00 cm**-1
   3:         0.00 cm**-1
   4:         0.00 cm**-1
   5:         0.00 cm**-1
   6:        72.17 cm**-1
   7:       101.89 cm**-1
   8:       174.60 cm**-1
   9:       229.24 cm**-1
  10:       238.48 cm**-1
  11:       333.03 cm**-1
  12:       343.10 cm**-1
  13:       442.06 cm**-1
  14:       472.28 cm**-1
  15:       665.11 cm**-1
  16:       784.86 cm**-1
  17:       786.84 cm**-1
  18:       872.49 cm**-1
  19:       914.53 cm**-1
  20:       949.42 cm**-1
  21:       962.76 cm**-1
  22:      1023.42 cm**-1
  23:      1056.45 cm**-1
  24:      1078.43 cm**-1
  25:      1136.18 cm**-1
  26:      1147.13 cm**-1
  27:      1177.23 cm**-1
  28:      1187.53 cm**-1
  29:      1231.24 cm**-1
  30:      1240.02 cm**-1
  31:      1268.63 cm**-1
  32:      1271.91 cm**-1
  33:      1292.50 cm**-1
  34:      1308.26 cm**-1
  35:      1402.59 cm**-1
  36:      1413.09 cm**-1
  37:      1448.71 cm**-1
  38:      1469.26 cm**-1
  39:      1481.44 cm**-1
  40:      1489.12 cm**-1
  41:      1496.62 cm**-1
  42:      1503.22 cm**-1
  43:      1656.50 cm**-1
  44:      1659.32 cm**-1
  45:      2971.55 cm**-1
  46:      3017.20 cm**-1
  47:      3080.48 cm**-1
  48:      3082.98 cm**-1
  49:      3089.37 cm**-1
  50:      3138.30 cm**-1
  51:      3150.21 cm**-1
  52:      3154.40 cm**-1
  53:      3171.16 cm**-1
  54:      3416.65 cm**-1
  55:      3502.77 cm**-1
  56:      3504.26 cm**-1

IR SPECTRUM
-----------

 Mode    freq (cm**-1)   T**2         TX         TY         TZ
-------------------------------------------------------------------
   6:        72.17    7.805759  (  0.912723   1.929180   1.803042)
   7:       101.89    3.954597  ( -1.973723   0.069087   0.232902)
   8:       174.60    1.498399  (  0.941851  -0.731698   0.275563)
   9:       229.24    0.904360  ( -0.401987  -0.411256   0.757387)
  10:       238.48    6.672724  (  0.253269   1.424311  -2.140074)
  11:       333.03   21.758401  ( -0.134092  -0.899315  -4.575112)
  12:       343.10    3.597389  (  1.775225  -0.576142   0.337675)
  13:       442.06    3.738774  (  1.725299  -0.415683   0.767676)
  14:       472.28    0.550014  (  0.493550   0.021865  -0.553123)
  15:       665.11    1.254539  (  0.327122  -1.070421  -0.041592)
  16:       784.86    0.132751  ( -0.354085   0.069143  -0.050931)
  17:       786.84    3.104340  ( -0.408331  -0.422620  -1.661023)
  18:       872.49    1.375360  (  0.470464  -0.185038   1.058199)
  19:       914.53    1.591670  (  1.000808  -0.659223   0.394309)
  20:       949.42   13.358213  (  2.599233   0.644563   2.487316)
  21:       962.76   14.769074  (  2.487770  -2.868940  -0.590976)
  22:      1023.42   20.209911  ( -0.790072   3.784798  -2.293687)
  23:      1056.45    5.908765  ( -0.255117   2.039170   1.298255)
  24:      1078.43   32.902841  (  2.484378  -2.875265  -4.296924)
  25:      1136.18   19.486443  ( -0.765621  -3.787557  -2.134169)
  26:      1147.13    8.819224  (  2.191667  -1.983145   0.288016)
  27:      1177.23    5.725315  (  1.695915   1.509725   0.754929)
  28:      1187.53   46.168725  ( -1.429470   3.606039   5.578693)
  29:      1231.24    3.564124  (  0.238893  -1.145543  -1.481481)
  30:      1240.02   39.147225  (  2.377793   0.439790  -5.770608)
  31:      1268.63    9.944652  (  0.140309  -0.546651  -3.102602)
  32:      1271.91   25.430806  ( -1.939910   0.972505   4.552119)
  33:      1292.50   71.339215  ( -0.096348   2.112281   8.177298)
  34:      1308.26    5.235607  ( -1.751354   1.389896   0.486370)
  35:      1402.59   83.514430  ( -0.195590  -2.894164  -8.666025)
  36:      1413.09    4.146203  (  0.376676  -0.489520  -1.940280)
  37:      1448.71   22.409537  ( -3.853225   2.747167  -0.123551)
  38:      1469.26   15.114906  ( -1.478979  -1.938890   3.027909)
  39:      1481.44   18.690772  ( -2.277655  -3.179563  -1.842130)
  40:      1489.12    5.963531  ( -2.130910   0.696313  -0.968452)
  41:      1496.62   37.619291  ( -2.513337  -2.854393   4.811951)
  42:      1503.22  104.680999  ( -4.783807  -4.553111   7.814434)
  43:      1656.50   29.288396  (  4.298985  -3.265829   0.376148)
  44:      1659.32   44.892141  ( -2.863922  -4.389333  -4.174188)
  45:      2971.55   41.135884  ( -4.275141  -3.804977   2.895031)
  46:      3017.20   34.658595  ( -1.431405   5.470089   1.639451)
  47:      3080.48   21.933833  ( -4.113172  -2.188125  -0.477238)
  48:      3082.98   16.210236  (  3.473614  -1.152700   1.677952)
  49:      3089.37    6.838883  (  2.059454   0.078783  -1.609759)
  50:      3138.30    5.307924  ( -0.242037  -0.810393  -2.143037)
  51:      3150.21    3.997864  (  1.447097  -1.334377   0.351014)
  52:      3154.40    1.757530  (  1.096576  -0.704513   0.242308)
  53:      3171.16    5.933974  ( -0.237009  -0.649588   2.335773)
  54:      3416.65   39.360661  (  2.243384   1.821425  -5.568689)
  55:      3502.77   90.031939  (  6.608155  -6.775288  -0.678017)
  56:      3504.26   85.575315  ( -5.096358  -4.236372  -6.454115)

--------------------------
THERMOCHEMISTRY AT 298.15K
--------------------------

Temperature         ... 298.15 K
Pressure            ... 1.00 atm
Total Mass          ... 102.16 AMU

Throughout the following assumptions are being made:
  (1) The electronic state is orbitally nondegenerate
  (2) There are no thermally accessible electronically excited states
  (3) Hindered rotations indicated by low frequency modes) are not
      treated as such but are treated as vibrations and this may
      case some error
  (4) All equations used are the standard statistical mechanics
      equations for an ideal gas
  (5) All vibrations are strinctly harmonic

------------
INNER ENERGY
------------

The inner energy is: U= E(el) + E(ZPE) + E(vib) + E(rot) + E(trans)
    E(el)   - is the total energy from the electronic structure calculation
              = E(kin-el) + E(nuc-el) + E(el-el) + E(nuc-nuc)
    E(ZPE)  - the the zero temperature vibrational energy from the frequency calculation
    E(vib)  - the the finite temperature correction to E(ZPE) due to population
              of excietd vibrational states
    E(rot)  - is the rotational thermal energy
    E(trans)- is the translational thermal energy

Summary of contributions to the inner energy U:
Electronic energy                ...   -327.18864496 Eh
Zero point energy                ...      0.17555780 Eh     110.16 kcal/mol
Thermal vibrational correction   ...      0.00519461 Eh       3.26 kcal/mol
Thermal rotational correction    ...      0.00141627 Eh       0.89 kcal/mol
Thermal translational correction ...      0.00141627 Eh       0.89 kcal/mol
-----------------------------------------------------------------------
Total thermal energy                   -327.00506000 Eh

Summary of corrections to the electronic energy:
(perhaps to be used in another calculation)
Total thermal correction                  0.00802716 Eh       5.04 kcal/mol
Non-thermal (ZPE) correction              0.17555780 Eh     110.16 kcal/mol
-----------------------------------------------------------------------
Total correction                          0.18358496 Eh     115.20 kcal/mol

--------
ENTHALPY
--------

The enthalpy is H = U + kB*T
                kB is Boltzmann's constant
Total free energy                 ...   -327.00506000 Eh
Thermal Enthalpy correction       ...      0.00094421 Eh       0.59 kcal/mol
-----------------------------------------------------------------------
Total Enthalpy                    ...   -327.00411579 Eh

-------
ENTROPY
-------

The entropy contributions are T*S = T*(S(el)+S(vib)+S(rot)+S(trans)
     S(el)   - electronic entropy
     S(vib)  - vibrational entropy
     S(rot)  - rotational entropy
     S(trans)- translational entropy
The entropies will be listed as mutliplied by the temperature to get
units of energy

Electronic entropy                ...      0.00000000 Eh      0.00 kcal/mol
Vibrational entropy               ...      0.00932344 Eh      5.85 kcal/mol
Rotational entropy                ...      0.01206674 Eh      7.57 kcal/mol
Translational entropy             ...      0.01890147 Eh     11.86 kcal/mol
-----------------------------------------------------------------------
Final entropy term                ...      0.04029164 Eh     25.28 kcal/mol

CAUTION: The rotational entropy is not quite correctly treated here
         because it includes a symmetry number that is not yet correctly
         implemented in ORCA!
For a nonlinear molecule the correct rotational entropy is:
    S(rot) = R*(ln(qrot/sn)+1.5)
    R    = 8.31441 J/mol/K = 1.987191683e-3 kcal/mol/K
    qrot = 237689.5827974
    sn is the rotational symmetry number. We have assumed 3 here
       if it is different for your molecule then you should correct
       the printed rotational entropy by manually evaluating the equation
       as given above

For convenience we print out the resulting values for sn=1 - 12:
 sn= 1  qrot/sn=  237689.5828 T*S(rot)=     8.22 kcal/mol T*S(tot)=    25.93 kcal/mol
 sn= 2  qrot/sn=  118844.7914 T*S(rot)=     7.81 kcal/mol T*S(tot)=    25.52 kcal/mol
 sn= 3  qrot/sn=   79229.8609 T*S(rot)=     7.57 kcal/mol T*S(tot)=    25.28 kcal/mol
 sn= 4  qrot/sn=   59422.3957 T*S(rot)=     7.40 kcal/mol T*S(tot)=    25.11 kcal/mol
 sn= 5  qrot/sn=   47537.9166 T*S(rot)=     7.27 kcal/mol T*S(tot)=    24.98 kcal/mol
 sn= 6  qrot/sn=   39614.9305 T*S(rot)=     7.16 kcal/mol T*S(tot)=    24.87 kcal/mol
 sn= 7  qrot/sn=   33955.6547 T*S(rot)=     7.07 kcal/mol T*S(tot)=    24.78 kcal/mol
 sn= 8  qrot/sn=   29711.1978 T*S(rot)=     6.99 kcal/mol T*S(tot)=    24.70 kcal/mol
 sn= 9  qrot/sn=   26409.9536 T*S(rot)=     6.92 kcal/mol T*S(tot)=    24.63 kcal/mol
 sn=10  qrot/sn=   23768.9583 T*S(rot)=     6.86 kcal/mol T*S(tot)=    24.57 kcal/mol
 sn=11  qrot/sn=   21608.1439 T*S(rot)=     6.80 kcal/mol T*S(tot)=    24.51 kcal/mol
 sn=12  qrot/sn=   19807.4652 T*S(rot)=     6.75 kcal/mol T*S(tot)=    24.46 kcal/mol

-------------------
GIBBS FREE ENTHALPY
-------------------

The Gibbs free enthalpy is G = H - T*S

Total enthalpy                    ...   -327.00411579 Eh
Total entropy correction          ...     -0.04029164 Eh    -25.28 kcal/mol
-----------------------------------------------------------------------
Final Gibbs free enthalpy         ...   -327.04440743 Eh

For completeness - the Gibbs free enthalpy minus the electronic energy
G-E(el)                           ...      0.14423753 Eh     90.51 kcal/mol

                             ****ORCA TERMINATED NORMALLY****
TOTAL RUN TIME: 0 days 0 hours 53 minutes 13 seconds 4 msec
