                         Program Version 3.0.3 - RELEASE   -
|  1> ! NORI PBE0 def2-TZVP UseSym TightOPT Freq TightSCF Grid3 FinalGrid5 XYZFile
|  2> % pal
|  3>     nprocs 8
|  4> end
|  5> %method
|  6>     SymThresh 5.0e-2
|  7> end
|  8> % geom
|  9>     MaxIter 10
| 10> end
| 11> % maxcore 2000
| 12> % output
| 13>     printlevel mini
| 14>     print[ P_Basis ] 0
| 15>     print[ P_SCFInfo ] 1
| 16>     print[ P_SCFIterInfo ] 1
| 17>     print[ P_OrbEn ] 0
| 18>     print[ P_Cartesian ] 0
| 19> end
| 20> % elprop
| 21>     Dipole false
| 22> end
| 23> *xyz 1 1
| 24>  C        2.2971923404     0.7602687038    -0.9026393996
| 25>  O        2.0233697907    -0.2051298845     0.1025241091
| 26>  C        2.9167591615    -1.2415870008     0.1696104547
| 27>  C        2.7225336924    -2.0845368694     1.4323430437
| 28>  N        2.7740566096    -3.3493603734     0.6046769600
| 29>  C        2.6146916410    -2.5152587461    -0.6737396805
| 30>  C        3.4998347102    -2.9352143729    -1.8068806813
| 31>  H        1.5694496550     1.5580894410    -0.7725506251
| 32>  H        2.1871341908     0.3375101437    -1.9067381823
| 33>  H        3.3067066115     1.1679360524    -0.7857660173
| 34>  H        3.9547238583    -0.9088317904     0.0310892627
| 35>  H        1.7215953609    -1.9600354449     1.8416818092
| 36>  H        3.4715793631    -2.0579614469     2.2201186739
| 37>  H        3.6807867972    -3.8132996228     0.6453499294
| 38>  H        2.0534762718    -4.0446545745     0.7910422726
| 39>  H        1.5538561244    -2.5366042808    -0.9300037566
| 40>  H        4.5569021178    -2.9107383958    -1.5280972141
| 41>  H        3.3621587501    -2.2407843533    -2.6382402997
| 42>  H        3.2498829532    -3.9338871848    -2.1715106586
| 43> *
| 44>
| 45>                          ****END OF INPUT****
 Total Charge           Charge          ....    1
 Multiplicity           Mult            ....    1
 Number of Electrons    NEL             ....   56
FINAL SINGLE POINT ENERGY      -327.195501336824

CARTESIAN COORDINATES (ANGSTROEM)
---------------------------------
  C     -1.293410   -0.043793    2.193581
  O      0.000357    0.000445    1.608871
  C      0.038713    0.467587    0.321446
  C      1.469967    0.744671   -0.145079
  N      1.202153   -0.000491   -1.433603
  C     -0.088488   -0.572042   -0.830980
  C     -1.263100   -0.573995   -1.761026
  H     -1.154894   -0.340784    3.230546
  H     -1.934706   -0.778186    1.695198
  H     -1.769648    0.941491    2.159150
  H     -0.636476    1.320266    0.165620
  H      2.194591    0.191291    0.449644
  H      1.797261    1.769107   -0.303727
  H      1.012465    0.620925   -2.218993
  H      1.908814   -0.673415   -1.725233
  H      0.157598   -1.565461   -0.451353
  H     -1.489203    0.429268   -2.132383
  H     -2.141661   -0.930514   -1.219392
  H     -1.110158   -1.243115   -2.610751

FINAL SINGLE POINT ENERGY      -327.195502091661
                    ***********************HURRAY********************
 Multiplicity           Mult            ....    1
 Number of Electrons    NEL             ....   56
 Basis Dimension        Dim             ....  289
FINAL SINGLE POINT ENERGY      -327.195502778059

VIBRATIONAL FREQUENCIES
-----------------------

   0:         0.00 cm**-1
   1:         0.00 cm**-1
   2:         0.00 cm**-1
   3:         0.00 cm**-1
   4:         0.00 cm**-1
   5:         0.00 cm**-1
   6:        62.65 cm**-1
   7:        90.83 cm**-1
   8:       163.34 cm**-1
   9:       223.96 cm**-1
  10:       232.62 cm**-1
  11:       315.27 cm**-1
  12:       330.40 cm**-1
  13:       432.41 cm**-1
  14:       491.67 cm**-1
  15:       654.43 cm**-1
  16:       800.88 cm**-1
  17:       820.27 cm**-1
  18:       859.96 cm**-1
  19:       922.42 cm**-1
  20:       934.90 cm**-1
  21:       987.42 cm**-1
  22:      1040.43 cm**-1
  23:      1075.36 cm**-1
  24:      1098.46 cm**-1
  25:      1149.47 cm**-1
  26:      1172.87 cm**-1
  27:      1186.98 cm**-1
  28:      1194.45 cm**-1
  29:      1249.84 cm**-1
  30:      1261.58 cm**-1
  31:      1284.59 cm**-1
  32:      1293.46 cm**-1
  33:      1316.53 cm**-1
  34:      1320.85 cm**-1
  35:      1382.63 cm**-1
  36:      1418.14 cm**-1
  37:      1419.07 cm**-1
  38:      1477.25 cm**-1
  39:      1478.61 cm**-1
  40:      1482.45 cm**-1
  41:      1485.77 cm**-1
  42:      1492.75 cm**-1
  43:      1497.65 cm**-1
  44:      1646.47 cm**-1
  45:      3026.62 cm**-1
  46:      3031.15 cm**-1
  47:      3054.05 cm**-1
  48:      3099.54 cm**-1
  49:      3115.92 cm**-1
  50:      3127.97 cm**-1
  51:      3137.17 cm**-1
  52:      3143.28 cm**-1
  53:      3178.37 cm**-1
  54:      3204.06 cm**-1
  55:      3470.75 cm**-1
  56:      3540.23 cm**-1

IR SPECTRUM
-----------

 Mode    freq (cm**-1)   T**2         TX         TY         TZ
-------------------------------------------------------------------
   6:        62.65    8.325603  (  0.067257  -2.884476   0.029621)
   7:        90.83    1.266560  (  0.307428   0.156010   1.071312)
   8:       163.34    0.184759  ( -0.092093   0.371071   0.196429)
   9:       223.96    2.743666  ( -0.608177  -1.526551   0.208395)
  10:       232.62    0.681920  (  0.164187  -0.560258  -0.584015)
  11:       315.27    4.482788  (  1.049835   1.342339   1.256487)
  12:       330.40    5.299218  (  1.599597  -1.027323   1.298120)
  13:       432.41    0.437667  (  0.375435   0.168497  -0.518001)
  14:       491.67    4.227135  (  0.771726  -0.869576  -1.695704)
  15:       654.43    4.054449  ( -0.045073   1.283876   1.550510)
  16:       800.88    7.048313  ( -2.573800   0.560520  -0.331183)
  17:       820.27    3.916640  ( -0.243549  -1.951108  -0.224726)
  18:       859.96    9.336212  ( -2.292318   1.687164  -1.111291)
  19:       922.42   15.316548  ( -2.025937  -2.661035  -2.032492)
  20:       934.90    1.731791  (  0.461117  -0.894065  -0.848416)
  21:       987.42    4.352354  (  0.170097  -0.270359  -2.061632)
  22:      1040.43   34.339171  ( -5.752237   0.677486   0.889916)
  23:      1075.36   11.923581  (  3.159136   1.341772  -0.378275)
  24:      1098.46    8.193869  (  1.930145   0.058349  -2.113056)
  25:      1149.47    5.580356  ( -2.042601  -0.735975   0.930849)
  26:      1172.87    8.960917  ( -1.540852  -2.087501   1.492994)
  27:      1186.98   38.714215  (  4.033166   0.584669  -4.701696)
  28:      1194.45   31.363280  (  2.812010  -0.047343  -4.842896)
  29:      1249.84   64.814732  (  6.428045   3.363121  -3.490615)
  30:      1261.58   65.909610  (  2.014603   1.958294   7.616828)
  31:      1284.59   19.202702  ( -2.242841  -1.872355   3.265984)
  32:      1293.46    8.117135  ( -0.169190   0.200385   2.836962)
  33:      1316.53   17.482949  ( -2.386437  -3.005890   1.659063)
  34:      1320.85   10.633305  (  1.982150   2.463263   0.797949)
  35:      1382.63    4.993052  ( -1.659944  -1.007904  -1.105336)
  36:      1418.14   31.523484  (  4.532517   0.269268  -3.302615)
  37:      1419.07   24.744863  (  0.686625  -0.200836   4.922710)
  38:      1477.25    9.848720  ( -0.792237  -1.980785  -2.301645)
  39:      1478.61   14.794126  ( -0.807100   2.587626   2.728902)
  40:      1482.45   24.180086  (  3.023848   0.711711  -3.811810)
  41:      1485.77    8.735507  ( -2.452465   1.631221  -0.245034)
  42:      1492.75   17.920705  ( -1.685722  -3.770642   0.928065)
  43:      1497.65    7.386538  ( -1.946322   1.269698  -1.409339)
  44:      1646.47   61.294870  (  3.726019   0.479030  -6.868929)
  45:      3026.62   15.483398  ( -1.859409  -2.757236   2.103246)
  46:      3031.15   27.295251  (  4.964335  -1.568446   0.436585)
  47:      3054.05    2.381072  (  0.277881   1.104833  -1.040768)
  48:      3099.54   24.416341  (  0.630964   4.618912   1.638255)
  49:      3115.92    1.460896  (  0.560653   0.694953   0.814619)
  50:      3127.97    0.334613  (  0.119185  -0.555153   0.110512)
  51:      3137.17    2.760961  (  0.565180  -1.559290   0.100727)
  52:      3143.28    1.482190  ( -0.516088   0.052628  -1.101396)
  53:      3178.37    3.614553  ( -0.259438   0.517375  -1.810958)
  54:      3204.06    1.523961  ( -1.040230   0.258991  -0.612214)
  55:      3470.75   64.729261  ( -4.045526   0.288383   6.948368)
  56:      3540.23   82.676147  ( -5.364656   7.006231  -2.193020)

--------------------------
THERMOCHEMISTRY AT 298.15K
--------------------------

Temperature         ... 298.15 K
Pressure            ... 1.00 atm
Total Mass          ... 102.16 AMU

Throughout the following assumptions are being made:
  (1) The electronic state is orbitally nondegenerate
  (2) There are no thermally accessible electronically excited states
  (3) Hindered rotations indicated by low frequency modes) are not
      treated as such but are treated as vibrations and this may
      case some error
  (4) All equations used are the standard statistical mechanics
      equations for an ideal gas
  (5) All vibrations are strinctly harmonic

------------
INNER ENERGY
------------

The inner energy is: U= E(el) + E(ZPE) + E(vib) + E(rot) + E(trans)
    E(el)   - is the total energy from the electronic structure calculation
              = E(kin-el) + E(nuc-el) + E(el-el) + E(nuc-nuc)
    E(ZPE)  - the the zero temperature vibrational energy from the frequency calculation
    E(vib)  - the the finite temperature correction to E(ZPE) due to population
              of excietd vibrational states
    E(rot)  - is the rotational thermal energy
    E(trans)- is the translational thermal energy

Summary of contributions to the inner energy U:
Electronic energy                ...   -327.19550278 Eh
Zero point energy                ...      0.17514149 Eh     109.90 kcal/mol
Thermal vibrational correction   ...      0.00527787 Eh       3.31 kcal/mol
Thermal rotational correction    ...      0.00141627 Eh       0.89 kcal/mol
Thermal translational correction ...      0.00141627 Eh       0.89 kcal/mol
-----------------------------------------------------------------------
Total thermal energy                   -327.01225087 Eh

Summary of corrections to the electronic energy:
(perhaps to be used in another calculation)
Total thermal correction                  0.00811042 Eh       5.09 kcal/mol
Non-thermal (ZPE) correction              0.17514149 Eh     109.90 kcal/mol
-----------------------------------------------------------------------
Total correction                          0.18325191 Eh     114.99 kcal/mol

--------
ENTHALPY
--------

The enthalpy is H = U + kB*T
                kB is Boltzmann's constant
Total free energy                 ...   -327.01225087 Eh
Thermal Enthalpy correction       ...      0.00094421 Eh       0.59 kcal/mol
-----------------------------------------------------------------------
Total Enthalpy                    ...   -327.01130666 Eh

-------
ENTROPY
-------

The entropy contributions are T*S = T*(S(el)+S(vib)+S(rot)+S(trans)
     S(el)   - electronic entropy
     S(vib)  - vibrational entropy
     S(rot)  - rotational entropy
     S(trans)- translational entropy
The entropies will be listed as mutliplied by the temperature to get
units of energy

Electronic entropy                ...      0.00000000 Eh      0.00 kcal/mol
Vibrational entropy               ...      0.00969696 Eh      6.08 kcal/mol
Rotational entropy                ...      0.01212520 Eh      7.61 kcal/mol
Translational entropy             ...      0.01890147 Eh     11.86 kcal/mol
-----------------------------------------------------------------------
Final entropy term                ...      0.04072362 Eh     25.55 kcal/mol

CAUTION: The rotational entropy is not quite correctly treated here
         because it includes a symmetry number that is not yet correctly
         implemented in ORCA!
For a nonlinear molecule the correct rotational entropy is:
    S(rot) = R*(ln(qrot/sn)+1.5)
    R    = 8.31441 J/mol/K = 1.987191683e-3 kcal/mol/K
    qrot = 252872.3803507
    sn is the rotational symmetry number. We have assumed 3 here
       if it is different for your molecule then you should correct
       the printed rotational entropy by manually evaluating the equation
       as given above

For convenience we print out the resulting values for sn=1 - 12:
 sn= 1  qrot/sn=  252872.3804 T*S(rot)=     8.26 kcal/mol T*S(tot)=    26.21 kcal/mol
 sn= 2  qrot/sn=  126436.1902 T*S(rot)=     7.85 kcal/mol T*S(tot)=    25.79 kcal/mol
 sn= 3  qrot/sn=   84290.7935 T*S(rot)=     7.61 kcal/mol T*S(tot)=    25.55 kcal/mol
 sn= 4  qrot/sn=   63218.0951 T*S(rot)=     7.44 kcal/mol T*S(tot)=    25.38 kcal/mol
 sn= 5  qrot/sn=   50574.4761 T*S(rot)=     7.31 kcal/mol T*S(tot)=    25.25 kcal/mol
 sn= 6  qrot/sn=   42145.3967 T*S(rot)=     7.20 kcal/mol T*S(tot)=    25.14 kcal/mol
 sn= 7  qrot/sn=   36124.6258 T*S(rot)=     7.11 kcal/mol T*S(tot)=    25.05 kcal/mol
 sn= 8  qrot/sn=   31609.0475 T*S(rot)=     7.03 kcal/mol T*S(tot)=    24.97 kcal/mol
 sn= 9  qrot/sn=   28096.9312 T*S(rot)=     6.96 kcal/mol T*S(tot)=    24.90 kcal/mol
 sn=10  qrot/sn=   25287.2380 T*S(rot)=     6.90 kcal/mol T*S(tot)=    24.84 kcal/mol
 sn=11  qrot/sn=   22988.3982 T*S(rot)=     6.84 kcal/mol T*S(tot)=    24.78 kcal/mol
 sn=12  qrot/sn=   21072.6984 T*S(rot)=     6.79 kcal/mol T*S(tot)=    24.73 kcal/mol

-------------------
GIBBS FREE ENTHALPY
-------------------

The Gibbs free enthalpy is G = H - T*S

Total enthalpy                    ...   -327.01130666 Eh
Total entropy correction          ...     -0.04072362 Eh    -25.55 kcal/mol
-----------------------------------------------------------------------
Final Gibbs free enthalpy         ...   -327.05203028 Eh

For completeness - the Gibbs free enthalpy minus the electronic energy
G-E(el)                           ...      0.14347250 Eh     90.03 kcal/mol

                             ****ORCA TERMINATED NORMALLY****
TOTAL RUN TIME: 0 days 0 hours 52 minutes 30 seconds 708 msec
