                         Program Version 3.0.3 - RELEASE   -
|  1> ! NORI PBE0 def2-TZVP UseSym TightOPT Freq TightSCF Grid3 FinalGrid5 XYZFile
|  2> % pal
|  3>     nprocs 8
|  4> end
|  5> %method
|  6>     SymThresh 5.0e-2
|  7> end
|  8> % geom
|  9>     MaxIter 10
| 10> end
| 11> % maxcore 2000
| 12> % output
| 13>     printlevel mini
| 14>     print[ P_Basis ] 0
| 15>     print[ P_SCFInfo ] 1
| 16>     print[ P_SCFIterInfo ] 1
| 17>     print[ P_OrbEn ] 0
| 18>     print[ P_Cartesian ] 0
| 19> end
| 20> % elprop
| 21>     Dipole false
| 22> end
| 23> *xyz 1 1
| 24>  C        2.5110272022     0.8040254001    -0.3104741045
| 25>  O        2.2438392706    -0.5914337758    -0.1690611149
| 26>  C        2.5407508176    -1.1028432773     1.0780580717
| 27>  C        2.7880554630    -2.5799923406     1.0149203251
| 28>  N        2.6271573696    -3.1439838488    -0.3361934825
| 29>  C        3.9340186672    -1.6517105794     1.2635421777
| 30>  O        4.4839099039    -1.7989224081     2.5108813778
| 31>  H        2.2421925884     1.0718727487    -1.3295812235
| 32>  H        3.5701792134     1.0147364309    -0.1390167720
| 33>  H        1.9002364463     1.3771362619     0.3906665770
| 34>  H        1.9920753923    -0.7058815696     1.9286877290
| 35>  H        2.4729715537    -3.2344635066     1.8154343483
| 36>  H        2.5141682609    -2.3352860225    -0.9728386564
| 37>  H        1.7826563001    -3.7154327295    -0.4049302869
| 38>  H        3.4254484599    -3.7101605902    -0.6296790571
| 39>  H        4.6125880233    -1.4681135829     0.4279000614
| 40>  H        4.8587750676    -0.9632066103     2.8090940299
| 41> *
| 42>
| 43>                          ****END OF INPUT****
 Total Charge           Charge          ....    1
 Multiplicity           Mult            ....    1
 Number of Electrons    NEL             ....   56
FINAL SINGLE POINT ENERGY      -363.076728325294
FINAL SINGLE POINT ENERGY      -363.076729360437

CARTESIAN COORDINATES (ANGSTROEM)
---------------------------------
  C      1.132243    0.432453    2.201733
  O      0.000432   -0.000515    1.446526
  C      0.314067   -0.580553    0.234084
  C     -0.835467   -0.491618   -0.724623
  N     -2.028626    0.154361   -0.151466
  C      0.381942    0.345134   -0.955998
  O      1.064247   -0.001311   -2.093389
  H      0.746292    0.869043    3.120052
  H      1.704760    1.180962    1.647375
  H      1.771939   -0.419780    2.443463
  H      0.904324   -1.493593    0.250541
  H     -1.048064   -1.293310   -1.418308
  H     -1.735051    0.538243    0.764054
  H     -2.774442   -0.523030    0.018816
  H     -2.399475    0.901975   -0.740621
  H      0.304626    1.407509   -0.714353
  H      2.001453    0.196177   -1.990900

FINAL SINGLE POINT ENERGY      -363.076730186084
                    ***********************HURRAY********************
 Multiplicity           Mult            ....    1
 Number of Electrons    NEL             ....   56
 Basis Dimension        Dim             ....  277
FINAL SINGLE POINT ENERGY      -363.076730515238

VIBRATIONAL FREQUENCIES
-----------------------

   0:         0.00 cm**-1
   1:         0.00 cm**-1
   2:         0.00 cm**-1
   3:         0.00 cm**-1
   4:         0.00 cm**-1
   5:         0.00 cm**-1
   6:        99.69 cm**-1
   7:       165.97 cm**-1
   8:       175.17 cm**-1
   9:       245.97 cm**-1
  10:       252.35 cm**-1
  11:       301.11 cm**-1
  12:       307.53 cm**-1
  13:       329.74 cm**-1
  14:       413.99 cm**-1
  15:       505.89 cm**-1
  16:       596.12 cm**-1
  17:       844.04 cm**-1
  18:       902.25 cm**-1
  19:       932.62 cm**-1
  20:      1015.36 cm**-1
  21:      1024.88 cm**-1
  22:      1057.64 cm**-1
  23:      1094.13 cm**-1
  24:      1135.50 cm**-1
  25:      1167.64 cm**-1
  26:      1178.29 cm**-1
  27:      1188.92 cm**-1
  28:      1200.83 cm**-1
  29:      1224.75 cm**-1
  30:      1250.63 cm**-1
  31:      1277.86 cm**-1
  32:      1338.39 cm**-1
  33:      1362.27 cm**-1
  34:      1468.48 cm**-1
  35:      1483.20 cm**-1
  36:      1489.17 cm**-1
  37:      1495.60 cm**-1
  38:      1513.71 cm**-1
  39:      1642.44 cm**-1
  40:      1660.36 cm**-1
  41:      3047.69 cm**-1
  42:      3097.78 cm**-1
  43:      3125.76 cm**-1
  44:      3160.35 cm**-1
  45:      3180.96 cm**-1
  46:      3231.63 cm**-1
  47:      3271.95 cm**-1
  48:      3457.29 cm**-1
  49:      3507.55 cm**-1
  50:      3836.47 cm**-1

IR SPECTRUM
-----------

 Mode    freq (cm**-1)   T**2         TX         TY         TZ
-------------------------------------------------------------------
   6:        99.69    3.394079  (  0.368017   1.744511  -0.464032)
   7:       165.97    6.901057  ( -1.810431  -1.128174  -1.533173)
   8:       175.17   12.248890  (  2.611573   0.691874   2.224834)
   9:       245.97   17.136963  ( -0.033203  -2.951099   2.902908)
  10:       252.35    9.529943  (  0.425071  -1.535019   2.644423)
  11:       301.11   12.628779  ( -1.669821  -2.022333  -2.398051)
  12:       307.53   49.605065  ( -1.931106   6.071812  -3.001499)
  13:       329.74   96.235887  (  0.346376  -8.670736   4.575395)
  14:       413.99   26.720115  (  4.730576  -1.575845  -1.363259)
  15:       505.89    2.788592  ( -0.857746  -1.356312   0.461826)
  16:       596.12   16.370630  ( -3.929963   0.791897  -0.546736)
  17:       844.04   34.941583  (  5.457008   2.271397  -0.058344)
  18:       902.25   14.099446  ( -3.466588   1.374289  -0.439939)
  19:       932.62    6.921194  (  0.895782   2.400841  -0.595592)
  20:      1015.36   32.458509  (  5.400681   0.752959   1.650516)
  21:      1024.88   10.791404  ( -1.223246  -0.541073  -3.000386)
  22:      1057.64   20.456284  ( -4.216474   1.617838  -0.245423)
  23:      1094.13    5.055659  (  0.299550  -1.196274   1.880121)
  24:      1135.50  139.181337  (  3.937294   2.334628  10.873296)
  25:      1167.64   37.680402  (  2.875567   2.145157   4.980945)
  26:      1178.29    5.471068  (  0.062767  -1.731993   1.570773)
  27:      1188.92   21.184807  ( -0.469470  -2.724640  -3.679775)
  28:      1200.83   10.963147  (  2.872157   0.449555   1.584853)
  29:      1224.75   74.751156  ( -4.029646   0.017866   7.649366)
  30:      1250.63   42.583525  ( -0.314796   2.448483   6.040642)
  31:      1277.86   73.932883  ( -4.357350   0.918605   7.355444)
  32:      1338.39   23.496336  ( -2.553280  -0.851850  -4.031308)
  33:      1362.27   16.431928  (  1.761289   2.211430   2.905059)
  34:      1468.48   42.571937  (  5.114449  -3.566280  -1.922496)
  35:      1483.20   24.454714  ( -4.536828  -0.430903   1.919955)
  36:      1489.17   69.952394  ( -6.764916   4.910544  -0.273612)
  37:      1495.60   22.648220  (  2.530302  -1.976162  -3.512915)
  38:      1513.71   37.594779  (  5.635293  -1.257848  -2.063024)
  39:      1642.44   23.613779  (  3.867419   2.142169   2.016919)
  40:      1660.36   31.897198  ( -0.149518  -3.451955   4.467533)
  41:      3047.69   22.861075  ( -4.121421  -1.466021  -1.930219)
  42:      3097.78   16.069244  ( -1.884192   2.051200   2.882992)
  43:      3125.76   14.715630  (  0.080740  -3.379533   1.813248)
  44:      3160.35    1.981058  (  0.359874  -0.644179  -1.198575)
  45:      3180.96    3.115002  ( -0.810305   0.564094   1.462944)
  46:      3231.63    2.096821  ( -0.179289   1.430850  -0.131698)
  47:      3271.95  150.195401  ( -5.828174  -3.131059 -10.316213)
  48:      3457.29  112.120488  (  9.381211   0.568103   4.877564)
  49:      3507.55  101.531749  (  2.410127   8.598200  -4.668403)
  50:      3836.47   98.580852  ( -9.450201  -1.301758   2.753178)

--------------------------
THERMOCHEMISTRY AT 298.15K
--------------------------

Temperature         ... 298.15 K
Pressure            ... 1.00 atm
Total Mass          ... 104.13 AMU

Throughout the following assumptions are being made:
  (1) The electronic state is orbitally nondegenerate
  (2) There are no thermally accessible electronically excited states
  (3) Hindered rotations indicated by low frequency modes) are not
      treated as such but are treated as vibrations and this may
      case some error
  (4) All equations used are the standard statistical mechanics
      equations for an ideal gas
  (5) All vibrations are strinctly harmonic

------------
INNER ENERGY
------------

The inner energy is: U= E(el) + E(ZPE) + E(vib) + E(rot) + E(trans)
    E(el)   - is the total energy from the electronic structure calculation
              = E(kin-el) + E(nuc-el) + E(el-el) + E(nuc-nuc)
    E(ZPE)  - the the zero temperature vibrational energy from the frequency calculation
    E(vib)  - the the finite temperature correction to E(ZPE) due to population
              of excietd vibrational states
    E(rot)  - is the rotational thermal energy
    E(trans)- is the translational thermal energy

Summary of contributions to the inner energy U:
Electronic energy                ...   -363.07673052 Eh
Zero point energy                ...      0.15095128 Eh      94.72 kcal/mol
Thermal vibrational correction   ...      0.00529373 Eh       3.32 kcal/mol
Thermal rotational correction    ...      0.00141627 Eh       0.89 kcal/mol
Thermal translational correction ...      0.00141627 Eh       0.89 kcal/mol
-----------------------------------------------------------------------
Total thermal energy                   -362.91765297 Eh

Summary of corrections to the electronic energy:
(perhaps to be used in another calculation)
Total thermal correction                  0.00812627 Eh       5.10 kcal/mol
Non-thermal (ZPE) correction              0.15095128 Eh      94.72 kcal/mol
-----------------------------------------------------------------------
Total correction                          0.15907755 Eh      99.82 kcal/mol

--------
ENTHALPY
--------

The enthalpy is H = U + kB*T
                kB is Boltzmann's constant
Total free energy                 ...   -362.91765297 Eh
Thermal Enthalpy correction       ...      0.00094421 Eh       0.59 kcal/mol
-----------------------------------------------------------------------
Total Enthalpy                    ...   -362.91670876 Eh

-------
ENTROPY
-------

The entropy contributions are T*S = T*(S(el)+S(vib)+S(rot)+S(trans)
     S(el)   - electronic entropy
     S(vib)  - vibrational entropy
     S(rot)  - rotational entropy
     S(trans)- translational entropy
The entropies will be listed as mutliplied by the temperature to get
units of energy

Electronic entropy                ...      0.00000000 Eh      0.00 kcal/mol
Vibrational entropy               ...      0.00905124 Eh      5.68 kcal/mol
Rotational entropy                ...      0.01215317 Eh      7.63 kcal/mol
Translational entropy             ...      0.01892854 Eh     11.88 kcal/mol
-----------------------------------------------------------------------
Final entropy term                ...      0.04013295 Eh     25.18 kcal/mol

CAUTION: The rotational entropy is not quite correctly treated here
         because it includes a symmetry number that is not yet correctly
         implemented in ORCA!
For a nonlinear molecule the correct rotational entropy is:
    S(rot) = R*(ln(qrot/sn)+1.5)
    R    = 8.31441 J/mol/K = 1.987191683e-3 kcal/mol/K
    qrot = 260475.7132646
    sn is the rotational symmetry number. We have assumed 3 here
       if it is different for your molecule then you should correct
       the printed rotational entropy by manually evaluating the equation
       as given above

For convenience we print out the resulting values for sn=1 - 12:
 sn= 1  qrot/sn=  260475.7133 T*S(rot)=     8.28 kcal/mol T*S(tot)=    25.83 kcal/mol
 sn= 2  qrot/sn=  130237.8566 T*S(rot)=     7.87 kcal/mol T*S(tot)=    25.42 kcal/mol
 sn= 3  qrot/sn=   86825.2378 T*S(rot)=     7.63 kcal/mol T*S(tot)=    25.18 kcal/mol
 sn= 4  qrot/sn=   65118.9283 T*S(rot)=     7.46 kcal/mol T*S(tot)=    25.01 kcal/mol
 sn= 5  qrot/sn=   52095.1427 T*S(rot)=     7.32 kcal/mol T*S(tot)=    24.88 kcal/mol
 sn= 6  qrot/sn=   43412.6189 T*S(rot)=     7.22 kcal/mol T*S(tot)=    24.77 kcal/mol
 sn= 7  qrot/sn=   37210.8162 T*S(rot)=     7.12 kcal/mol T*S(tot)=    24.68 kcal/mol
 sn= 8  qrot/sn=   32559.4642 T*S(rot)=     7.05 kcal/mol T*S(tot)=    24.60 kcal/mol
 sn= 9  qrot/sn=   28941.7459 T*S(rot)=     6.98 kcal/mol T*S(tot)=    24.53 kcal/mol
 sn=10  qrot/sn=   26047.5713 T*S(rot)=     6.91 kcal/mol T*S(tot)=    24.47 kcal/mol
 sn=11  qrot/sn=   23679.6103 T*S(rot)=     6.86 kcal/mol T*S(tot)=    24.41 kcal/mol
 sn=12  qrot/sn=   21706.3094 T*S(rot)=     6.80 kcal/mol T*S(tot)=    24.36 kcal/mol

-------------------
GIBBS FREE ENTHALPY
-------------------

The Gibbs free enthalpy is G = H - T*S

Total enthalpy                    ...   -362.91670876 Eh
Total entropy correction          ...     -0.04013295 Eh    -25.18 kcal/mol
-----------------------------------------------------------------------
Final Gibbs free enthalpy         ...   -362.95684171 Eh

For completeness - the Gibbs free enthalpy minus the electronic energy
G-E(el)                           ...      0.11988881 Eh     75.23 kcal/mol

                             ****ORCA TERMINATED NORMALLY****
TOTAL RUN TIME: 0 days 0 hours 41 minutes 34 seconds 402 msec
