                         Program Version 3.0.3 - RELEASE   -
|  1> ! NORI PBE0 def2-TZVP UseSym TightOPT Freq TightSCF Grid3 FinalGrid5 XYZFile
|  2> % pal
|  3>     nprocs 8
|  4> end
|  5> %method
|  6>     SymThresh 5.0e-2
|  7> end
|  8> % geom
|  9>     MaxIter 10
| 10> end
| 11> % maxcore 2000
| 12> % output
| 13>     printlevel mini
| 14>     print[ P_Basis ] 0
| 15>     print[ P_SCFInfo ] 1
| 16>     print[ P_SCFIterInfo ] 1
| 17>     print[ P_OrbEn ] 0
| 18>     print[ P_Cartesian ] 0
| 19> end
| 20> % elprop
| 21>     Dipole false
| 22> end
| 23> *xyz 1 1
| 24>  C        2.1208415278     0.3423270463    -2.7538963921
| 25>  O        2.9194178103     0.3403980008    -1.5720432559
| 26>  C        3.5284961853    -0.8739379187    -1.2588753203
| 27>  C        4.8779654672    -0.9617277401    -1.9093245125
| 28>  N        5.5911581975     0.3076803096    -1.5263297011
| 29>  C        3.3621861339    -1.3672209373     0.1462411832
| 30>  C        2.7282413574    -2.1021397777    -0.9988674908
| 31>  H        1.7576686333     1.3604358582    -2.8771442018
| 32>  H        1.2695944546    -0.3325857950    -2.6485479224
| 33>  H        2.6987239434     0.0554870079    -3.6389515378
| 34>  H        5.4681335388    -1.8140835491    -1.5765344322
| 35>  H        4.8163580064    -0.9662315743    -2.9990361331
| 36>  H        5.8808837681     0.2864376155    -0.5472114027
| 37>  H        4.8881572714     1.0563802568    -1.6243073725
| 38>  H        6.4049727844     0.5114771010    -2.1058153355
| 39>  H        2.7096996828    -0.7822118295     0.7813398125
| 40>  H        4.2049931357    -1.8285733266     0.6482434583
| 41>  H        3.1344058589    -3.0607596726    -1.2970094924
| 42>  H        1.6548822430    -2.0152210751    -1.1063499509
| 43> *
| 44>
| 45>                          ****END OF INPUT****
 Total Charge           Charge          ....    1
 Multiplicity           Mult            ....    1
 Number of Electrons    NEL             ....   56
FINAL SINGLE POINT ENERGY      -327.190669370455
FINAL SINGLE POINT ENERGY      -327.190670699413

CARTESIAN COORDINATES (ANGSTROEM)
---------------------------------
  C     -0.547796    1.159955    1.772825
  O     -0.001481   -0.001040    1.150770
  C     -0.274901   -0.138987   -0.209050
  C      0.787060    0.539906   -1.023787
  N      2.093807   -0.000027   -0.506996
  C     -0.802010   -1.468383   -0.657949
  C     -1.671634   -0.246565   -0.713923
  H     -0.212667    1.140383    2.808009
  H     -1.638640    1.137222    1.747342
  H     -0.197565    2.082397    1.297196
  H      0.716053    0.334909   -2.090643
  H      0.811482    1.619074   -0.862200
  H      2.242479   -0.962171   -0.815900
  H      1.995702   -0.017016    0.519744
  H      2.903374    0.559855   -0.773567
  H     -1.007251   -2.187167    0.124427
  H     -0.448058   -1.889716   -1.592231
  H     -1.911725    0.183964   -1.678409
  H     -2.461910   -0.170600    0.021448

FINAL SINGLE POINT ENERGY      -327.190671352596
                    ***********************HURRAY********************
 Multiplicity           Mult            ....    1
 Number of Electrons    NEL             ....   56
 Basis Dimension        Dim             ....  289
FINAL SINGLE POINT ENERGY      -327.190671598348

VIBRATIONAL FREQUENCIES
-----------------------

   0:         0.00 cm**-1
   1:         0.00 cm**-1
   2:         0.00 cm**-1
   3:         0.00 cm**-1
   4:         0.00 cm**-1
   5:         0.00 cm**-1
   6:        90.01 cm**-1
   7:       116.07 cm**-1
   8:       168.97 cm**-1
   9:       222.27 cm**-1
  10:       255.07 cm**-1
  11:       263.23 cm**-1
  12:       341.37 cm**-1
  13:       375.54 cm**-1
  14:       444.66 cm**-1
  15:       573.13 cm**-1
  16:       707.38 cm**-1
  17:       780.65 cm**-1
  18:       847.04 cm**-1
  19:       893.14 cm**-1
  20:       923.31 cm**-1
  21:       941.22 cm**-1
  22:       966.88 cm**-1
  23:      1022.34 cm**-1
  24:      1058.50 cm**-1
  25:      1082.27 cm**-1
  26:      1100.31 cm**-1
  27:      1107.53 cm**-1
  28:      1135.57 cm**-1
  29:      1176.42 cm**-1
  30:      1194.42 cm**-1
  31:      1216.31 cm**-1
  32:      1293.25 cm**-1
  33:      1300.84 cm**-1
  34:      1369.99 cm**-1
  35:      1409.68 cm**-1
  36:      1449.95 cm**-1
  37:      1464.74 cm**-1
  38:      1479.62 cm**-1
  39:      1485.63 cm**-1
  40:      1489.38 cm**-1
  41:      1501.40 cm**-1
  42:      1505.00 cm**-1
  43:      1637.16 cm**-1
  44:      1671.24 cm**-1
  45:      3036.87 cm**-1
  46:      3101.29 cm**-1
  47:      3120.96 cm**-1
  48:      3152.55 cm**-1
  49:      3163.56 cm**-1
  50:      3172.04 cm**-1
  51:      3173.19 cm**-1
  52:      3245.31 cm**-1
  53:      3257.32 cm**-1
  54:      3326.45 cm**-1
  55:      3474.54 cm**-1
  56:      3532.03 cm**-1

IR SPECTRUM
-----------

 Mode    freq (cm**-1)   T**2         TX         TY         TZ
-------------------------------------------------------------------
   6:        90.01    2.371492  (  0.460235   1.397795   0.453702)
   7:       116.07   11.101857  (  0.625411  -2.143681  -2.472924)
   8:       168.97    0.355318  (  0.342189  -0.095363  -0.478676)
   9:       222.27   32.021365  ( -4.308504  -1.659629   3.271665)
  10:       255.07    0.412563  ( -0.249364  -0.196349  -0.558416)
  11:       263.23    0.214303  ( -0.411440  -0.150162   0.149904)
  12:       341.37    1.133511  ( -1.047589   0.041539  -0.185320)
  13:       375.54   34.723268  (  5.793132   0.536165  -0.935635)
  14:       444.66    2.030821  (  0.280953   1.280482  -0.558796)
  15:       573.13    4.427380  ( -1.064602   1.507390   1.010831)
  16:       707.38   13.881975  (  3.227869   0.109056   1.857672)
  17:       780.65    0.739868  ( -0.377308  -0.110952   0.764981)
  18:       847.04   11.048301  ( -1.071104   2.654259   1.689954)
  19:       893.14    9.258753  (  0.515011   0.765736  -2.899511)
  20:       923.31    6.838361  ( -0.895314   2.292666   0.883434)
  21:       941.22   13.800576  ( -3.698688  -0.343728   0.046228)
  22:       966.88    4.134283  (  1.785265   0.751988  -0.617758)
  23:      1022.34   13.680485  (  0.694312   3.371909  -1.352275)
  24:      1058.50   11.813130  (  2.488962  -0.645795   2.280602)
  25:      1082.27   28.320802  (  4.059650   1.868040  -2.889718)
  26:      1100.31   34.428743  ( -1.537636   3.006853   4.798255)
  27:      1107.53   79.610709  (  3.059276  -5.962687  -5.890493)
  28:      1135.57    8.131148  (  2.319394   0.900010  -1.393392)
  29:      1176.42    6.152530  (  1.850946  -0.127744  -1.646271)
  30:      1194.42    0.103288  ( -0.093781  -0.182823   0.247122)
  31:      1216.31    2.018289  ( -0.828731   0.972818  -0.620580)
  32:      1293.25   45.395882  ( -0.261234  -2.416670  -6.283896)
  33:      1300.84    2.328952  (  1.101466  -0.405084  -0.975516)
  34:      1369.99   39.626245  (  1.442466   3.274128   5.179346)
  35:      1409.68    3.179420  ( -1.563340  -0.794112  -0.323687)
  36:      1449.95   10.089595  ( -1.759679   2.512236  -0.825711)
  37:      1464.74   85.334420  (  8.253482  -2.118175   3.567603)
  38:      1479.62   87.909559  (  8.989414  -2.591474   0.619888)
  39:      1485.63   11.650366  (  3.116542  -1.349605   0.340732)
  40:      1489.38   28.791897  (  5.058293   1.740166  -0.421184)
  41:      1501.40   22.422442  (  1.329840  -2.949817   3.457246)
  42:      1505.00   17.785781  (  0.415646  -2.008451  -3.684989)
  43:      1637.16   33.218442  (  1.590052  -3.390942  -4.380832)
  44:      1671.24   33.907063  (  3.488361   4.027280  -2.349344)
  45:      3036.87   26.425715  (  0.386455  -5.069556  -0.758925)
  46:      3101.29    2.513995  ( -0.515819  -1.470728   0.291350)
  47:      3120.96   19.079628  (  3.461124   1.584062  -2.142661)
  48:      3152.55    3.040006  ( -1.315026   0.403105   1.071550)
  49:      3163.56    0.915761  ( -0.366801  -0.879904   0.083588)
  50:      3172.04    0.516424  ( -0.168657  -0.556881  -0.421737)
  51:      3173.19    3.960408  (  1.132863  -0.085479   1.633929)
  52:      3245.31    0.798901  (  0.565606  -0.688596   0.069474)
  53:      3257.32    0.493003  (  0.350069   0.608178  -0.023946)
  54:      3326.45   97.790941  (  2.607464   0.070207  -9.538718)
  55:      3474.54  103.477750  (  7.296380  -3.599345  -6.106169)
  56:      3532.03   99.066144  ( -5.673007  -8.099109   1.134708)

--------------------------
THERMOCHEMISTRY AT 298.15K
--------------------------

Temperature         ... 298.15 K
Pressure            ... 1.00 atm
Total Mass          ... 102.16 AMU

Throughout the following assumptions are being made:
  (1) The electronic state is orbitally nondegenerate
  (2) There are no thermally accessible electronically excited states
  (3) Hindered rotations indicated by low frequency modes) are not
      treated as such but are treated as vibrations and this may
      case some error
  (4) All equations used are the standard statistical mechanics
      equations for an ideal gas
  (5) All vibrations are strinctly harmonic

------------
INNER ENERGY
------------

The inner energy is: U= E(el) + E(ZPE) + E(vib) + E(rot) + E(trans)
    E(el)   - is the total energy from the electronic structure calculation
              = E(kin-el) + E(nuc-el) + E(el-el) + E(nuc-nuc)
    E(ZPE)  - the the zero temperature vibrational energy from the frequency calculation
    E(vib)  - the the finite temperature correction to E(ZPE) due to population
              of excietd vibrational states
    E(rot)  - is the rotational thermal energy
    E(trans)- is the translational thermal energy

Summary of contributions to the inner energy U:
Electronic energy                ...   -327.19067160 Eh
Zero point energy                ...      0.17500338 Eh     109.82 kcal/mol
Thermal vibrational correction   ...      0.00543741 Eh       3.41 kcal/mol
Thermal rotational correction    ...      0.00141627 Eh       0.89 kcal/mol
Thermal translational correction ...      0.00141627 Eh       0.89 kcal/mol
-----------------------------------------------------------------------
Total thermal energy                   -327.00739827 Eh

Summary of corrections to the electronic energy:
(perhaps to be used in another calculation)
Total thermal correction                  0.00826995 Eh       5.19 kcal/mol
Non-thermal (ZPE) correction              0.17500338 Eh     109.82 kcal/mol
-----------------------------------------------------------------------
Total correction                          0.18327333 Eh     115.01 kcal/mol

--------
ENTHALPY
--------

The enthalpy is H = U + kB*T
                kB is Boltzmann's constant
Total free energy                 ...   -327.00739827 Eh
Thermal Enthalpy correction       ...      0.00094421 Eh       0.59 kcal/mol
-----------------------------------------------------------------------
Total Enthalpy                    ...   -327.00645406 Eh

-------
ENTROPY
-------

The entropy contributions are T*S = T*(S(el)+S(vib)+S(rot)+S(trans)
     S(el)   - electronic entropy
     S(vib)  - vibrational entropy
     S(rot)  - rotational entropy
     S(trans)- translational entropy
The entropies will be listed as mutliplied by the temperature to get
units of energy

Electronic entropy                ...      0.00000000 Eh      0.00 kcal/mol
Vibrational entropy               ...      0.00951897 Eh      5.97 kcal/mol
Rotational entropy                ...      0.01205154 Eh      7.56 kcal/mol
Translational entropy             ...      0.01890147 Eh     11.86 kcal/mol
-----------------------------------------------------------------------
Final entropy term                ...      0.04047197 Eh     25.40 kcal/mol

CAUTION: The rotational entropy is not quite correctly treated here
         because it includes a symmetry number that is not yet correctly
         implemented in ORCA!
For a nonlinear molecule the correct rotational entropy is:
    S(rot) = R*(ln(qrot/sn)+1.5)
    R    = 8.31441 J/mol/K = 1.987191683e-3 kcal/mol/K
    qrot = 233894.2696354
    sn is the rotational symmetry number. We have assumed 3 here
       if it is different for your molecule then you should correct
       the printed rotational entropy by manually evaluating the equation
       as given above

For convenience we print out the resulting values for sn=1 - 12:
 sn= 1  qrot/sn=  233894.2696 T*S(rot)=     8.21 kcal/mol T*S(tot)=    26.05 kcal/mol
 sn= 2  qrot/sn=  116947.1348 T*S(rot)=     7.80 kcal/mol T*S(tot)=    25.64 kcal/mol
 sn= 3  qrot/sn=   77964.7565 T*S(rot)=     7.56 kcal/mol T*S(tot)=    25.40 kcal/mol
 sn= 4  qrot/sn=   58473.5674 T*S(rot)=     7.39 kcal/mol T*S(tot)=    25.23 kcal/mol
 sn= 5  qrot/sn=   46778.8539 T*S(rot)=     7.26 kcal/mol T*S(tot)=    25.09 kcal/mol
 sn= 6  qrot/sn=   38982.3783 T*S(rot)=     7.15 kcal/mol T*S(tot)=    24.99 kcal/mol
 sn= 7  qrot/sn=   33413.4671 T*S(rot)=     7.06 kcal/mol T*S(tot)=    24.89 kcal/mol
 sn= 8  qrot/sn=   29236.7837 T*S(rot)=     6.98 kcal/mol T*S(tot)=    24.82 kcal/mol
 sn= 9  qrot/sn=   25988.2522 T*S(rot)=     6.91 kcal/mol T*S(tot)=    24.75 kcal/mol
 sn=10  qrot/sn=   23389.4270 T*S(rot)=     6.85 kcal/mol T*S(tot)=    24.68 kcal/mol
 sn=11  qrot/sn=   21263.1154 T*S(rot)=     6.79 kcal/mol T*S(tot)=    24.63 kcal/mol
 sn=12  qrot/sn=   19491.1891 T*S(rot)=     6.74 kcal/mol T*S(tot)=    24.58 kcal/mol

-------------------
GIBBS FREE ENTHALPY
-------------------

The Gibbs free enthalpy is G = H - T*S

Total enthalpy                    ...   -327.00645406 Eh
Total entropy correction          ...     -0.04047197 Eh    -25.40 kcal/mol
-----------------------------------------------------------------------
Final Gibbs free enthalpy         ...   -327.04692604 Eh

For completeness - the Gibbs free enthalpy minus the electronic energy
G-E(el)                           ...      0.14374556 Eh     90.20 kcal/mol

                             ****ORCA TERMINATED NORMALLY****
TOTAL RUN TIME: 0 days 0 hours 56 minutes 12 seconds 123 msec
