                         Program Version 3.0.3 - RELEASE   -
|  1> ! NORI PBE0 def2-TZVP UseSym TightOPT Freq TightSCF Grid3 FinalGrid5 XYZFile
|  2> % pal
|  3>     nprocs 8
|  4> end
|  5> %method
|  6>     SymThresh 5.0e-2
|  7> end
|  8> % geom
|  9>     MaxIter 10
| 10> end
| 11> % maxcore 2000
| 12> % output
| 13>     printlevel mini
| 14>     print[ P_Basis ] 0
| 15>     print[ P_SCFInfo ] 1
| 16>     print[ P_SCFIterInfo ] 1
| 17>     print[ P_OrbEn ] 0
| 18>     print[ P_Cartesian ] 0
| 19> end
| 20> % elprop
| 21>     Dipole false
| 22> end
| 23> *xyz 1 1
| 24>  C        2.2087875772     0.5290772249    -1.0539356150
| 25>  O        1.9272028193    -0.3955323231    -0.0129015305
| 26>  C        3.0567173300    -0.9247604799     0.5876980611
| 27>  C        2.6075692031    -1.8667104773     1.7058053617
| 28>  N        2.7012430866    -3.0308331916     0.7415968080
| 29>  C        3.1729204516    -4.3426143835     1.2152085164
| 30>  C        3.5930640156    -2.1797846335    -0.1385370459
| 31>  H        1.2500100535     0.8833992521    -1.4245585859
| 32>  H        2.7583847709     0.0566906337    -1.8758783070
| 33>  H        2.7869415260     1.3757784328    -0.6708908099
| 34>  H        3.7986217304    -0.1646184082     0.8468357421
| 35>  H        1.6099457358    -1.7149249724     2.1124305271
| 36>  H        3.3452733077    -2.0060181822     2.4947428312
| 37>  H        1.7978791689    -3.1357940036     0.2793118717
| 38>  H        4.1337495929    -4.2126350835     1.7108905255
| 39>  H        3.2832152515    -5.0119634160     0.3623242072
| 40>  H        2.4461167488    -4.7518501031     1.9167049727
| 41>  H        4.6319031940    -2.4181295809     0.0883769362
| 42>  H        3.3868944363    -2.2933463048    -1.2013344666
| 43> *
| 44>
| 45>                          ****END OF INPUT****
 Total Charge           Charge          ....    1
 Multiplicity           Mult            ....    1
 Number of Electrons    NEL             ....   56
FINAL SINGLE POINT ENERGY      -327.187977408218

CARTESIAN COORDINATES (ANGSTROEM)
---------------------------------
  C     -0.750196   -0.806015    2.527520
  O      0.000059    0.000052    1.630512
  C     -0.680504    0.331121    0.471401
  C      0.225295    1.224655   -0.377144
  N      0.702016   -0.000090   -1.129959
  C      0.980253    0.085352   -2.573132
  C     -0.529914   -0.732805   -0.639851
  H     -0.119268   -0.976541    3.396777
  H     -1.012293   -1.771508    2.080123
  H     -1.664495   -0.289658    2.836411
  H     -1.695984    0.689873    0.659895
  H      1.021037    1.758171    0.138568
  H     -0.309844    1.873199   -1.068876
  H      1.515950   -0.376619   -0.643612
  H      0.105030    0.493950   -3.075879
  H      1.195644   -0.912005   -2.955389
  H      1.838330    0.737459   -2.733662
  H     -1.293967   -0.681109   -1.414801
  H     -0.333494   -1.763132   -0.349904

FINAL SINGLE POINT ENERGY      -327.187978169968
                    ***********************HURRAY********************
 Multiplicity           Mult            ....    1
 Number of Electrons    NEL             ....   56
 Basis Dimension        Dim             ....  289
FINAL SINGLE POINT ENERGY      -327.187978364120

VIBRATIONAL FREQUENCIES
-----------------------

   0:         0.00 cm**-1
   1:         0.00 cm**-1
   2:         0.00 cm**-1
   3:         0.00 cm**-1
   4:         0.00 cm**-1
   5:         0.00 cm**-1
   6:        74.63 cm**-1
   7:       116.28 cm**-1
   8:       176.73 cm**-1
   9:       227.88 cm**-1
  10:       257.81 cm**-1
  11:       319.72 cm**-1
  12:       340.72 cm**-1
  13:       454.00 cm**-1
  14:       466.54 cm**-1
  15:       690.41 cm**-1
  16:       825.90 cm**-1
  17:       860.81 cm**-1
  18:       916.88 cm**-1
  19:       918.47 cm**-1
  20:       980.29 cm**-1
  21:      1004.20 cm**-1
  22:      1056.23 cm**-1
  23:      1094.61 cm**-1
  24:      1110.65 cm**-1
  25:      1157.37 cm**-1
  26:      1171.74 cm**-1
  27:      1179.50 cm**-1
  28:      1188.16 cm**-1
  29:      1251.89 cm**-1
  30:      1272.83 cm**-1
  31:      1296.22 cm**-1
  32:      1299.18 cm**-1
  33:      1332.61 cm**-1
  34:      1349.56 cm**-1
  35:      1395.63 cm**-1
  36:      1433.85 cm**-1
  37:      1452.99 cm**-1
  38:      1462.21 cm**-1
  39:      1476.70 cm**-1
  40:      1487.98 cm**-1
  41:      1488.18 cm**-1
  42:      1489.61 cm**-1
  43:      1495.29 cm**-1
  44:      1497.07 cm**-1
  45:      3026.15 cm**-1
  46:      3081.64 cm**-1
  47:      3088.53 cm**-1
  48:      3097.25 cm**-1
  49:      3114.64 cm**-1
  50:      3121.90 cm**-1
  51:      3176.75 cm**-1
  52:      3179.05 cm**-1
  53:      3182.95 cm**-1
  54:      3192.29 cm**-1
  55:      3199.51 cm**-1
  56:      3481.69 cm**-1

IR SPECTRUM
-----------

 Mode    freq (cm**-1)   T**2         TX         TY         TZ
-------------------------------------------------------------------
   6:        74.63    2.475940  ( -0.736505  -0.321223   1.352891)
   7:       116.28    4.938596  (  1.011561  -1.555820  -1.222606)
   8:       176.73    0.332816  (  0.313053  -0.295700  -0.383895)
   9:       227.88    0.107380  ( -0.302272   0.126061   0.010979)
  10:       257.81    5.979046  ( -1.442214   1.974601  -0.003929)
  11:       319.72    1.758068  ( -1.260087  -0.248828  -0.329142)
  12:       340.72    6.997418  (  0.283795  -0.985829  -2.438241)
  13:       454.00    1.360062  (  0.207264   0.674668   0.928400)
  14:       466.54    1.945329  (  0.459533   1.232716   0.463217)
  15:       690.41    2.650806  (  0.645646  -0.804687   1.259534)
  16:       825.90    1.105615  ( -0.056766   1.049512  -0.030285)
  17:       860.81    8.119301  ( -2.750638  -0.706926  -0.231398)
  18:       916.88    6.384473  ( -0.398758   1.903076   1.613619)
  19:       918.47   11.289966  (  1.962562   2.676564  -0.523756)
  20:       980.29   17.256071  (  2.239382   3.359059   0.978757)
  21:      1004.20    6.011942  ( -1.634328   0.924751   1.576626)
  22:      1056.23    4.400904  (  0.043446   1.872576   0.944710)
  23:      1094.61   20.614321  (  2.486326   2.616674  -2.754183)
  24:      1110.65    9.573076  (  1.662611   1.968377  -1.712978)
  25:      1157.37   73.529289  (  3.232896   2.147572  -7.646281)
  26:      1171.74   17.345014  ( -0.304312   2.642011  -3.205025)
  27:      1179.50   28.825137  ( -1.983696  -0.965058   4.894768)
  28:      1188.16   10.510271  (  0.073349   2.558287  -1.989989)
  29:      1251.89   54.060444  (  1.598578  -2.480599   6.734361)
  30:      1272.83    2.158793  (  0.281993   0.798393  -1.200767)
  31:      1296.22   15.038047  (  1.397218  -1.610295   3.239256)
  32:      1299.18    5.001358  (  0.534497   0.547708   2.101353)
  33:      1332.61    2.672395  (  1.329782  -0.907351   0.284233)
  34:      1349.56   16.561145  ( -1.471146  -3.783349  -0.288349)
  35:      1395.63   35.542618  (  1.413182   0.652046  -5.755030)
  36:      1433.85   28.480452  ( -1.939578  -0.274823   4.964168)
  37:      1452.99    0.472365  ( -0.633308   0.175762  -0.200981)
  38:      1462.21   14.340525  (  1.156360   3.571932   0.494631)
  39:      1476.70    7.604009  ( -0.094426  -0.586987   2.692683)
  40:      1487.98   28.313183  ( -0.162069   5.141576   1.360557)
  41:      1488.18    6.819694  (  2.428074   0.704369  -0.654229)
  42:      1489.61   32.301385  ( -2.489114   0.071642   5.108871)
  43:      1495.29   17.594044  (  3.572152  -1.916541   1.077332)
  44:      1497.07   13.747259  ( -3.124094   0.039802  -1.996424)
  45:      3026.15   27.035827  ( -3.198526  -3.685553   1.794981)
  46:      3081.64    0.124477  (  0.056153  -0.038922   0.346134)
  47:      3088.53   16.652142  ( -3.156281   2.567956   0.309251)
  48:      3097.25   17.483641  (  1.051388  -3.134284  -2.560174)
  49:      3114.64    0.316964  ( -0.417457  -0.334706  -0.175117)
  50:      3121.90    0.596168  (  0.608580  -0.133619   0.456009)
  51:      3176.75    3.320640  (  1.083645  -0.288511   1.436354)
  52:      3179.05    0.147001  ( -0.116994  -0.348136  -0.110067)
  53:      3182.95    0.090928  ( -0.277615   0.078543   0.087684)
  54:      3192.29    0.437670  ( -0.429157  -0.372298   0.338951)
  55:      3199.51    0.336727  (  0.497012  -0.190803   0.230869)
  56:      3481.69   67.074802  (  7.049195  -3.007147   2.888029)

--------------------------
THERMOCHEMISTRY AT 298.15K
--------------------------

Temperature         ... 298.15 K
Pressure            ... 1.00 atm
Total Mass          ... 102.16 AMU

Throughout the following assumptions are being made:
  (1) The electronic state is orbitally nondegenerate
  (2) There are no thermally accessible electronically excited states
  (3) Hindered rotations indicated by low frequency modes) are not
      treated as such but are treated as vibrations and this may
      case some error
  (4) All equations used are the standard statistical mechanics
      equations for an ideal gas
  (5) All vibrations are strinctly harmonic

------------
INNER ENERGY
------------

The inner energy is: U= E(el) + E(ZPE) + E(vib) + E(rot) + E(trans)
    E(el)   - is the total energy from the electronic structure calculation
              = E(kin-el) + E(nuc-el) + E(el-el) + E(nuc-nuc)
    E(ZPE)  - the the zero temperature vibrational energy from the frequency calculation
    E(vib)  - the the finite temperature correction to E(ZPE) due to population
              of excietd vibrational states
    E(rot)  - is the rotational thermal energy
    E(trans)- is the translational thermal energy

Summary of contributions to the inner energy U:
Electronic energy                ...   -327.18797836 Eh
Zero point energy                ...      0.17545008 Eh     110.10 kcal/mol
Thermal vibrational correction   ...      0.00506388 Eh       3.18 kcal/mol
Thermal rotational correction    ...      0.00141627 Eh       0.89 kcal/mol
Thermal translational correction ...      0.00141627 Eh       0.89 kcal/mol
-----------------------------------------------------------------------
Total thermal energy                   -327.00463187 Eh

Summary of corrections to the electronic energy:
(perhaps to be used in another calculation)
Total thermal correction                  0.00789642 Eh       4.96 kcal/mol
Non-thermal (ZPE) correction              0.17545008 Eh     110.10 kcal/mol
-----------------------------------------------------------------------
Total correction                          0.18334650 Eh     115.05 kcal/mol

--------
ENTHALPY
--------

The enthalpy is H = U + kB*T
                kB is Boltzmann's constant
Total free energy                 ...   -327.00463187 Eh
Thermal Enthalpy correction       ...      0.00094421 Eh       0.59 kcal/mol
-----------------------------------------------------------------------
Total Enthalpy                    ...   -327.00368766 Eh

-------
ENTROPY
-------

The entropy contributions are T*S = T*(S(el)+S(vib)+S(rot)+S(trans)
     S(el)   - electronic entropy
     S(vib)  - vibrational entropy
     S(rot)  - rotational entropy
     S(trans)- translational entropy
The entropies will be listed as mutliplied by the temperature to get
units of energy

Electronic entropy                ...      0.00000000 Eh      0.00 kcal/mol
Vibrational entropy               ...      0.00901812 Eh      5.66 kcal/mol
Rotational entropy                ...      0.01200640 Eh      7.53 kcal/mol
Translational entropy             ...      0.01890147 Eh     11.86 kcal/mol
-----------------------------------------------------------------------
Final entropy term                ...      0.03992599 Eh     25.05 kcal/mol

CAUTION: The rotational entropy is not quite correctly treated here
         because it includes a symmetry number that is not yet correctly
         implemented in ORCA!
For a nonlinear molecule the correct rotational entropy is:
    S(rot) = R*(ln(qrot/sn)+1.5)
    R    = 8.31441 J/mol/K = 1.987191683e-3 kcal/mol/K
    qrot = 222976.0699016
    sn is the rotational symmetry number. We have assumed 3 here
       if it is different for your molecule then you should correct
       the printed rotational entropy by manually evaluating the equation
       as given above

For convenience we print out the resulting values for sn=1 - 12:
 sn= 1  qrot/sn=  222976.0699 T*S(rot)=     8.19 kcal/mol T*S(tot)=    25.70 kcal/mol
 sn= 2  qrot/sn=  111488.0350 T*S(rot)=     7.77 kcal/mol T*S(tot)=    25.29 kcal/mol
 sn= 3  qrot/sn=   74325.3566 T*S(rot)=     7.53 kcal/mol T*S(tot)=    25.05 kcal/mol
 sn= 4  qrot/sn=   55744.0175 T*S(rot)=     7.36 kcal/mol T*S(tot)=    24.88 kcal/mol
 sn= 5  qrot/sn=   44595.2140 T*S(rot)=     7.23 kcal/mol T*S(tot)=    24.75 kcal/mol
 sn= 6  qrot/sn=   37162.6783 T*S(rot)=     7.12 kcal/mol T*S(tot)=    24.64 kcal/mol
 sn= 7  qrot/sn=   31853.7243 T*S(rot)=     7.03 kcal/mol T*S(tot)=    24.55 kcal/mol
 sn= 8  qrot/sn=   27872.0087 T*S(rot)=     6.95 kcal/mol T*S(tot)=    24.47 kcal/mol
 sn= 9  qrot/sn=   24775.1189 T*S(rot)=     6.88 kcal/mol T*S(tot)=    24.40 kcal/mol
 sn=10  qrot/sn=   22297.6070 T*S(rot)=     6.82 kcal/mol T*S(tot)=    24.34 kcal/mol
 sn=11  qrot/sn=   20270.5518 T*S(rot)=     6.76 kcal/mol T*S(tot)=    24.28 kcal/mol
 sn=12  qrot/sn=   18581.3392 T*S(rot)=     6.71 kcal/mol T*S(tot)=    24.23 kcal/mol

-------------------
GIBBS FREE ENTHALPY
-------------------

The Gibbs free enthalpy is G = H - T*S

Total enthalpy                    ...   -327.00368766 Eh
Total entropy correction          ...     -0.03992599 Eh    -25.05 kcal/mol
-----------------------------------------------------------------------
Final Gibbs free enthalpy         ...   -327.04361365 Eh

For completeness - the Gibbs free enthalpy minus the electronic energy
G-E(el)                           ...      0.14436472 Eh     90.59 kcal/mol

                             ****ORCA TERMINATED NORMALLY****
TOTAL RUN TIME: 0 days 0 hours 50 minutes 14 seconds 68 msec
