                         Program Version 3.0.3 - RELEASE   -
|  1> ! NORI PBE0 def2-TZVP UseSym TightOPT Freq TightSCF Grid3 FinalGrid5 XYZFile
|  2> % pal
|  3>     nprocs 8
|  4> end
|  5> %method
|  6>     SymThresh 5.0e-2
|  7> end
|  8> % geom
|  9>     MaxIter 10
| 10> end
| 11> % maxcore 2000
| 12> % output
| 13>     printlevel mini
| 14>     print[ P_Basis ] 0
| 15>     print[ P_SCFInfo ] 1
| 16>     print[ P_SCFIterInfo ] 1
| 17>     print[ P_OrbEn ] 0
| 18>     print[ P_Cartesian ] 0
| 19> end
| 20> % elprop
| 21>     Dipole false
| 22> end
| 23> *xyz 1 1
| 24>  C        1.3222244394    -0.1995177840    -0.1485376911
| 25>  O        2.7598329350    -0.1652917067    -0.2047411018
| 26>  C        3.3097184412    -0.7261702701    -1.2596917405
| 27>  O        2.7325244273    -1.2566331415    -2.1700468801
| 28>  C        4.8239832907    -0.6291777221    -1.2021166183
| 29>  C        5.3916138624    -1.3008900668    -2.4307297653
| 30>  N        6.8960126381    -1.2313578146    -2.4310240026
| 31>  H        1.0577890091     0.2878777851     0.7853318679
| 32>  H        0.9734136866    -1.2312954305    -0.1601741214
| 33>  H        0.9035804713     0.3379159114    -0.9986435527
| 34>  H        5.1017657168     0.4281148664    -1.1452557079
| 35>  H        5.1676196635    -1.1034898463    -0.2774343403
| 36>  H        5.1207528887    -2.3546885362    -2.4786308104
| 37>  H        5.0496730883    -0.8237205495    -3.3481534736
| 38>  H        7.2906956502    -1.6976857207    -1.6110654604
| 39>  H        7.2233885628    -0.2629090647    -2.4191857387
| 40>  H        7.2871412287    -1.6809109092    -3.2617908628
| 41> *
| 42>
| 43>                          ****END OF INPUT****
 Total Charge           Charge          ....    1
 Multiplicity           Mult            ....    1
 Number of Electrons    NEL             ....   56
FINAL SINGLE POINT ENERGY      -363.139720680137
FINAL SINGLE POINT ENERGY      -363.139721123598

CARTESIAN COORDINATES (ANGSTROEM)
---------------------------------
  C      1.074650    0.005685    2.750409
  O     -0.000038    0.002126    1.793033
  C      0.355354    0.001346    0.526484
  O      1.477854    0.003662    0.098814
  C     -0.861725   -0.003672   -0.381679
  C     -0.385522    0.004473   -1.815598
  N     -1.553278   -0.005201   -2.767502
  H      0.594125    0.018476    3.724078
  H      1.694538    0.890756    2.611512
  H      1.683172   -0.889885    2.629944
  H     -1.461720   -0.890049   -0.151961
  H     -1.475153    0.871671   -0.145607
  H      0.203547    0.892083   -2.042462
  H      0.221487   -0.869929   -2.046161
  H     -2.150689    0.813577   -2.632651
  H     -2.136177   -0.834587   -2.633138
  H     -1.237652   -0.002089   -3.739901

FINAL SINGLE POINT ENERGY      -363.139721769698
                    ***********************HURRAY********************
 Multiplicity           Mult            ....    1
 Number of Electrons    NEL             ....   56
 Basis Dimension        Dim             ....  277
FINAL SINGLE POINT ENERGY      -363.139721993057

VIBRATIONAL FREQUENCIES
-----------------------

   0:         0.00 cm**-1
   1:         0.00 cm**-1
   2:         0.00 cm**-1
   3:         0.00 cm**-1
   4:         0.00 cm**-1
   5:         0.00 cm**-1
   6:        45.33 cm**-1
   7:        76.30 cm**-1
   8:       117.76 cm**-1
   9:       147.17 cm**-1
  10:       184.57 cm**-1
  11:       230.81 cm**-1
  12:       298.74 cm**-1
  13:       340.63 cm**-1
  14:       432.47 cm**-1
  15:       598.55 cm**-1
  16:       712.55 cm**-1
  17:       789.30 cm**-1
  18:       904.37 cm**-1
  19:       919.89 cm**-1
  20:       921.29 cm**-1
  21:      1001.14 cm**-1
  22:      1025.51 cm**-1
  23:      1111.05 cm**-1
  24:      1158.27 cm**-1
  25:      1174.88 cm**-1
  26:      1207.33 cm**-1
  27:      1267.90 cm**-1
  28:      1283.39 cm**-1
  29:      1343.14 cm**-1
  30:      1377.15 cm**-1
  31:      1415.11 cm**-1
  32:      1466.95 cm**-1
  33:      1478.65 cm**-1
  34:      1481.04 cm**-1
  35:      1487.11 cm**-1
  36:      1489.42 cm**-1
  37:      1514.10 cm**-1
  38:      1660.88 cm**-1
  39:      1664.56 cm**-1
  40:      1832.43 cm**-1
  41:      3061.07 cm**-1
  42:      3083.03 cm**-1
  43:      3107.32 cm**-1
  44:      3122.14 cm**-1
  45:      3170.51 cm**-1
  46:      3180.89 cm**-1
  47:      3205.41 cm**-1
  48:      3421.43 cm**-1
  49:      3502.00 cm**-1
  50:      3504.96 cm**-1

IR SPECTRUM
-----------

 Mode    freq (cm**-1)   T**2         TX         TY         TZ
-------------------------------------------------------------------
   6:        45.33    0.276626  ( -0.004539  -0.525932  -0.000537)
   7:        76.30    9.227637  (  0.021025  -3.037629   0.001893)
   8:       117.76    0.372269  ( -0.047903  -0.606486   0.046358)
   9:       147.17   13.828840  (  3.539976   0.015035  -1.138940)
  10:       184.57    5.767071  (  0.020979  -2.401319  -0.017203)
  11:       230.81    0.074077  ( -0.000679  -0.272167   0.001248)
  12:       298.74   11.381106  ( -0.359921  -0.003511  -3.354333)
  13:       340.63   34.772276  ( -1.571398   0.001772  -5.683571)
  14:       432.47    3.303150  ( -1.055727  -0.002562  -1.479386)
  15:       598.55    1.745150  ( -0.002600  -1.321032   0.004283)
  16:       712.55    3.605937  (  1.890182   0.012636  -0.181634)
  17:       789.30   16.107490  ( -0.035257   4.013257   0.003535)
  18:       904.37   10.743881  (  2.533747   0.002486  -2.079424)
  19:       919.89   30.958901  (  2.377830  -0.025934   5.030323)
  20:       921.29    2.552897  ( -0.046821  -1.592843  -0.116435)
  21:      1001.14   34.899441  (  4.711627   0.026996   3.563606)
  22:      1025.51   13.518471  (  1.569095  -0.004015   3.325116)
  23:      1111.05    6.776317  ( -0.010910   2.602866  -0.035905)
  24:      1158.27    5.445864  ( -1.434578  -0.019604   1.840506)
  25:      1174.88    1.032501  (  0.006819   1.012018   0.090963)
  26:      1207.33   11.591035  (  1.854332   0.011062   2.855235)
  27:      1267.90  189.009192  (  1.888590   0.012971  13.617718)
  28:      1283.39    0.637065  ( -0.019043   0.794291  -0.076187)
  29:      1343.14    5.404343  (  0.051596  -2.321767   0.105255)
  30:      1377.15  208.274634  ( -4.892104  -0.044524 -13.577186)
  31:      1415.11   64.733267  ( -4.475021  -0.012067  -6.686353)
  32:      1466.95    7.808217  ( -2.643055  -0.031804   0.906347)
  33:      1478.65   70.916668  ( -4.077801  -0.412127  -7.356518)
  34:      1481.04   15.031018  ( -0.415777   3.787272  -0.717441)
  35:      1487.11    5.498406  (  1.484808   0.048581  -1.814220)
  36:      1489.42   15.825580  ( -3.281870  -0.027496   2.248144)
  37:      1514.10  124.380298  (  8.991883   0.076145   6.597009)
  38:      1660.88   52.047317  ( -0.079293   7.213825   0.041950)
  39:      1664.56   39.770862  (  3.664127   0.081245  -5.132098)
  40:      1832.43  263.560309  ( 12.102168   0.022894 -10.821151)
  41:      3061.07    0.688183  (  0.811902   0.019056  -0.169217)
  42:      3083.03   11.269587  ( -2.030860   0.010675  -2.673029)
  43:      3107.32    0.371685  ( -0.015816   0.609450   0.002198)
  44:      3122.14    0.638861  ( -0.523591   0.004401  -0.603899)
  45:      3170.51    5.884542  (  0.005291  -2.425801  -0.001738)
  46:      3180.89    0.371207  ( -0.023283   0.608813  -0.003393)
  47:      3205.41    2.467657  (  0.628550  -0.007928  -1.439625)
  48:      3421.43   50.578648  (  4.744198   0.044387   5.298044)
  49:      3502.00   95.512530  (  0.038471   9.771372  -0.177051)
  50:      3504.96  104.236256  (  6.238576  -0.152194  -8.080425)

--------------------------
THERMOCHEMISTRY AT 298.15K
--------------------------

Temperature         ... 298.15 K
Pressure            ... 1.00 atm
Total Mass          ... 104.13 AMU

Throughout the following assumptions are being made:
  (1) The electronic state is orbitally nondegenerate
  (2) There are no thermally accessible electronically excited states
  (3) Hindered rotations indicated by low frequency modes) are not
      treated as such but are treated as vibrations and this may
      case some error
  (4) All equations used are the standard statistical mechanics
      equations for an ideal gas
  (5) All vibrations are strinctly harmonic

------------
INNER ENERGY
------------

The inner energy is: U= E(el) + E(ZPE) + E(vib) + E(rot) + E(trans)
    E(el)   - is the total energy from the electronic structure calculation
              = E(kin-el) + E(nuc-el) + E(el-el) + E(nuc-nuc)
    E(ZPE)  - the the zero temperature vibrational energy from the frequency calculation
    E(vib)  - the the finite temperature correction to E(ZPE) due to population
              of excietd vibrational states
    E(rot)  - is the rotational thermal energy
    E(trans)- is the translational thermal energy

Summary of contributions to the inner energy U:
Electronic energy                ...   -363.13972199 Eh
Zero point energy                ...      0.15154024 Eh      95.09 kcal/mol
Thermal vibrational correction   ...      0.00588560 Eh       3.69 kcal/mol
Thermal rotational correction    ...      0.00141627 Eh       0.89 kcal/mol
Thermal translational correction ...      0.00141627 Eh       0.89 kcal/mol
-----------------------------------------------------------------------
Total thermal energy                   -362.97946361 Eh

Summary of corrections to the electronic energy:
(perhaps to be used in another calculation)
Total thermal correction                  0.00871815 Eh       5.47 kcal/mol
Non-thermal (ZPE) correction              0.15154024 Eh      95.09 kcal/mol
-----------------------------------------------------------------------
Total correction                          0.16025838 Eh     100.56 kcal/mol

--------
ENTHALPY
--------

The enthalpy is H = U + kB*T
                kB is Boltzmann's constant
Total free energy                 ...   -362.97946361 Eh
Thermal Enthalpy correction       ...      0.00094421 Eh       0.59 kcal/mol
-----------------------------------------------------------------------
Total Enthalpy                    ...   -362.97851940 Eh

-------
ENTROPY
-------

The entropy contributions are T*S = T*(S(el)+S(vib)+S(rot)+S(trans)
     S(el)   - electronic entropy
     S(vib)  - vibrational entropy
     S(rot)  - rotational entropy
     S(trans)- translational entropy
The entropies will be listed as mutliplied by the temperature to get
units of energy

Electronic entropy                ...      0.00000000 Eh      0.00 kcal/mol
Vibrational entropy               ...      0.01160053 Eh      7.28 kcal/mol
Rotational entropy                ...      0.01216647 Eh      7.63 kcal/mol
Translational entropy             ...      0.01892854 Eh     11.88 kcal/mol
-----------------------------------------------------------------------
Final entropy term                ...      0.04269555 Eh     26.79 kcal/mol

CAUTION: The rotational entropy is not quite correctly treated here
         because it includes a symmetry number that is not yet correctly
         implemented in ORCA!
For a nonlinear molecule the correct rotational entropy is:
    S(rot) = R*(ln(qrot/sn)+1.5)
    R    = 8.31441 J/mol/K = 1.987191683e-3 kcal/mol/K
    qrot = 264171.9775075
    sn is the rotational symmetry number. We have assumed 3 here
       if it is different for your molecule then you should correct
       the printed rotational entropy by manually evaluating the equation
       as given above

For convenience we print out the resulting values for sn=1 - 12:
 sn= 1  qrot/sn=  264171.9775 T*S(rot)=     8.29 kcal/mol T*S(tot)=    27.44 kcal/mol
 sn= 2  qrot/sn=  132085.9888 T*S(rot)=     7.87 kcal/mol T*S(tot)=    27.03 kcal/mol
 sn= 3  qrot/sn=   88057.3258 T*S(rot)=     7.63 kcal/mol T*S(tot)=    26.79 kcal/mol
 sn= 4  qrot/sn=   66042.9944 T*S(rot)=     7.46 kcal/mol T*S(tot)=    26.62 kcal/mol
 sn= 5  qrot/sn=   52834.3955 T*S(rot)=     7.33 kcal/mol T*S(tot)=    26.49 kcal/mol
 sn= 6  qrot/sn=   44028.6629 T*S(rot)=     7.22 kcal/mol T*S(tot)=    26.38 kcal/mol
 sn= 7  qrot/sn=   37738.8539 T*S(rot)=     7.13 kcal/mol T*S(tot)=    26.29 kcal/mol
 sn= 8  qrot/sn=   33021.4972 T*S(rot)=     7.05 kcal/mol T*S(tot)=    26.21 kcal/mol
 sn= 9  qrot/sn=   29352.4419 T*S(rot)=     6.98 kcal/mol T*S(tot)=    26.14 kcal/mol
 sn=10  qrot/sn=   26417.1978 T*S(rot)=     6.92 kcal/mol T*S(tot)=    26.08 kcal/mol
 sn=11  qrot/sn=   24015.6343 T*S(rot)=     6.86 kcal/mol T*S(tot)=    26.02 kcal/mol
 sn=12  qrot/sn=   22014.3315 T*S(rot)=     6.81 kcal/mol T*S(tot)=    25.97 kcal/mol

-------------------
GIBBS FREE ENTHALPY
-------------------

The Gibbs free enthalpy is G = H - T*S

Total enthalpy                    ...   -362.97851940 Eh
Total entropy correction          ...     -0.04269555 Eh    -26.79 kcal/mol
-----------------------------------------------------------------------
Final Gibbs free enthalpy         ...   -363.02121495 Eh

For completeness - the Gibbs free enthalpy minus the electronic energy
G-E(el)                           ...      0.11850705 Eh     74.36 kcal/mol

                             ****ORCA TERMINATED NORMALLY****
TOTAL RUN TIME: 0 days 0 hours 33 minutes 2 seconds 967 msec
