                         Program Version 3.0.3 - RELEASE   -
|  1> ! NORI PBE0 def2-TZVP UseSym TightOPT Freq TightSCF Grid3 FinalGrid5 XYZFile
|  2> % pal
|  3>     nprocs 8
|  4> end
|  5> %method
|  6>     SymThresh 5.0e-2
|  7> end
|  8> % geom
|  9>     MaxIter 10
| 10> end
| 11> % maxcore 2000
| 12> % output
| 13>     printlevel mini
| 14>     print[ P_Basis ] 0
| 15>     print[ P_SCFInfo ] 1
| 16>     print[ P_SCFIterInfo ] 1
| 17>     print[ P_OrbEn ] 0
| 18>     print[ P_Cartesian ] 0
| 19> end
| 20> % elprop
| 21>     Dipole false
| 22> end
| 23> *xyz 1 1
| 24>  C        1.2647131143     0.1421704624    -0.6136028650
| 25>  O        2.7046843842     0.1022500109    -0.4689183358
| 26>  C        3.3015171712    -0.9881604495    -0.8395938618
| 27>  O        2.7919849511    -1.9863454237    -1.2952179177
| 28>  C        4.8183635469    -0.9194431433    -0.6449762246
| 29>  C        5.2361900303    -0.7225072070     0.7974463339
| 30>  N        5.2975580894    -2.2365043622    -1.1903112713
| 31>  H        0.9704536452     1.1231362375    -0.2546180323
| 32>  H        0.8159233680    -0.6468910171    -0.0126977393
| 33>  H        1.0005165086     0.0125433246    -1.6617421986
| 34>  H        5.2190227880    -0.1252839260    -1.2774436659
| 35>  H        4.8415888408    -1.5150407936     1.4386742134
| 36>  H        4.8426752440     0.2275582029     1.1567353838
| 37>  H        6.3236310326    -0.6916492720     0.8887369389
| 38>  H        4.4089187220    -2.7249191428    -1.4609421768
| 39>  H        5.7939262725    -2.7865651136    -0.4892973141
| 40>  H        5.8962022910    -2.1395183876    -2.0092012667
| 41> *
| 42>
| 43>                          ****END OF INPUT****
 Total Charge           Charge          ....    1
 Multiplicity           Mult            ....    1
 Number of Electrons    NEL             ....   56
FINAL SINGLE POINT ENERGY      -363.148339921811

CARTESIAN COORDINATES (ANGSTROEM)
---------------------------------
  C      1.058574    0.256732    2.376265
  O     -0.000409   -0.000060    1.422881
  C      0.344272   -0.099920    0.176276
  O      1.456812   -0.001304   -0.288625
  C     -0.851118   -0.371645   -0.740645
  C     -1.896532    0.723965   -0.713964
  N     -0.221720   -0.510123   -2.099506
  H      0.566171    0.301320    3.342404
  H      1.542245    1.202519    2.137829
  H      1.783441   -0.554964    2.342430
  H     -1.290066   -1.334027   -0.471212
  H     -1.466810    1.691561   -0.986039
  H     -2.300814    0.807328    0.294212
  H     -2.722594    0.492547   -1.388868
  H      0.795460   -0.328591   -1.915718
  H     -0.580380    0.176684   -2.762568
  H     -0.334691   -1.438997   -2.502810

FINAL SINGLE POINT ENERGY      -363.148340457764
                    ***********************HURRAY********************
 Multiplicity           Mult            ....    1
 Number of Electrons    NEL             ....   56
 Basis Dimension        Dim             ....  277
FINAL SINGLE POINT ENERGY      -363.148340984239

VIBRATIONAL FREQUENCIES
-----------------------

   0:         0.00 cm**-1
   1:         0.00 cm**-1
   2:         0.00 cm**-1
   3:         0.00 cm**-1
   4:         0.00 cm**-1
   5:         0.00 cm**-1
   6:        44.79 cm**-1
   7:       110.31 cm**-1
   8:       143.56 cm**-1
   9:       205.23 cm**-1
  10:       235.17 cm**-1
  11:       249.46 cm**-1
  12:       295.42 cm**-1
  13:       382.28 cm**-1
  14:       385.79 cm**-1
  15:       486.90 cm**-1
  16:       651.25 cm**-1
  17:       766.91 cm**-1
  18:       856.10 cm**-1
  19:       905.17 cm**-1
  20:       987.96 cm**-1
  21:       998.75 cm**-1
  22:      1010.10 cm**-1
  23:      1108.66 cm**-1
  24:      1127.55 cm**-1
  25:      1173.52 cm**-1
  26:      1206.42 cm**-1
  27:      1218.71 cm**-1
  28:      1305.85 cm**-1
  29:      1357.38 cm**-1
  30:      1388.86 cm**-1
  31:      1421.89 cm**-1
  32:      1453.71 cm**-1
  33:      1479.91 cm**-1
  34:      1481.94 cm**-1
  35:      1482.77 cm**-1
  36:      1488.07 cm**-1
  37:      1500.94 cm**-1
  38:      1637.50 cm**-1
  39:      1660.43 cm**-1
  40:      1814.70 cm**-1
  41:      3059.06 cm**-1
  42:      3063.06 cm**-1
  43:      3088.88 cm**-1
  44:      3115.19 cm**-1
  45:      3145.58 cm**-1
  46:      3168.09 cm**-1
  47:      3182.32 cm**-1
  48:      3216.00 cm**-1
  49:      3483.36 cm**-1
  50:      3545.10 cm**-1

IR SPECTRUM
-----------

 Mode    freq (cm**-1)   T**2         TX         TY         TZ
-------------------------------------------------------------------
   6:        44.79    7.308160  ( -0.013349   2.650915  -0.529746)
   7:       110.31    0.792108  (  0.145695  -0.870156   0.117085)
   8:       143.56    6.242618  (  0.498580  -2.384432   0.555445)
   9:       205.23    7.914375  ( -2.222100  -1.710020   0.229082)
  10:       235.17    0.878894  ( -0.767029  -0.536283  -0.054412)
  11:       249.46    2.883624  (  0.116350   1.683335  -0.190969)
  12:       295.42    8.769307  ( -1.938936   1.679963   1.479039)
  13:       382.28  101.654762  ( -4.211700  -1.283431  -9.070234)
  14:       385.79    2.771021  ( -0.880643   0.098622  -1.409171)
  15:       486.90   17.209770  (  0.583784  -1.173787  -3.935885)
  16:       651.25    2.907200  ( -1.493933  -0.806652   0.157086)
  17:       766.91    6.860007  ( -0.367175  -2.525782  -0.587891)
  18:       856.10    7.377044  (  1.964969   1.636117   0.916002)
  19:       905.17   47.936046  (  5.172908   0.499860   4.574627)
  20:       987.96   23.684426  ( -3.749057   0.883476  -2.974638)
  21:       998.75   13.556016  (  1.241484   2.084318   2.769540)
  22:      1010.10   21.162816  ( -1.726420  -1.249924  -4.076761)
  23:      1108.66   10.524043  ( -3.086919  -0.372432   0.925349)
  24:      1127.55   64.144091  (  4.611783   1.309250   6.415716)
  25:      1173.52    0.925734  ( -0.013358  -0.961978   0.012433)
  26:      1206.42   10.649828  ( -2.409509   0.694925  -2.088343)
  27:      1218.71   11.961943  (  1.440277  -1.481157   2.773755)
  28:      1305.85   96.059558  (  3.716806   1.923822   8.862495)
  29:      1357.38   37.010667  ( -1.885469  -1.910335  -5.459514)
  30:      1388.86  240.393469  ( -0.531082   1.725684  15.399137)
  31:      1421.89   39.182274  (  1.819608  -1.721104   5.736646)
  32:      1453.71  217.973734  (  5.716399  -1.642859 -13.512866)
  33:      1479.91   25.028201  (  1.546818   0.420443   4.739070)
  34:      1481.94   16.296953  ( -0.653898   3.892520  -0.847146)
  35:      1482.77    4.979539  ( -2.140368   0.369568   0.511649)
  36:      1488.07    9.781896  ( -1.692725  -2.415734   1.039619)
  37:      1500.94   51.535743  ( -5.998240  -1.292090  -3.726576)
  38:      1637.50   26.483082  ( -3.534083  -1.063384  -3.586440)
  39:      1660.43   30.803719  (  1.067468  -5.285521   1.314342)
  40:      1814.70  218.430161  (  9.647479  -0.277382 -11.192826)
  41:      3059.06  240.123097  (-12.840864  -2.870327  -8.185141)
  42:      3063.06   48.579297  ( -4.938060  -0.602705  -4.881763)
  43:      3088.88    6.333469  (  1.594675   0.406140   1.904083)
  44:      3115.19    9.393998  ( -2.568529  -0.793445  -1.472108)
  45:      3145.58    0.920525  ( -0.636928  -0.639996  -0.324428)
  46:      3168.09    0.968894  (  0.878587  -0.345527  -0.278550)
  47:      3182.32    2.307101  (  0.201813  -1.493946   0.185734)
  48:      3216.00    0.539692  (  0.072356  -0.039049  -0.730022)
  49:      3483.36  101.164488  (  3.769299   1.627874   9.181879)
  50:      3545.10  104.800160  ( -1.048122  10.183100  -0.077969)

--------------------------
THERMOCHEMISTRY AT 298.15K
--------------------------

Temperature         ... 298.15 K
Pressure            ... 1.00 atm
Total Mass          ... 104.13 AMU

Throughout the following assumptions are being made:
  (1) The electronic state is orbitally nondegenerate
  (2) There are no thermally accessible electronically excited states
  (3) Hindered rotations indicated by low frequency modes) are not
      treated as such but are treated as vibrations and this may
      case some error
  (4) All equations used are the standard statistical mechanics
      equations for an ideal gas
  (5) All vibrations are strinctly harmonic

------------
INNER ENERGY
------------

The inner energy is: U= E(el) + E(ZPE) + E(vib) + E(rot) + E(trans)
    E(el)   - is the total energy from the electronic structure calculation
              = E(kin-el) + E(nuc-el) + E(el-el) + E(nuc-nuc)
    E(ZPE)  - the the zero temperature vibrational energy from the frequency calculation
    E(vib)  - the the finite temperature correction to E(ZPE) due to population
              of excietd vibrational states
    E(rot)  - is the rotational thermal energy
    E(trans)- is the translational thermal energy

Summary of contributions to the inner energy U:
Electronic energy                ...   -363.14834098 Eh
Zero point energy                ...      0.15056546 Eh      94.48 kcal/mol
Thermal vibrational correction   ...      0.00569346 Eh       3.57 kcal/mol
Thermal rotational correction    ...      0.00141627 Eh       0.89 kcal/mol
Thermal translational correction ...      0.00141627 Eh       0.89 kcal/mol
-----------------------------------------------------------------------
Total thermal energy                   -362.98924952 Eh

Summary of corrections to the electronic energy:
(perhaps to be used in another calculation)
Total thermal correction                  0.00852600 Eh       5.35 kcal/mol
Non-thermal (ZPE) correction              0.15056546 Eh      94.48 kcal/mol
-----------------------------------------------------------------------
Total correction                          0.15909146 Eh      99.83 kcal/mol

--------
ENTHALPY
--------

The enthalpy is H = U + kB*T
                kB is Boltzmann's constant
Total free energy                 ...   -362.98924952 Eh
Thermal Enthalpy correction       ...      0.00094421 Eh       0.59 kcal/mol
-----------------------------------------------------------------------
Total Enthalpy                    ...   -362.98830532 Eh

-------
ENTROPY
-------

The entropy contributions are T*S = T*(S(el)+S(vib)+S(rot)+S(trans)
     S(el)   - electronic entropy
     S(vib)  - vibrational entropy
     S(rot)  - rotational entropy
     S(trans)- translational entropy
The entropies will be listed as mutliplied by the temperature to get
units of energy

Electronic entropy                ...      0.00000000 Eh      0.00 kcal/mol
Vibrational entropy               ...      0.01069125 Eh      6.71 kcal/mol
Rotational entropy                ...      0.01210008 Eh      7.59 kcal/mol
Translational entropy             ...      0.01892854 Eh     11.88 kcal/mol
-----------------------------------------------------------------------
Final entropy term                ...      0.04171987 Eh     26.18 kcal/mol

CAUTION: The rotational entropy is not quite correctly treated here
         because it includes a symmetry number that is not yet correctly
         implemented in ORCA!
For a nonlinear molecule the correct rotational entropy is:
    S(rot) = R*(ln(qrot/sn)+1.5)
    R    = 8.31441 J/mol/K = 1.987191683e-3 kcal/mol/K
    qrot = 246234.9707825
    sn is the rotational symmetry number. We have assumed 3 here
       if it is different for your molecule then you should correct
       the printed rotational entropy by manually evaluating the equation
       as given above

For convenience we print out the resulting values for sn=1 - 12:
 sn= 1  qrot/sn=  246234.9708 T*S(rot)=     8.24 kcal/mol T*S(tot)=    26.83 kcal/mol
 sn= 2  qrot/sn=  123117.4854 T*S(rot)=     7.83 kcal/mol T*S(tot)=    26.42 kcal/mol
 sn= 3  qrot/sn=   82078.3236 T*S(rot)=     7.59 kcal/mol T*S(tot)=    26.18 kcal/mol
 sn= 4  qrot/sn=   61558.7427 T*S(rot)=     7.42 kcal/mol T*S(tot)=    26.01 kcal/mol
 sn= 5  qrot/sn=   49246.9942 T*S(rot)=     7.29 kcal/mol T*S(tot)=    25.88 kcal/mol
 sn= 6  qrot/sn=   41039.1618 T*S(rot)=     7.18 kcal/mol T*S(tot)=    25.77 kcal/mol
 sn= 7  qrot/sn=   35176.4244 T*S(rot)=     7.09 kcal/mol T*S(tot)=    25.68 kcal/mol
 sn= 8  qrot/sn=   30779.3713 T*S(rot)=     7.01 kcal/mol T*S(tot)=    25.60 kcal/mol
 sn= 9  qrot/sn=   27359.4412 T*S(rot)=     6.94 kcal/mol T*S(tot)=    25.53 kcal/mol
 sn=10  qrot/sn=   24623.4971 T*S(rot)=     6.88 kcal/mol T*S(tot)=    25.47 kcal/mol
 sn=11  qrot/sn=   22384.9973 T*S(rot)=     6.82 kcal/mol T*S(tot)=    25.41 kcal/mol
 sn=12  qrot/sn=   20519.5809 T*S(rot)=     6.77 kcal/mol T*S(tot)=    25.36 kcal/mol

-------------------
GIBBS FREE ENTHALPY
-------------------

The Gibbs free enthalpy is G = H - T*S

Total enthalpy                    ...   -362.98830532 Eh
Total entropy correction          ...     -0.04171987 Eh    -26.18 kcal/mol
-----------------------------------------------------------------------
Final Gibbs free enthalpy         ...   -363.03002519 Eh

For completeness - the Gibbs free enthalpy minus the electronic energy
G-E(el)                           ...      0.11831579 Eh     74.24 kcal/mol

                             ****ORCA TERMINATED NORMALLY****
TOTAL RUN TIME: 0 days 0 hours 36 minutes 14 seconds 638 msec
