                         Program Version 3.0.3 - RELEASE   -
|  1> ! NORI PBE0 def2-TZVP UseSym TightOPT Freq TightSCF Grid3 FinalGrid5 XYZFile
|  2> % pal
|  3>     nprocs 8
|  4> end
|  5> %method
|  6>     SymThresh 5.0e-2
|  7> end
|  8> % geom
|  9>     MaxIter 10
| 10> end
| 11> % maxcore 2000
| 12> % output
| 13>     printlevel mini
| 14>     print[ P_Basis ] 0
| 15>     print[ P_SCFInfo ] 1
| 16>     print[ P_SCFIterInfo ] 1
| 17>     print[ P_OrbEn ] 0
| 18>     print[ P_Cartesian ] 0
| 19> end
| 20> % elprop
| 21>     Dipole false
| 22> end
| 23> *xyz 1 1
| 24>  C        2.6137572011     1.2518329912     1.7760120271
| 25>  O        2.3278616753     1.1020920860     0.3747094483
| 26>  N        2.9104837559     2.0735971834    -0.3670808781
| 27>  C        4.2802847756     1.9444585705    -0.8843940231
| 28>  C        4.3400568991     3.1306793859    -1.8615563677
| 29>  N        2.9171986110     3.4457823456    -2.0501407977
| 30>  C        2.1910860703     2.8496840191    -1.1383836217
| 31>  H        2.0930119767     0.4209991029     2.2462159036
| 32>  H        2.2239927165     2.2016111984     2.1455302835
| 33>  H        3.6854948656     1.1693765981     1.9649282973
| 34>  H        5.0133938004     2.0201246466    -0.0837436047
| 35>  H        4.3735011543     0.9735406294    -1.3772052758
| 36>  H        4.8493039365     3.9916049571    -1.4231308871
| 37>  H        4.8117715374     2.8799692271    -2.8098472241
| 38>  H        2.5722902131     4.1815939157    -2.6459293769
| 39>  H        1.1193908112     2.9555831431    -1.0244239028
| 40> *
| 41>
| 42>                          ****END OF INPUT****
 Total Charge           Charge          ....    1
 Multiplicity           Mult            ....    1
 Number of Electrons    NEL             ....   54
FINAL SINGLE POINT ENERGY      -342.003590312988

CARTESIAN COORDINATES (ANGSTROEM)
---------------------------------
  C      0.508702   -1.223468    2.205403
  O      0.000678    0.000358    1.646875
  N      0.056665    0.000422    0.293957
  C     -1.031789   -0.542119   -0.531796
  C     -0.617612   -0.047457   -1.928124
  N      0.347456    1.012544   -1.605088
  C      0.709766    0.935396   -0.349403
  H      0.407850   -1.089961    3.279962
  H      1.557539   -1.358975    1.936757
  H     -0.090679   -2.076549    1.882355
  H     -1.075138   -1.627313   -0.464533
  H     -1.975649   -0.114561   -0.184036
  H     -0.120344   -0.830593   -2.504285
  H     -1.450838    0.348380   -2.505849
  H      0.827575    1.572212   -2.291738
  H      1.446823    1.568021    0.128805

FINAL SINGLE POINT ENERGY      -342.003590631206
                    ***********************HURRAY********************
 Multiplicity           Mult            ....    1
 Number of Electrons    NEL             ....   54
 Basis Dimension        Dim             ....  271
FINAL SINGLE POINT ENERGY      -342.003590742030

VIBRATIONAL FREQUENCIES
-----------------------

   0:         0.00 cm**-1
   1:         0.00 cm**-1
   2:         0.00 cm**-1
   3:         0.00 cm**-1
   4:         0.00 cm**-1
   5:         0.00 cm**-1
   6:        85.14 cm**-1
   7:       131.19 cm**-1
   8:       171.66 cm**-1
   9:       187.05 cm**-1
  10:       391.17 cm**-1
  11:       412.11 cm**-1
  12:       458.98 cm**-1
  13:       563.69 cm**-1
  14:       619.80 cm**-1
  15:       777.35 cm**-1
  16:       859.66 cm**-1
  17:       932.43 cm**-1
  18:       961.72 cm**-1
  19:       989.28 cm**-1
  20:      1016.74 cm**-1
  21:      1031.40 cm**-1
  22:      1121.10 cm**-1
  23:      1169.64 cm**-1
  24:      1182.80 cm**-1
  25:      1209.45 cm**-1
  26:      1219.33 cm**-1
  27:      1257.34 cm**-1
  28:      1269.26 cm**-1
  29:      1330.36 cm**-1
  30:      1357.05 cm**-1
  31:      1371.77 cm**-1
  32:      1460.52 cm**-1
  33:      1477.77 cm**-1
  34:      1491.64 cm**-1
  35:      1502.24 cm**-1
  36:      1515.61 cm**-1
  37:      1580.11 cm**-1
  38:      1696.01 cm**-1
  39:      3061.09 cm**-1
  40:      3085.09 cm**-1
  41:      3091.39 cm**-1
  42:      3150.02 cm**-1
  43:      3156.27 cm**-1
  44:      3167.89 cm**-1
  45:      3192.57 cm**-1
  46:      3257.33 cm**-1
  47:      3655.89 cm**-1

IR SPECTRUM
-----------

 Mode    freq (cm**-1)   T**2         TX         TY         TZ
-------------------------------------------------------------------
   6:        85.14    3.884249  (  1.927211   0.392986  -0.125174)
   7:       131.19    1.865039  (  0.457306  -1.285451   0.059385)
   8:       171.66    1.547779  ( -0.822637   0.883505  -0.300776)
   9:       187.05    1.656018  (  0.323737   1.240457  -0.111703)
  10:       391.17   10.712023  ( -2.388591  -2.082362   0.818794)
  11:       412.11   51.620679  ( -3.592888   6.218715  -0.198541)
  12:       458.98   74.402274  ( -5.430204   6.239423  -2.446376)
  13:       563.69   34.646808  ( -3.257430   4.902553  -0.030537)
  14:       619.80    5.202272  ( -0.033307   0.024304   2.280476)
  15:       777.35   11.327487  ( -0.166238  -0.445817   3.331831)
  16:       859.66    3.159868  ( -0.385835  -0.702314   1.586743)
  17:       932.43    9.992685  ( -1.060542  -0.480523  -2.938883)
  18:       961.72    5.461516  (  0.979656   1.766028  -1.175983)
  19:       989.28   40.339881  ( -0.948763  -3.329412   5.324918)
  20:      1016.74   31.791410  (  1.518973  -4.790180   2.557011)
  21:      1031.40   27.300504  ( -3.482813   3.022104  -2.457114)
  22:      1121.10    3.321724  (  0.347362   1.077064  -1.428635)
  23:      1169.64    4.717770  ( -1.560573  -1.115227   1.019142)
  24:      1182.80    1.022472  (  0.747501  -0.183958   0.655648)
  25:      1209.45   24.247278  ( -0.443679   4.059317  -2.751795)
  26:      1219.33   13.489779  (  0.495550  -2.352944   2.776304)
  27:      1257.34    9.151883  (  1.497652   1.751202  -1.960156)
  28:      1269.26   67.774352  (  1.374963   3.902362  -7.117261)
  29:      1330.36   45.977928  ( -0.518562  -2.102977   6.425458)
  30:      1357.05    0.727134  (  0.444884   0.331454   0.647573)
  31:      1371.77   11.632645  ( -1.041325  -0.793302  -3.149438)
  32:      1460.52    0.755419  (  0.399861  -0.721669   0.273359)
  33:      1477.77   15.023811  ( -3.471226  -1.722692  -0.082085)
  34:      1491.64   18.244760  ( -0.078915  -0.109363  -4.269259)
  35:      1502.24    5.161461  (  1.324497  -0.076533  -1.844265)
  36:      1515.61    0.869911  (  0.230632   0.439660  -0.789568)
  37:      1580.11   57.170742  (  3.811691   2.478019   6.041620)
  38:      1696.01  161.479016  (  1.506178   5.877106 -11.165575)
  39:      3061.09   12.970451  ( -1.233099   3.306648  -0.718330)
  40:      3085.09    1.234525  (  0.957204   0.563466  -0.028136)
  41:      3091.39    2.686415  (  0.315399  -0.876727  -1.348439)
  42:      3150.02   10.250238  ( -2.963971  -1.165960  -0.325036)
  43:      3156.27    0.530532  ( -0.543992  -0.484047  -0.017403)
  44:      3167.89    0.076093  ( -0.241896  -0.132121   0.011097)
  45:      3192.57    0.395527  (  0.371853  -0.507094  -0.010398)
  46:      3257.33   20.185108  (  3.056892   2.931601   1.498744)
  47:      3655.89  217.294368  (  5.179002   7.972147 -11.265752)

--------------------------
THERMOCHEMISTRY AT 298.15K
--------------------------

Temperature         ... 298.15 K
Pressure            ... 1.00 atm
Total Mass          ... 101.13 AMU

Throughout the following assumptions are being made:
  (1) The electronic state is orbitally nondegenerate
  (2) There are no thermally accessible electronically excited states
  (3) Hindered rotations indicated by low frequency modes) are not
      treated as such but are treated as vibrations and this may
      case some error
  (4) All equations used are the standard statistical mechanics
      equations for an ideal gas
  (5) All vibrations are strinctly harmonic

------------
INNER ENERGY
------------

The inner energy is: U= E(el) + E(ZPE) + E(vib) + E(rot) + E(trans)
    E(el)   - is the total energy from the electronic structure calculation
              = E(kin-el) + E(nuc-el) + E(el-el) + E(nuc-nuc)
    E(ZPE)  - the the zero temperature vibrational energy from the frequency calculation
    E(vib)  - the the finite temperature correction to E(ZPE) due to population
              of excietd vibrational states
    E(rot)  - is the rotational thermal energy
    E(trans)- is the translational thermal energy

Summary of contributions to the inner energy U:
Electronic energy                ...   -342.00359074 Eh
Zero point energy                ...      0.14037824 Eh      88.09 kcal/mol
Thermal vibrational correction   ...      0.00435068 Eh       2.73 kcal/mol
Thermal rotational correction    ...      0.00141627 Eh       0.89 kcal/mol
Thermal translational correction ...      0.00141627 Eh       0.89 kcal/mol
-----------------------------------------------------------------------
Total thermal energy                   -341.85602927 Eh

Summary of corrections to the electronic energy:
(perhaps to be used in another calculation)
Total thermal correction                  0.00718323 Eh       4.51 kcal/mol
Non-thermal (ZPE) correction              0.14037824 Eh      88.09 kcal/mol
-----------------------------------------------------------------------
Total correction                          0.14756147 Eh      92.60 kcal/mol

--------
ENTHALPY
--------

The enthalpy is H = U + kB*T
                kB is Boltzmann's constant
Total free energy                 ...   -341.85602927 Eh
Thermal Enthalpy correction       ...      0.00094421 Eh       0.59 kcal/mol
-----------------------------------------------------------------------
Total Enthalpy                    ...   -341.85508506 Eh

-------
ENTROPY
-------

The entropy contributions are T*S = T*(S(el)+S(vib)+S(rot)+S(trans)
     S(el)   - electronic entropy
     S(vib)  - vibrational entropy
     S(rot)  - rotational entropy
     S(trans)- translational entropy
The entropies will be listed as mutliplied by the temperature to get
units of energy

Electronic entropy                ...      0.00000000 Eh      0.00 kcal/mol
Vibrational entropy               ...      0.00774934 Eh      4.86 kcal/mol
Rotational entropy                ...      0.01187201 Eh      7.45 kcal/mol
Translational entropy             ...      0.01888714 Eh     11.85 kcal/mol
-----------------------------------------------------------------------
Final entropy term                ...      0.03850850 Eh     24.16 kcal/mol

CAUTION: The rotational entropy is not quite correctly treated here
         because it includes a symmetry number that is not yet correctly
         implemented in ORCA!
For a nonlinear molecule the correct rotational entropy is:
    S(rot) = R*(ln(qrot/sn)+1.5)
    R    = 8.31441 J/mol/K = 1.987191683e-3 kcal/mol/K
    qrot = 193394.8073646
    sn is the rotational symmetry number. We have assumed 3 here
       if it is different for your molecule then you should correct
       the printed rotational entropy by manually evaluating the equation
       as given above

For convenience we print out the resulting values for sn=1 - 12:
 sn= 1  qrot/sn=  193394.8074 T*S(rot)=     8.10 kcal/mol T*S(tot)=    24.82 kcal/mol
 sn= 2  qrot/sn=   96697.4037 T*S(rot)=     7.69 kcal/mol T*S(tot)=    24.40 kcal/mol
 sn= 3  qrot/sn=   64464.9358 T*S(rot)=     7.45 kcal/mol T*S(tot)=    24.16 kcal/mol
 sn= 4  qrot/sn=   48348.7018 T*S(rot)=     7.28 kcal/mol T*S(tot)=    23.99 kcal/mol
 sn= 5  qrot/sn=   38678.9615 T*S(rot)=     7.15 kcal/mol T*S(tot)=    23.86 kcal/mol
 sn= 6  qrot/sn=   32232.4679 T*S(rot)=     7.04 kcal/mol T*S(tot)=    23.75 kcal/mol
 sn= 7  qrot/sn=   27627.8296 T*S(rot)=     6.95 kcal/mol T*S(tot)=    23.66 kcal/mol
 sn= 8  qrot/sn=   24174.3509 T*S(rot)=     6.87 kcal/mol T*S(tot)=    23.58 kcal/mol
 sn= 9  qrot/sn=   21488.3119 T*S(rot)=     6.80 kcal/mol T*S(tot)=    23.51 kcal/mol
 sn=10  qrot/sn=   19339.4807 T*S(rot)=     6.74 kcal/mol T*S(tot)=    23.45 kcal/mol
 sn=11  qrot/sn=   17581.3461 T*S(rot)=     6.68 kcal/mol T*S(tot)=    23.39 kcal/mol
 sn=12  qrot/sn=   16116.2339 T*S(rot)=     6.63 kcal/mol T*S(tot)=    23.34 kcal/mol

-------------------
GIBBS FREE ENTHALPY
-------------------

The Gibbs free enthalpy is G = H - T*S

Total enthalpy                    ...   -341.85508506 Eh
Total entropy correction          ...     -0.03850850 Eh    -24.16 kcal/mol
-----------------------------------------------------------------------
Final Gibbs free enthalpy         ...   -341.89359356 Eh

For completeness - the Gibbs free enthalpy minus the electronic energy
G-E(el)                           ...      0.10999718 Eh     69.02 kcal/mol

                             ****ORCA TERMINATED NORMALLY****
TOTAL RUN TIME: 0 days 0 hours 32 minutes 14 seconds 29 msec
