                         Program Version 3.0.3 - RELEASE   -
|  1> ! NORI PBE0 def2-TZVP UseSym TightOPT Freq TightSCF Grid3 FinalGrid5 XYZFile
|  2> % pal
|  3>     nprocs 8
|  4> end
|  5> %method
|  6>     SymThresh 5.0e-2
|  7> end
|  8> % geom
|  9>     MaxIter 10
| 10> end
| 11> % maxcore 2000
| 12> % output
| 13>     printlevel mini
| 14>     print[ P_Basis ] 0
| 15>     print[ P_SCFInfo ] 1
| 16>     print[ P_SCFIterInfo ] 1
| 17>     print[ P_OrbEn ] 0
| 18>     print[ P_Cartesian ] 0
| 19> end
| 20> % elprop
| 21>     Dipole false
| 22> end
| 23> *xyz 1 1
| 24>  C        5.0527356802    -0.7947186812    -0.2742716157
| 25>  O        5.4878611402     0.1261260430     0.7277066691
| 26>  N        4.4522606289     0.6797038919     1.3652334391
| 27>  C        4.7694127191     1.4748461830     2.3015800682
| 28>  C        3.6458307364     2.1407691958     3.0012012918
| 29>  C        2.7519923180     3.0669135893     2.2687359298
| 30>  N        2.3241004612     1.6771909878     2.5266536074
| 31>  H        5.9673988781    -1.1678606482    -0.7283717431
| 32>  H        4.4448433320    -0.2838985462    -1.0228294174
| 33>  H        4.4983589375    -1.6175227045     0.1795979674
| 34>  H        5.7933706665     1.6986227561     2.5910467483
| 35>  H        3.7195711144     2.2574691518     4.0768697670
| 36>  H        2.1889331989     3.8137364353     2.8136600727
| 37>  H        2.9633770844     3.2706397894     1.2268700040
| 38>  H        2.4227930305     1.0072509330     1.7558388902
| 39>  H        1.5851100737     1.4968216236     3.1966883212
| 40> *
| 41>
| 42>                          ****END OF INPUT****
 Total Charge           Charge          ....    1
 Multiplicity           Mult            ....    1
 Number of Electrons    NEL             ....   54
FINAL SINGLE POINT ENERGY      -341.957617787340

CARTESIAN COORDINATES (ANGSTROEM)
---------------------------------
  C      0.921075    0.888209    2.619881
  O      0.000536   -0.000197    1.983834
  N      0.158605   -0.000486    0.657020
  C     -0.599525   -0.803891    0.033105
  C     -0.483067   -0.797941   -1.444023
  C     -0.828334    0.417464   -2.216724
  N      0.585320    0.102543   -1.928190
  H      0.693508    0.815427    3.680735
  H      0.764814    1.910843    2.273154
  H      1.947810    0.568908    2.435167
  H     -1.321251   -1.459433    0.514406
  H     -0.531265   -1.751593   -1.957535
  H     -1.098553    0.331480   -3.261444
  H     -1.199939    1.281016   -1.679959
  H      1.026293    0.604456   -1.149568
  H      1.194364   -0.200045   -2.679663

FINAL SINGLE POINT ENERGY      -341.957618147511
                    ***********************HURRAY********************
 Multiplicity           Mult            ....    1
 Number of Electrons    NEL             ....   54
 Basis Dimension        Dim             ....  271
FINAL SINGLE POINT ENERGY      -341.957618216859

VIBRATIONAL FREQUENCIES
-----------------------

   0:         0.00 cm**-1
   1:         0.00 cm**-1
   2:         0.00 cm**-1
   3:         0.00 cm**-1
   4:         0.00 cm**-1
   5:         0.00 cm**-1
   6:        79.52 cm**-1
   7:       128.69 cm**-1
   8:       155.79 cm**-1
   9:       189.80 cm**-1
  10:       243.76 cm**-1
  11:       340.46 cm**-1
  12:       448.78 cm**-1
  13:       520.65 cm**-1
  14:       622.35 cm**-1
  15:       822.19 cm**-1
  16:       850.60 cm**-1
  17:       903.17 cm**-1
  18:       908.99 cm**-1
  19:       961.59 cm**-1
  20:       989.59 cm**-1
  21:      1035.63 cm**-1
  22:      1054.78 cm**-1
  23:      1108.36 cm**-1
  24:      1160.64 cm**-1
  25:      1171.22 cm**-1
  26:      1172.63 cm**-1
  27:      1184.17 cm**-1
  28:      1217.40 cm**-1
  29:      1251.01 cm**-1
  30:      1273.43 cm**-1
  31:      1335.60 cm**-1
  32:      1432.82 cm**-1
  33:      1463.45 cm**-1
  34:      1479.11 cm**-1
  35:      1484.17 cm**-1
  36:      1491.89 cm**-1
  37:      1593.58 cm**-1
  38:      1707.76 cm**-1
  39:      3063.45 cm**-1
  40:      3150.44 cm**-1
  41:      3170.68 cm**-1
  42:      3176.64 cm**-1
  43:      3190.64 cm**-1
  44:      3205.23 cm**-1
  45:      3278.85 cm**-1
  46:      3371.54 cm**-1
  47:      3590.80 cm**-1

IR SPECTRUM
-----------

 Mode    freq (cm**-1)   T**2         TX         TY         TZ
-------------------------------------------------------------------
   6:        79.52    0.402047  (  0.491627  -0.397323  -0.049836)
   7:       128.69    0.598791  (  0.155740   0.181865   0.735841)
   8:       155.79    8.990736  (  1.021224   0.584093   2.758020)
   9:       189.80   11.873755  ( -2.233299   2.620670   0.134995)
  10:       243.76    5.518422  (  2.029266  -1.183363   0.012458)
  11:       340.46   38.906939  ( -1.030252  -1.519505   5.961260)
  12:       448.78    4.721532  (  0.738802   0.493663   1.982927)
  13:       520.65    7.354656  (  1.318532   1.468548   1.859972)
  14:       622.35    7.227435  (  0.203733   0.456367   2.641526)
  15:       822.19    0.211965  (  0.074440   0.042181   0.452376)
  16:       850.60   16.261835  (  3.925006   0.085402  -0.921343)
  17:       903.17    6.134357  ( -1.079466  -0.351210   2.201309)
  18:       908.99   18.524800  ( -0.760959   4.057604  -1.217205)
  19:       961.59   12.402367  (  3.414671  -0.781059   0.363781)
  20:       989.59   20.838910  (  3.933568   1.533497  -1.736186)
  21:      1035.63   12.307742  ( -0.239369  -2.114023   2.789507)
  22:      1054.78  101.038403  (  0.312744   9.032220  -4.399954)
  23:      1108.36  125.424442  ( -3.113866  -2.930352 -10.350909)
  24:      1160.64    1.387843  ( -0.652759  -0.141824   0.970379)
  25:      1171.22    4.273344  ( -0.474980  -1.824984  -0.846860)
  26:      1172.63   29.021904  (  3.540341   3.265979   2.412732)
  27:      1184.17   98.644564  ( -5.121119  -4.742520  -7.065919)
  28:      1217.40   67.630037  (  2.527295   2.434514   7.437470)
  29:      1251.01    0.113236  (  0.084398   0.293336  -0.141658)
  30:      1273.43    9.642846  ( -1.938650  -0.837301  -2.276711)
  31:      1335.60    5.428488  (  1.185001   1.202777  -1.605487)
  32:      1432.82    5.140551  ( -0.456470  -2.180176  -0.423107)
  33:      1463.45    0.751799  (  0.432958   0.725049  -0.196596)
  34:      1479.11   13.050347  (  2.424759  -2.677415  -0.048372)
  35:      1484.17   11.674964  ( -2.662942   1.834771  -1.103322)
  36:      1491.89   27.306262  (  0.161160   0.311189   5.213775)
  37:      1593.58   68.979379  ( -7.185102  -2.442915   3.374293)
  38:      1707.76   32.811269  ( -0.881900  -1.809148  -5.362882)
  39:      3063.45   26.697869  ( -3.253891  -3.143584  -2.495585)
  40:      3150.44   13.965163  ( -2.434579   2.810999  -0.369154)
  41:      3170.68    2.976172  ( -1.039035   1.212623  -0.652783)
  42:      3176.64    2.818804  ( -1.276805  -0.911884  -0.597527)
  43:      3190.64    1.274920  (  0.715694   0.563162  -0.667496)
  44:      3205.23    3.164333  (  0.215973   1.765434  -0.030540)
  45:      3278.85    7.082792  ( -0.270159   1.627676   2.088175)
  46:      3371.54  123.543768  ( -6.467923  -2.897496  -8.562375)
  47:      3590.80  189.231204  ( -6.194138   3.410244  11.799750)

--------------------------
THERMOCHEMISTRY AT 298.15K
--------------------------

Temperature         ... 298.15 K
Pressure            ... 1.00 atm
Total Mass          ... 101.13 AMU

Throughout the following assumptions are being made:
  (1) The electronic state is orbitally nondegenerate
  (2) There are no thermally accessible electronically excited states
  (3) Hindered rotations indicated by low frequency modes) are not
      treated as such but are treated as vibrations and this may
      case some error
  (4) All equations used are the standard statistical mechanics
      equations for an ideal gas
  (5) All vibrations are strinctly harmonic

------------
INNER ENERGY
------------

The inner energy is: U= E(el) + E(ZPE) + E(vib) + E(rot) + E(trans)
    E(el)   - is the total energy from the electronic structure calculation
              = E(kin-el) + E(nuc-el) + E(el-el) + E(nuc-nuc)
    E(ZPE)  - the the zero temperature vibrational energy from the frequency calculation
    E(vib)  - the the finite temperature correction to E(ZPE) due to population
              of excietd vibrational states
    E(rot)  - is the rotational thermal energy
    E(trans)- is the translational thermal energy

Summary of contributions to the inner energy U:
Electronic energy                ...   -341.95761822 Eh
Zero point energy                ...      0.13892687 Eh      87.18 kcal/mol
Thermal vibrational correction   ...      0.00472518 Eh       2.97 kcal/mol
Thermal rotational correction    ...      0.00141627 Eh       0.89 kcal/mol
Thermal translational correction ...      0.00141627 Eh       0.89 kcal/mol
-----------------------------------------------------------------------
Total thermal energy                   -341.81113363 Eh

Summary of corrections to the electronic energy:
(perhaps to be used in another calculation)
Total thermal correction                  0.00755773 Eh       4.74 kcal/mol
Non-thermal (ZPE) correction              0.13892687 Eh      87.18 kcal/mol
-----------------------------------------------------------------------
Total correction                          0.14648459 Eh      91.92 kcal/mol

--------
ENTHALPY
--------

The enthalpy is H = U + kB*T
                kB is Boltzmann's constant
Total free energy                 ...   -341.81113363 Eh
Thermal Enthalpy correction       ...      0.00094421 Eh       0.59 kcal/mol
-----------------------------------------------------------------------
Total Enthalpy                    ...   -341.81018942 Eh

-------
ENTROPY
-------

The entropy contributions are T*S = T*(S(el)+S(vib)+S(rot)+S(trans)
     S(el)   - electronic entropy
     S(vib)  - vibrational entropy
     S(rot)  - rotational entropy
     S(trans)- translational entropy
The entropies will be listed as mutliplied by the temperature to get
units of energy

Electronic entropy                ...      0.00000000 Eh      0.00 kcal/mol
Vibrational entropy               ...      0.00852937 Eh      5.35 kcal/mol
Rotational entropy                ...      0.01208427 Eh      7.58 kcal/mol
Translational entropy             ...      0.01888714 Eh     11.85 kcal/mol
-----------------------------------------------------------------------
Final entropy term                ...      0.03950077 Eh     24.79 kcal/mol

CAUTION: The rotational entropy is not quite correctly treated here
         because it includes a symmetry number that is not yet correctly
         implemented in ORCA!
For a nonlinear molecule the correct rotational entropy is:
    S(rot) = R*(ln(qrot/sn)+1.5)
    R    = 8.31441 J/mol/K = 1.987191683e-3 kcal/mol/K
    qrot = 242144.1285518
    sn is the rotational symmetry number. We have assumed 3 here
       if it is different for your molecule then you should correct
       the printed rotational entropy by manually evaluating the equation
       as given above

For convenience we print out the resulting values for sn=1 - 12:
 sn= 1  qrot/sn=  242144.1286 T*S(rot)=     8.23 kcal/mol T*S(tot)=    25.44 kcal/mol
 sn= 2  qrot/sn=  121072.0643 T*S(rot)=     7.82 kcal/mol T*S(tot)=    25.03 kcal/mol
 sn= 3  qrot/sn=   80714.7095 T*S(rot)=     7.58 kcal/mol T*S(tot)=    24.79 kcal/mol
 sn= 4  qrot/sn=   60536.0321 T*S(rot)=     7.41 kcal/mol T*S(tot)=    24.62 kcal/mol
 sn= 5  qrot/sn=   48428.8257 T*S(rot)=     7.28 kcal/mol T*S(tot)=    24.48 kcal/mol
 sn= 6  qrot/sn=   40357.3548 T*S(rot)=     7.17 kcal/mol T*S(tot)=    24.38 kcal/mol
 sn= 7  qrot/sn=   34592.0184 T*S(rot)=     7.08 kcal/mol T*S(tot)=    24.29 kcal/mol
 sn= 8  qrot/sn=   30268.0161 T*S(rot)=     7.00 kcal/mol T*S(tot)=    24.21 kcal/mol
 sn= 9  qrot/sn=   26904.9032 T*S(rot)=     6.93 kcal/mol T*S(tot)=    24.14 kcal/mol
 sn=10  qrot/sn=   24214.4129 T*S(rot)=     6.87 kcal/mol T*S(tot)=    24.07 kcal/mol
 sn=11  qrot/sn=   22013.1026 T*S(rot)=     6.81 kcal/mol T*S(tot)=    24.02 kcal/mol
 sn=12  qrot/sn=   20178.6774 T*S(rot)=     6.76 kcal/mol T*S(tot)=    23.97 kcal/mol

-------------------
GIBBS FREE ENTHALPY
-------------------

The Gibbs free enthalpy is G = H - T*S

Total enthalpy                    ...   -341.81018942 Eh
Total entropy correction          ...     -0.03950077 Eh    -24.79 kcal/mol
-----------------------------------------------------------------------
Final Gibbs free enthalpy         ...   -341.84969019 Eh

For completeness - the Gibbs free enthalpy minus the electronic energy
G-E(el)                           ...      0.10792803 Eh     67.73 kcal/mol

                             ****ORCA TERMINATED NORMALLY****
TOTAL RUN TIME: 0 days 0 hours 27 minutes 50 seconds 340 msec
