                         Program Version 3.0.3 - RELEASE   -
|  1> ! NORI PBE0 def2-TZVP UseSym TightOPT Freq TightSCF Grid3 FinalGrid5 XYZFile
|  2> % pal
|  3>     nprocs 8
|  4> end
|  5> %method
|  6>     SymThresh 5.0e-2
|  7> end
|  8> % geom
|  9>     MaxIter 10
| 10> end
| 11> % maxcore 2000
| 12> % output
| 13>     printlevel mini
| 14>     print[ P_Basis ] 0
| 15>     print[ P_SCFInfo ] 1
| 16>     print[ P_SCFIterInfo ] 1
| 17>     print[ P_OrbEn ] 0
| 18>     print[ P_Cartesian ] 0
| 19> end
| 20> % elprop
| 21>     Dipole false
| 22> end
| 23> *xyz 1 1
| 24>  C        2.1029637012    -0.7671870302     1.6765670215
| 25>  O        2.9644750893    -0.3423544279     0.6255346598
| 26>  N        3.6648212207    -1.3846925346     0.1356315645
| 27>  C        4.4133870111    -1.0657524528    -0.8383592115
| 28>  C        5.2458480572    -2.1445356811    -1.4522703895
| 29>  C        6.6937860900    -2.0086560203    -1.0203429769
| 30>  N        7.5369349762    -3.0946582323    -1.6427790366
| 31>  H        1.5919370018     0.1335832736     2.0099702540
| 32>  H        2.6812065635    -1.1951367279     2.4974802875
| 33>  H        1.3775639171    -1.4943969125     1.3076650264
| 34>  H        4.4580616858    -0.0452982188    -1.2205876377
| 35>  H        4.8439148707    -3.1078041484    -1.1244703364
| 36>  H        5.1732003938    -2.0929304427    -2.5457710567
| 37>  H        7.1348912651    -1.0593410321    -1.3277573482
| 38>  H        6.7988400483    -2.1131977119     0.0599615008
| 39>  H        7.5046596513    -3.0454670571    -2.6638414679
| 40>  H        7.1934218937    -4.0188567901    -1.3710352508
| 41>  H        8.5158765631    -3.0279978528    -1.3564456023
| 42> *
| 43>
| 44>                          ****END OF INPUT****
 Total Charge           Charge          ....    1
 Multiplicity           Mult            ....    1
 Number of Electrons    NEL             ....   56
FINAL SINGLE POINT ENERGY      -343.191305317213

CARTESIAN COORDINATES (ANGSTROEM)
---------------------------------
  C      0.922152    0.664640    3.187542
  O      0.000267   -0.000324    2.330022
  N      0.449056    0.000066    1.059001
  C     -0.316403   -0.625005    0.262526
  C      0.079209   -0.677384   -1.177899
  C     -0.769486    0.277210   -1.996685
  N     -0.375402    0.221038   -3.452677
  H      0.474422    0.621302    4.178271
  H      1.051283    1.703982    2.880086
  H      1.884400    0.149920    3.188837
  H     -1.232893   -1.107644    0.603919
  H      1.134645   -0.397813   -1.247827
  H     -0.033783   -1.700393   -1.557101
  H     -1.832127    0.034607   -1.953810
  H     -0.630070    1.309731   -1.675575
  H     -0.501508   -0.720322   -3.831423
  H      0.610286    0.467254   -3.570000
  H     -0.928707    0.864705   -4.022040

FINAL SINGLE POINT ENERGY      -343.191305916743
                    ***********************HURRAY********************
 Multiplicity           Mult            ....    1
 Number of Electrons    NEL             ....   56
 Basis Dimension        Dim             ....  283
FINAL SINGLE POINT ENERGY      -343.191306190102

VIBRATIONAL FREQUENCIES
-----------------------

   0:         0.00 cm**-1
   1:         0.00 cm**-1
   2:         0.00 cm**-1
   3:         0.00 cm**-1
   4:         0.00 cm**-1
   5:         0.00 cm**-1
   6:        47.74 cm**-1
   7:        84.55 cm**-1
   8:       101.39 cm**-1
   9:       170.00 cm**-1
  10:       197.27 cm**-1
  11:       220.34 cm**-1
  12:       245.03 cm**-1
  13:       317.03 cm**-1
  14:       395.62 cm**-1
  15:       488.09 cm**-1
  16:       592.80 cm**-1
  17:       775.73 cm**-1
  18:       886.33 cm**-1
  19:       900.86 cm**-1
  20:       946.32 cm**-1
  21:       973.04 cm**-1
  22:       996.81 cm**-1
  23:      1047.10 cm**-1
  24:      1139.17 cm**-1
  25:      1148.78 cm**-1
  26:      1173.32 cm**-1
  27:      1174.83 cm**-1
  28:      1214.90 cm**-1
  29:      1298.73 cm**-1
  30:      1318.11 cm**-1
  31:      1350.65 cm**-1
  32:      1374.07 cm**-1
  33:      1410.18 cm**-1
  34:      1462.89 cm**-1
  35:      1467.53 cm**-1
  36:      1476.84 cm**-1
  37:      1495.65 cm**-1
  38:      1498.27 cm**-1
  39:      1507.43 cm**-1
  40:      1657.94 cm**-1
  41:      1663.35 cm**-1
  42:      1713.74 cm**-1
  43:      3037.58 cm**-1
  44:      3059.28 cm**-1
  45:      3098.84 cm**-1
  46:      3104.02 cm**-1
  47:      3131.70 cm**-1
  48:      3142.08 cm**-1
  49:      3166.13 cm**-1
  50:      3181.01 cm**-1
  51:      3420.63 cm**-1
  52:      3500.98 cm**-1
  53:      3508.07 cm**-1

IR SPECTRUM
-----------

 Mode    freq (cm**-1)   T**2         TX         TY         TZ
-------------------------------------------------------------------
   6:        47.74    7.267264  (  0.511156   2.216312   1.447047)
   7:        84.55    6.846631  ( -2.385480  -0.930855  -0.538170)
   8:       101.39    1.026903  (  0.653168   0.235210  -0.738208)
   9:       170.00   10.536471  ( -1.403131   2.764830  -0.960943)
  10:       197.27    8.497707  ( -2.057456   2.040574  -0.317243)
  11:       220.34    0.429270  (  0.611995  -0.110007   0.206473)
  12:       245.03    2.962149  ( -0.126137  -1.554708   0.727407)
  13:       317.03    9.900559  ( -0.197997   1.147482  -2.923122)
  14:       395.62    3.620158  ( -0.352782  -0.800805   1.689501)
  15:       488.09   28.039489  ( -0.130106   0.794420   5.233685)
  16:       592.80    6.000721  ( -1.802401  -0.513667  -1.577408)
  17:       775.73    6.680342  ( -1.818290  -1.764555   0.510401)
  18:       886.33   14.686442  ( -0.575634   1.043669  -3.642230)
  19:       900.86   21.104292  ( -2.197685  -1.026921  -3.901270)
  20:       946.32   41.688115  ( -2.533916   5.116585  -3.014622)
  21:       973.04    4.698550  ( -0.819229   1.490120   1.344231)
  22:       996.81   12.976197  (  1.808587  -0.403133  -3.089125)
  23:      1047.10    6.097362  (  1.776438   1.342886   1.066905)
  24:      1139.17   15.075047  (  2.022908  -1.569300   2.918936)
  25:      1148.78  281.433341  (  6.942000   5.920409  14.078023)
  26:      1173.32    2.632865  (  0.432132  -1.049829  -1.159304)
  27:      1174.83   27.636319  (  0.780039   1.145178   5.071136)
  28:      1214.90   19.665439  (  0.005545   0.511765   4.404941)
  29:      1298.73    1.341532  ( -0.531990   0.081079   1.025644)
  30:      1318.11    2.414042  ( -0.516656   0.735065  -1.267591)
  31:      1350.65    4.912577  (  1.230651   1.515893   1.048877)
  32:      1374.07    9.696362  (  1.604984   0.265895  -2.655125)
  33:      1410.18   14.801848  ( -0.412087  -0.521996   3.789400)
  34:      1462.89    0.173941  (  0.024069   0.355780  -0.216293)
  35:      1467.53    2.479610  ( -1.435990   0.277998   0.583317)
  36:      1476.84   10.869647  ( -1.541151   2.898682  -0.303557)
  37:      1495.65   27.395023  ( -0.464411   0.041382   5.213217)
  38:      1498.27   14.894580  (  2.625845  -2.639823   1.015307)
  39:      1507.43  150.568831  ( -3.094889   0.542254  11.861554)
  40:      1657.94   53.576162  (  5.237215   4.904513   1.446893)
  41:      1663.35   38.364387  ( -3.791037   4.619775  -1.627915)
  42:      1713.74   21.828540  ( -0.235638  -0.398816  -4.649082)
  43:      3037.58   17.471505  (  0.263314  -1.879168  -3.724365)
  44:      3059.28   40.177822  (  3.621969   2.917748   4.306496)
  45:      3098.84    1.152363  ( -0.257775  -1.027732   0.172285)
  46:      3104.02    1.016168  (  0.965502  -0.243247   0.157496)
  47:      3131.70    4.698101  ( -1.482024  -0.855351   1.330444)
  48:      3142.08   18.914770  (  1.962038  -3.783845   0.864692)
  49:      3166.13    0.139244  ( -0.331939  -0.149588   0.081752)
  50:      3181.01    4.424350  (  1.515461   0.530092  -1.358944)
  51:      3420.63   55.449381  (  1.136066   0.098379  -7.358604)
  52:      3500.98   93.599526  (  7.388532   5.948209   1.904715)
  53:      3508.07  104.070189  (  5.966013  -7.863440   2.577438)

--------------------------
THERMOCHEMISTRY AT 298.15K
--------------------------

Temperature         ... 298.15 K
Pressure            ... 1.00 atm
Total Mass          ... 103.14 AMU

Throughout the following assumptions are being made:
  (1) The electronic state is orbitally nondegenerate
  (2) There are no thermally accessible electronically excited states
  (3) Hindered rotations indicated by low frequency modes) are not
      treated as such but are treated as vibrations and this may
      case some error
  (4) All equations used are the standard statistical mechanics
      equations for an ideal gas
  (5) All vibrations are strinctly harmonic

------------
INNER ENERGY
------------

The inner energy is: U= E(el) + E(ZPE) + E(vib) + E(rot) + E(trans)
    E(el)   - is the total energy from the electronic structure calculation
              = E(kin-el) + E(nuc-el) + E(el-el) + E(nuc-nuc)
    E(ZPE)  - the the zero temperature vibrational energy from the frequency calculation
    E(vib)  - the the finite temperature correction to E(ZPE) due to population
              of excietd vibrational states
    E(rot)  - is the rotational thermal energy
    E(trans)- is the translational thermal energy

Summary of contributions to the inner energy U:
Electronic energy                ...   -343.19130619 Eh
Zero point energy                ...      0.16239399 Eh     101.90 kcal/mol
Thermal vibrational correction   ...      0.00617384 Eh       3.87 kcal/mol
Thermal rotational correction    ...      0.00141627 Eh       0.89 kcal/mol
Thermal translational correction ...      0.00141627 Eh       0.89 kcal/mol
-----------------------------------------------------------------------
Total thermal energy                   -343.01990581 Eh

Summary of corrections to the electronic energy:
(perhaps to be used in another calculation)
Total thermal correction                  0.00900638 Eh       5.65 kcal/mol
Non-thermal (ZPE) correction              0.16239399 Eh     101.90 kcal/mol
-----------------------------------------------------------------------
Total correction                          0.17140038 Eh     107.56 kcal/mol

--------
ENTHALPY
--------

The enthalpy is H = U + kB*T
                kB is Boltzmann's constant
Total free energy                 ...   -343.01990581 Eh
Thermal Enthalpy correction       ...      0.00094421 Eh       0.59 kcal/mol
-----------------------------------------------------------------------
Total Enthalpy                    ...   -343.01896160 Eh

-------
ENTROPY
-------

The entropy contributions are T*S = T*(S(el)+S(vib)+S(rot)+S(trans)
     S(el)   - electronic entropy
     S(vib)  - vibrational entropy
     S(rot)  - rotational entropy
     S(trans)- translational entropy
The entropies will be listed as mutliplied by the temperature to get
units of energy

Electronic entropy                ...      0.00000000 Eh      0.00 kcal/mol
Vibrational entropy               ...      0.01199091 Eh      7.52 kcal/mol
Rotational entropy                ...      0.01231184 Eh      7.73 kcal/mol
Translational entropy             ...      0.01891510 Eh     11.87 kcal/mol
-----------------------------------------------------------------------
Final entropy term                ...      0.04321785 Eh     27.12 kcal/mol

CAUTION: The rotational entropy is not quite correctly treated here
         because it includes a symmetry number that is not yet correctly
         implemented in ORCA!
For a nonlinear molecule the correct rotational entropy is:
    S(rot) = R*(ln(qrot/sn)+1.5)
    R    = 8.31441 J/mol/K = 1.987191683e-3 kcal/mol/K
    qrot = 308141.2845269
    sn is the rotational symmetry number. We have assumed 3 here
       if it is different for your molecule then you should correct
       the printed rotational entropy by manually evaluating the equation
       as given above

For convenience we print out the resulting values for sn=1 - 12:
 sn= 1  qrot/sn=  308141.2845 T*S(rot)=     8.38 kcal/mol T*S(tot)=    27.77 kcal/mol
 sn= 2  qrot/sn=  154070.6423 T*S(rot)=     7.97 kcal/mol T*S(tot)=    27.36 kcal/mol
 sn= 3  qrot/sn=  102713.7615 T*S(rot)=     7.73 kcal/mol T*S(tot)=    27.12 kcal/mol
 sn= 4  qrot/sn=   77035.3211 T*S(rot)=     7.56 kcal/mol T*S(tot)=    26.95 kcal/mol
 sn= 5  qrot/sn=   61628.2569 T*S(rot)=     7.42 kcal/mol T*S(tot)=    26.82 kcal/mol
 sn= 6  qrot/sn=   51356.8808 T*S(rot)=     7.32 kcal/mol T*S(tot)=    26.71 kcal/mol
 sn= 7  qrot/sn=   44020.1835 T*S(rot)=     7.22 kcal/mol T*S(tot)=    26.62 kcal/mol
 sn= 8  qrot/sn=   38517.6606 T*S(rot)=     7.14 kcal/mol T*S(tot)=    26.54 kcal/mol
 sn= 9  qrot/sn=   34237.9205 T*S(rot)=     7.07 kcal/mol T*S(tot)=    26.47 kcal/mol
 sn=10  qrot/sn=   30814.1285 T*S(rot)=     7.01 kcal/mol T*S(tot)=    26.41 kcal/mol
 sn=11  qrot/sn=   28012.8440 T*S(rot)=     6.96 kcal/mol T*S(tot)=    26.35 kcal/mol
 sn=12  qrot/sn=   25678.4404 T*S(rot)=     6.90 kcal/mol T*S(tot)=    26.30 kcal/mol

-------------------
GIBBS FREE ENTHALPY
-------------------

The Gibbs free enthalpy is G = H - T*S

Total enthalpy                    ...   -343.01896160 Eh
Total entropy correction          ...     -0.04321785 Eh    -27.12 kcal/mol
-----------------------------------------------------------------------
Final Gibbs free enthalpy         ...   -343.06217945 Eh

For completeness - the Gibbs free enthalpy minus the electronic energy
G-E(el)                           ...      0.12912674 Eh     81.03 kcal/mol

                             ****ORCA TERMINATED NORMALLY****
TOTAL RUN TIME: 0 days 0 hours 30 minutes 57 seconds 452 msec
