                         Program Version 3.0.3 - RELEASE   -
|  1> ! NORI PBE0 def2-TZVP UseSym TightOPT Freq TightSCF Grid3 FinalGrid5 XYZFile
|  2> % pal
|  3>     nprocs 8
|  4> end
|  5> %method
|  6>     SymThresh 5.0e-2
|  7> end
|  8> % geom
|  9>     MaxIter 10
| 10> end
| 11> % maxcore 2000
| 12> % output
| 13>     printlevel mini
| 14>     print[ P_Basis ] 0
| 15>     print[ P_SCFInfo ] 1
| 16>     print[ P_SCFIterInfo ] 1
| 17>     print[ P_OrbEn ] 0
| 18>     print[ P_Cartesian ] 0
| 19> end
| 20> % elprop
| 21>     Dipole false
| 22> end
| 23> *xyz 1 1
| 24>  C        3.0240448211    -0.8547281904    -2.5597788049
| 25>  O        3.4090643227    -0.1961494167    -1.3552910963
| 26>  N        4.2753705843    -0.9463955699    -0.6508767711
| 27>  C        4.6832419106    -0.4561460587     0.4496423549
| 28>  C        4.3205597147     0.8467016855     1.0543746123
| 29>  C        5.6504158458    -1.3547532825     1.1816547680
| 30>  N        5.8454243711    -2.5849244372     0.3551396464
| 31>  H        2.3314904862    -0.1712627272    -3.0465080007
| 32>  H        2.5201357641    -1.7975584189    -2.3382418920
| 33>  H        3.8920065832    -1.0221469005    -3.2005664477
| 34>  H        3.5997183328     1.3734475422     0.4337790544
| 35>  H        5.2108528563     1.4713260742     1.1741424227
| 36>  H        3.8942147496     0.6998165029     2.0508700961
| 37>  H        5.2644147547    -1.6365408820     2.1626157217
| 38>  H        6.6132822481    -0.8636497500     1.3318742173
| 39>  H        5.2115688280    -2.3964567989    -0.4763446387
| 40>  H        5.5537907177    -3.4353172634     0.8325471701
| 41>  H        6.8059731089    -2.7038521084     0.0403875875
| 42> *
| 43>
| 44>                          ****END OF INPUT****
 Total Charge           Charge          ....    1
 Multiplicity           Mult            ....    1
 Number of Electrons    NEL             ....   56
FINAL SINGLE POINT ENERGY      -343.210669667800
FINAL SINGLE POINT ENERGY      -343.210670230064

CARTESIAN COORDINATES (ANGSTROEM)
---------------------------------
  C      1.176750    0.004097    2.456235
  O      0.000055    0.001042    1.651328
  N      0.309752    0.000935    0.342347
  C     -0.669255    0.001617   -0.469709
  C     -2.115646    0.002307   -0.149286
  C     -0.244247    0.001114   -1.918084
  N      1.250124   -0.007675   -1.956131
  H      0.816978    0.004021    3.482606
  H      1.767213    0.903386    2.270477
  H      1.770998   -0.892922    2.271589
  H     -2.272992    0.029269    0.925989
  H     -2.596003   -0.892315   -0.556466
  H     -2.607253    0.867129   -0.604112
  H     -0.613023    0.886250   -2.439302
  H     -0.624421   -0.876780   -2.443216
  H      1.498685   -0.001692   -0.923469
  H      1.641232    0.812138   -2.415651
  H      1.631253   -0.840198   -2.401143

FINAL SINGLE POINT ENERGY      -343.210670406166
                    ***********************HURRAY********************
 Multiplicity           Mult            ....    1
 Number of Electrons    NEL             ....   56
 Basis Dimension        Dim             ....  283
FINAL SINGLE POINT ENERGY      -343.210670455085

VIBRATIONAL FREQUENCIES
-----------------------

   0:         0.00 cm**-1
   1:         0.00 cm**-1
   2:         0.00 cm**-1
   3:         0.00 cm**-1
   4:         0.00 cm**-1
   5:         0.00 cm**-1
   6:       -51.42 cm**-1 ***imaginary mode***
   7:        87.37 cm**-1
   8:        92.56 cm**-1
   9:       167.67 cm**-1
  10:       171.86 cm**-1
  11:       247.48 cm**-1
  12:       290.85 cm**-1
  13:       303.66 cm**-1
  14:       408.76 cm**-1
  15:       504.04 cm**-1
  16:       511.11 cm**-1
  17:       615.18 cm**-1
  18:       872.38 cm**-1
  19:       886.39 cm**-1
  20:       984.32 cm**-1
  21:      1012.98 cm**-1
  22:      1033.32 cm**-1
  23:      1035.70 cm**-1
  24:      1118.66 cm**-1
  25:      1126.56 cm**-1
  26:      1172.46 cm**-1
  27:      1175.61 cm**-1
  28:      1216.02 cm**-1
  29:      1283.87 cm**-1
  30:      1308.34 cm**-1
  31:      1379.20 cm**-1
  32:      1408.39 cm**-1
  33:      1450.48 cm**-1
  34:      1458.67 cm**-1
  35:      1468.82 cm**-1
  36:      1470.56 cm**-1
  37:      1479.09 cm**-1
  38:      1494.41 cm**-1
  39:      1497.85 cm**-1
  40:      1640.17 cm**-1
  41:      1642.83 cm**-1
  42:      1750.87 cm**-1
  43:      2851.88 cm**-1
  44:      3056.65 cm**-1
  45:      3057.25 cm**-1
  46:      3094.19 cm**-1
  47:      3116.31 cm**-1
  48:      3140.30 cm**-1
  49:      3141.17 cm**-1
  50:      3186.28 cm**-1
  51:      3188.50 cm**-1
  52:      3497.29 cm**-1
  53:      3559.70 cm**-1

IR SPECTRUM
-----------

 Mode    freq (cm**-1)   T**2         TX         TY         TZ
-------------------------------------------------------------------
   7:        87.37    0.386882  ( -0.006901  -0.619647  -0.053587)
   8:        92.56    8.876511  (  0.004288  -2.979205  -0.028815)
   9:       167.67    5.185575  (  0.002587  -2.274984   0.100082)
  10:       171.86   12.479359  ( -0.066641  -0.057841  -3.531511)
  11:       247.48    0.716903  ( -0.044626  -0.844934   0.031603)
  12:       290.85   15.258566  ( -0.198424  -0.028094   3.901077)
  13:       303.66    1.758823  ( -0.020395  -1.325706  -0.030172)
  14:       408.76   95.383015  ( -3.954586   0.028258   8.929920)
  15:       504.04    0.451866  (  0.327224   0.585344  -0.046503)
  16:       511.11    9.244077  ( -3.000577   0.058143   0.487064)
  17:       615.18    2.095373  ( -1.138998  -0.007077  -0.893312)
  18:       872.38   14.603082  ( -3.724256  -0.011283  -0.856078)
  19:       886.39    4.300252  (  0.086421  -2.071666   0.031364)
  20:       984.32    5.629302  (  1.236088   0.026007  -2.025022)
  21:      1012.98    0.569449  ( -0.424950   0.017433   0.623348)
  22:      1033.32    3.618782  ( -0.279956   1.840624   0.390527)
  23:      1035.70   10.653309  (  2.907351   0.255808  -1.461226)
  24:      1118.66  153.728852  (  0.081376  -0.018425 -12.398463)
  25:      1126.56    1.753920  ( -0.105501   1.319975  -0.021365)
  26:      1172.46    1.141186  (  0.141107  -1.050766   0.131019)
  27:      1175.61  223.019552  ( 10.880985   0.037384  10.228506)
  28:      1216.02   16.944737  (  0.751773  -0.006772   4.047163)
  29:      1283.87    2.429157  (  0.952006   0.000306   1.234035)
  30:      1308.34    2.675699  ( -0.054220  -1.634755  -0.018317)
  31:      1379.20   30.010654  ( -5.117159   0.003454   1.955845)
  32:      1408.39   36.433627  ( -5.957358  -0.097582   0.966429)
  33:      1450.48  160.984821  ( 11.418988  -0.002117  -5.530962)
  34:      1458.67   18.514411  ( -2.509071   0.137511   3.492859)
  35:      1468.82   24.891769  ( -4.648676   0.236415   1.796020)
  36:      1470.56   14.596714  (  0.164080   3.811992  -0.196238)
  37:      1479.09   15.604091  (  0.026409  -3.950093   0.012641)
  38:      1494.41   29.300676  (  0.619127   0.016843   5.377460)
  39:      1497.85   44.778761  ( -3.572190   0.007732   5.658459)
  40:      1640.17   17.274867  ( -2.205922   1.374680   3.243306)
  41:      1642.83   23.820842  (  0.583773   4.747104  -0.972140)
  42:      1750.87    6.586472  ( -1.809033  -0.014591   1.820346)
  43:      2851.88  476.868427  (  5.417524  -0.092121 -21.154441)
  44:      3056.65   34.689303  ( -4.787416  -0.006318  -3.430730)
  45:      3057.25    1.722840  ( -0.992974  -0.016372   0.858239)
  46:      3094.19    1.385186  (  0.984427   0.000249   0.645050)
  47:      3116.31    0.433043  (  0.070920  -0.649211   0.080857)
  48:      3140.30   17.124543  ( -0.008508   4.138172   0.000477)
  49:      3141.17    0.035891  (  0.002552  -0.189214   0.009064)
  50:      3186.28    1.490260  ( -1.118297  -0.004842   0.489540)
  51:      3188.50    0.963443  (  0.312695   0.028132   0.929986)
  52:      3497.29  108.671307  ( -6.545711   0.123994   8.112312)
  53:      3559.70  103.537171  (  0.089275  10.174307  -0.112633)

--------------------------
THERMOCHEMISTRY AT 298.15K
--------------------------

Temperature         ... 298.15 K
Pressure            ... 1.00 atm
Total Mass          ... 103.14 AMU

Throughout the following assumptions are being made:
  (1) The electronic state is orbitally nondegenerate
  (2) There are no thermally accessible electronically excited states
  (3) Hindered rotations indicated by low frequency modes) are not
      treated as such but are treated as vibrations and this may
      case some error
  (4) All equations used are the standard statistical mechanics
      equations for an ideal gas
  (5) All vibrations are strinctly harmonic

------------
INNER ENERGY
------------

The inner energy is: U= E(el) + E(ZPE) + E(vib) + E(rot) + E(trans)
    E(el)   - is the total energy from the electronic structure calculation
              = E(kin-el) + E(nuc-el) + E(el-el) + E(nuc-nuc)
    E(ZPE)  - the the zero temperature vibrational energy from the frequency calculation
    E(vib)  - the the finite temperature correction to E(ZPE) due to population
              of excietd vibrational states
    E(rot)  - is the rotational thermal energy
    E(trans)- is the translational thermal energy

Summary of contributions to the inner energy U:
Electronic energy                ...   -343.21067046 Eh
Zero point energy                ...      0.16097076 Eh     101.01 kcal/mol
Thermal vibrational correction   ...      0.00539237 Eh       3.38 kcal/mol
Thermal rotational correction    ...      0.00141627 Eh       0.89 kcal/mol
Thermal translational correction ...      0.00141627 Eh       0.89 kcal/mol
-----------------------------------------------------------------------
Total thermal energy                   -343.04147478 Eh

Summary of corrections to the electronic energy:
(perhaps to be used in another calculation)
Total thermal correction                  0.00822491 Eh       5.16 kcal/mol
Non-thermal (ZPE) correction              0.16097076 Eh     101.01 kcal/mol
-----------------------------------------------------------------------
Total correction                          0.16919567 Eh     106.17 kcal/mol

--------
ENTHALPY
--------

The enthalpy is H = U + kB*T
                kB is Boltzmann's constant
Total free energy                 ...   -343.04147478 Eh
Thermal Enthalpy correction       ...      0.00094421 Eh       0.59 kcal/mol
-----------------------------------------------------------------------
Total Enthalpy                    ...   -343.04053057 Eh

-------
ENTROPY
-------

The entropy contributions are T*S = T*(S(el)+S(vib)+S(rot)+S(trans)
     S(el)   - electronic entropy
     S(vib)  - vibrational entropy
     S(rot)  - rotational entropy
     S(trans)- translational entropy
The entropies will be listed as mutliplied by the temperature to get
units of energy

Electronic entropy                ...      0.00000000 Eh      0.00 kcal/mol
Vibrational entropy               ...      0.00976362 Eh      6.13 kcal/mol
Rotational entropy                ...      0.01227942 Eh      7.71 kcal/mol
Translational entropy             ...      0.01891510 Eh     11.87 kcal/mol
-----------------------------------------------------------------------
Final entropy term                ...      0.04095813 Eh     25.70 kcal/mol

CAUTION: The rotational entropy is not quite correctly treated here
         because it includes a symmetry number that is not yet correctly
         implemented in ORCA!
For a nonlinear molecule the correct rotational entropy is:
    S(rot) = R*(ln(qrot/sn)+1.5)
    R    = 8.31441 J/mol/K = 1.987191683e-3 kcal/mol/K
    qrot = 297740.6498683
    sn is the rotational symmetry number. We have assumed 3 here
       if it is different for your molecule then you should correct
       the printed rotational entropy by manually evaluating the equation
       as given above

For convenience we print out the resulting values for sn=1 - 12:
 sn= 1  qrot/sn=  297740.6499 T*S(rot)=     8.36 kcal/mol T*S(tot)=    26.35 kcal/mol
 sn= 2  qrot/sn=  148870.3249 T*S(rot)=     7.95 kcal/mol T*S(tot)=    25.94 kcal/mol
 sn= 3  qrot/sn=   99246.8833 T*S(rot)=     7.71 kcal/mol T*S(tot)=    25.70 kcal/mol
 sn= 4  qrot/sn=   74435.1625 T*S(rot)=     7.53 kcal/mol T*S(tot)=    25.53 kcal/mol
 sn= 5  qrot/sn=   59548.1300 T*S(rot)=     7.40 kcal/mol T*S(tot)=    25.40 kcal/mol
 sn= 6  qrot/sn=   49623.4416 T*S(rot)=     7.29 kcal/mol T*S(tot)=    25.29 kcal/mol
 sn= 7  qrot/sn=   42534.3786 T*S(rot)=     7.20 kcal/mol T*S(tot)=    25.20 kcal/mol
 sn= 8  qrot/sn=   37217.5812 T*S(rot)=     7.12 kcal/mol T*S(tot)=    25.12 kcal/mol
 sn= 9  qrot/sn=   33082.2944 T*S(rot)=     7.05 kcal/mol T*S(tot)=    25.05 kcal/mol
 sn=10  qrot/sn=   29774.0650 T*S(rot)=     6.99 kcal/mol T*S(tot)=    24.99 kcal/mol
 sn=11  qrot/sn=   27067.3318 T*S(rot)=     6.94 kcal/mol T*S(tot)=    24.93 kcal/mol
 sn=12  qrot/sn=   24811.7208 T*S(rot)=     6.88 kcal/mol T*S(tot)=    24.88 kcal/mol

-------------------
GIBBS FREE ENTHALPY
-------------------

The Gibbs free enthalpy is G = H - T*S

Total enthalpy                    ...   -343.04053057 Eh
Total entropy correction          ...     -0.04095813 Eh    -25.70 kcal/mol
-----------------------------------------------------------------------
Final Gibbs free enthalpy         ...   -343.08148871 Eh

For completeness - the Gibbs free enthalpy minus the electronic energy
G-E(el)                           ...      0.12918175 Eh     81.06 kcal/mol

                             ****ORCA TERMINATED NORMALLY****
TOTAL RUN TIME: 0 days 0 hours 38 minutes 2 seconds 858 msec
