                         Program Version 3.0.3 - RELEASE   -
|  1> ! NORI PBE0 def2-TZVP UseSym TightOPT Freq TightSCF Grid3 FinalGrid5 XYZFile
|  2> % pal
|  3>     nprocs 8
|  4> end
|  5> %method
|  6>     SymThresh 5.0e-2
|  7> end
|  8> % geom
|  9>     MaxIter 10
| 10> end
| 11> % maxcore 2000
| 12> % output
| 13>     printlevel mini
| 14>     print[ P_Basis ] 0
| 15>     print[ P_SCFInfo ] 1
| 16>     print[ P_SCFIterInfo ] 1
| 17>     print[ P_OrbEn ] 0
| 18>     print[ P_Cartesian ] 0
| 19> end
| 20> % elprop
| 21>     Dipole false
| 22> end
| 23> *xyz 1 1
| 24>  C        3.6231529325    -0.6056494909    -2.1193990825
| 25>  O        3.1490427504    -0.6903624268    -0.7758097412
| 26>  N        4.1516597927    -0.9209582801     0.0830184057
| 27>  C        3.8142348308    -1.0180435682     1.2997411718
| 28>  C        4.9088999831    -1.2600363500     2.2998102856
| 29>  C        4.6453084452    -2.4319322178     3.2220877549
| 30>  N        6.1698715663    -1.4735533027     1.4983721902
| 31>  H        2.7365963513    -0.4099640277    -2.7179415085
| 32>  H        4.0771041479    -1.5499233889    -2.4255927262
| 33>  H        4.3324090657     0.2173727833    -2.2240303687
| 34>  H        2.7875446517    -0.9205642849     1.6459580546
| 35>  H        5.0669418260    -0.3514771945     2.8891814691
| 36>  H        4.5068910769    -3.3572089314     2.6566725410
| 37>  H        3.7307117531    -2.2490733071     3.7878165420
| 38>  H        5.4558827610    -2.5630153756     3.9420716327
| 39>  H        5.9197012712    -1.1810909086     0.5248322711
| 40>  H        6.4293610470    -2.4598745021     1.4772265300
| 41>  H        6.9614857472    -0.9379252259     1.8494845783
| 42> *
| 43>
| 44>                          ****END OF INPUT****
 Total Charge           Charge          ....    1
 Multiplicity           Mult            ....    1
 Number of Electrons    NEL             ....   56
FINAL SINGLE POINT ENERGY      -343.204376052227

CARTESIAN COORDINATES (ANGSTROEM)
---------------------------------
  C      1.066178    0.583354    2.776163
  O     -0.000505    0.000844    2.027693
  N      0.266466    0.000635    0.714433
  C     -0.635388   -0.494935   -0.023678
  C     -0.371942   -0.530316   -1.502305
  C     -1.487214    0.065758   -2.335583
  N      0.923568    0.214155   -1.716717
  H      0.746880    0.521951    3.813923
  H      1.207826    1.627609    2.492003
  H      1.987244    0.015201    2.635670
  H     -1.568217   -0.900924    0.361684
  H     -0.189067   -1.564077   -1.811531
  H     -1.673817    1.107151   -2.060572
  H     -2.407618   -0.493048   -2.161259
  H     -1.263580    0.005254   -3.402540
  H      1.324856    0.333769   -0.757122
  H      0.754858    1.140810   -2.108665
  H      1.572372   -0.281349   -2.325378

FINAL SINGLE POINT ENERGY      -343.204376689174
                    ***********************HURRAY********************
 Multiplicity           Mult            ....    1
 Number of Electrons    NEL             ....   56
 Basis Dimension        Dim             ....  283
FINAL SINGLE POINT ENERGY      -343.204376879115

VIBRATIONAL FREQUENCIES
-----------------------

   0:         0.00 cm**-1
   1:         0.00 cm**-1
   2:         0.00 cm**-1
   3:         0.00 cm**-1
   4:         0.00 cm**-1
   5:         0.00 cm**-1
   6:        55.63 cm**-1
   7:       107.88 cm**-1
   8:       146.07 cm**-1
   9:       161.91 cm**-1
  10:       209.80 cm**-1
  11:       258.41 cm**-1
  12:       289.59 cm**-1
  13:       350.57 cm**-1
  14:       381.87 cm**-1
  15:       462.73 cm**-1
  16:       539.29 cm**-1
  17:       641.13 cm**-1
  18:       827.94 cm**-1
  19:       934.32 cm**-1
  20:       961.88 cm**-1
  21:       988.14 cm**-1
  22:      1006.56 cm**-1
  23:      1018.28 cm**-1
  24:      1116.92 cm**-1
  25:      1144.81 cm**-1
  26:      1166.08 cm**-1
  27:      1171.52 cm**-1
  28:      1213.38 cm**-1
  29:      1221.55 cm**-1
  30:      1319.56 cm**-1
  31:      1369.47 cm**-1
  32:      1384.17 cm**-1
  33:      1417.73 cm**-1
  34:      1459.65 cm**-1
  35:      1468.58 cm**-1
  36:      1479.35 cm**-1
  37:      1484.91 cm**-1
  38:      1491.04 cm**-1
  39:      1493.15 cm**-1
  40:      1623.73 cm**-1
  41:      1657.40 cm**-1
  42:      1725.77 cm**-1
  43:      3058.45 cm**-1
  44:      3060.58 cm**-1
  45:      3071.59 cm**-1
  46:      3077.61 cm**-1
  47:      3142.20 cm**-1
  48:      3146.14 cm**-1
  49:      3154.30 cm**-1
  50:      3172.31 cm**-1
  51:      3189.11 cm**-1
  52:      3479.70 cm**-1
  53:      3546.95 cm**-1

IR SPECTRUM
-----------

 Mode    freq (cm**-1)   T**2         TX         TY         TZ
-------------------------------------------------------------------
   6:        55.63    0.391178  (  0.068487   0.400605  -0.475397)
   7:       107.88    3.504386  ( -0.698401   1.485919  -0.899259)
   8:       146.07    8.683725  (  0.659906  -1.265371   2.578195)
   9:       161.91    9.407866  ( -0.417516   2.024661   2.265898)
  10:       209.80    1.581145  (  0.923612  -0.844983  -0.118702)
  11:       258.41    0.290916  (  0.479440   0.084858   0.232062)
  12:       289.59    8.027163  ( -0.513103   2.435898   1.352881)
  13:       350.57    5.339578  (  2.042874  -0.775636  -0.751421)
  14:       381.87   72.056119  ( -1.882889  -0.843174   8.234070)
  15:       462.73    5.436176  (  1.945514  -0.193277  -1.270352)
  16:       539.29   14.160393  (  1.567238   1.488270   3.080456)
  17:       641.13    1.717404  ( -1.079778   0.550699  -0.498210)
  18:       827.94    3.335526  (  1.648180  -0.502754   0.605199)
  19:       934.32   19.291917  (  2.015561  -3.728260   1.153043)
  20:       961.88    2.208468  ( -1.482628  -0.009508  -0.100953)
  21:       988.14    2.777658  ( -1.052408  -0.050139  -1.291349)
  22:      1006.56    4.650497  ( -0.312037  -1.090138   1.834319)
  23:      1018.28   20.595232  ( -1.666511  -1.570711   3.918015)
  24:      1116.92   61.788502  ( -2.158220  -2.568870  -7.108551)
  25:      1144.81   22.357953  ( -0.501662   1.706020   4.381299)
  26:      1166.08  243.216477  (  8.917337   3.856107  12.199509)
  27:      1171.52    1.063989  (  0.570866  -0.834096   0.205875)
  28:      1213.38   27.578437  ( -0.653789   0.198768  -5.206869)
  29:      1221.55    7.589704  ( -0.611715  -2.658900  -0.381781)
  30:      1319.56    1.692937  ( -0.904916  -0.037721  -0.934152)
  31:      1369.47    3.500159  (  1.350174  -0.358408   1.244480)
  32:      1384.17    9.922003  ( -1.457770  -1.724166  -2.196397)
  33:      1417.73   23.172696  ( -4.748666   0.438602   0.656121)
  34:      1459.65   92.309809  ( -7.256763  -3.508091   5.229005)
  35:      1468.58  132.304054  (  8.589023   4.106193  -6.455379)
  36:      1479.35   14.295432  (  1.680431  -3.379014   0.232055)
  37:      1484.91   11.424467  ( -0.915561   1.889132   2.649037)
  38:      1491.04    7.737347  ( -1.228953  -2.232182   1.115520)
  39:      1493.15   20.645326  (  1.302594   1.262206   4.165982)
  40:      1623.73   25.883432  ( -0.384441   4.816645  -1.592346)
  41:      1657.40   24.164496  ( -1.510201   2.694480   3.824077)
  42:      1725.77   15.961033  (  0.898165   0.617751   3.843529)
  43:      3058.45    0.819096  (  0.190437   0.760694  -0.451858)
  44:      3060.58   26.899772  ( -4.062107  -2.311537  -2.248523)
  45:      3071.59  273.134205  ( -0.276055  -0.007654 -16.524465)
  46:      3077.61   42.969175  (  0.202760  -0.710824   6.513278)
  47:      3142.20    3.278735  (  0.092703  -1.042782  -1.477412)
  48:      3146.14   15.705193  ( -1.706149   3.555250  -0.392999)
  49:      3154.30    2.308271  ( -0.234378   0.271600  -1.476337)
  50:      3172.31    1.576238  (  1.146836   0.497334  -0.116893)
  51:      3189.11    1.267953  (  0.984856   0.391125  -0.380832)
  52:      3479.70   92.295685  ( -3.106578  -3.902987   8.210454)
  53:      3546.95  100.038419  ( -5.970237   7.453570   2.973043)

--------------------------
THERMOCHEMISTRY AT 298.15K
--------------------------

Temperature         ... 298.15 K
Pressure            ... 1.00 atm
Total Mass          ... 103.14 AMU

Throughout the following assumptions are being made:
  (1) The electronic state is orbitally nondegenerate
  (2) There are no thermally accessible electronically excited states
  (3) Hindered rotations indicated by low frequency modes) are not
      treated as such but are treated as vibrations and this may
      case some error
  (4) All equations used are the standard statistical mechanics
      equations for an ideal gas
  (5) All vibrations are strinctly harmonic

------------
INNER ENERGY
------------

The inner energy is: U= E(el) + E(ZPE) + E(vib) + E(rot) + E(trans)
    E(el)   - is the total energy from the electronic structure calculation
              = E(kin-el) + E(nuc-el) + E(el-el) + E(nuc-nuc)
    E(ZPE)  - the the zero temperature vibrational energy from the frequency calculation
    E(vib)  - the the finite temperature correction to E(ZPE) due to population
              of excietd vibrational states
    E(rot)  - is the rotational thermal energy
    E(trans)- is the translational thermal energy

Summary of contributions to the inner energy U:
Electronic energy                ...   -343.20437688 Eh
Zero point energy                ...      0.16140757 Eh     101.28 kcal/mol
Thermal vibrational correction   ...      0.00600247 Eh       3.77 kcal/mol
Thermal rotational correction    ...      0.00141627 Eh       0.89 kcal/mol
Thermal translational correction ...      0.00141627 Eh       0.89 kcal/mol
-----------------------------------------------------------------------
Total thermal energy                   -343.03413429 Eh

Summary of corrections to the electronic energy:
(perhaps to be used in another calculation)
Total thermal correction                  0.00883502 Eh       5.54 kcal/mol
Non-thermal (ZPE) correction              0.16140757 Eh     101.28 kcal/mol
-----------------------------------------------------------------------
Total correction                          0.17024259 Eh     106.83 kcal/mol

--------
ENTHALPY
--------

The enthalpy is H = U + kB*T
                kB is Boltzmann's constant
Total free energy                 ...   -343.03413429 Eh
Thermal Enthalpy correction       ...      0.00094421 Eh       0.59 kcal/mol
-----------------------------------------------------------------------
Total Enthalpy                    ...   -343.03319008 Eh

-------
ENTROPY
-------

The entropy contributions are T*S = T*(S(el)+S(vib)+S(rot)+S(trans)
     S(el)   - electronic entropy
     S(vib)  - vibrational entropy
     S(rot)  - rotational entropy
     S(trans)- translational entropy
The entropies will be listed as mutliplied by the temperature to get
units of energy

Electronic entropy                ...      0.00000000 Eh      0.00 kcal/mol
Vibrational entropy               ...      0.01112388 Eh      6.98 kcal/mol
Rotational entropy                ...      0.01224755 Eh      7.69 kcal/mol
Translational entropy             ...      0.01891510 Eh     11.87 kcal/mol
-----------------------------------------------------------------------
Final entropy term                ...      0.04228653 Eh     26.54 kcal/mol

CAUTION: The rotational entropy is not quite correctly treated here
         because it includes a symmetry number that is not yet correctly
         implemented in ORCA!
For a nonlinear molecule the correct rotational entropy is:
    S(rot) = R*(ln(qrot/sn)+1.5)
    R    = 8.31441 J/mol/K = 1.987191683e-3 kcal/mol/K
    qrot = 287859.8327771
    sn is the rotational symmetry number. We have assumed 3 here
       if it is different for your molecule then you should correct
       the printed rotational entropy by manually evaluating the equation
       as given above

For convenience we print out the resulting values for sn=1 - 12:
 sn= 1  qrot/sn=  287859.8328 T*S(rot)=     8.34 kcal/mol T*S(tot)=    27.19 kcal/mol
 sn= 2  qrot/sn=  143929.9164 T*S(rot)=     7.93 kcal/mol T*S(tot)=    26.78 kcal/mol
 sn= 3  qrot/sn=   95953.2776 T*S(rot)=     7.69 kcal/mol T*S(tot)=    26.54 kcal/mol
 sn= 4  qrot/sn=   71964.9582 T*S(rot)=     7.51 kcal/mol T*S(tot)=    26.36 kcal/mol
 sn= 5  qrot/sn=   57571.9666 T*S(rot)=     7.38 kcal/mol T*S(tot)=    26.23 kcal/mol
 sn= 6  qrot/sn=   47976.6388 T*S(rot)=     7.27 kcal/mol T*S(tot)=    26.12 kcal/mol
 sn= 7  qrot/sn=   41122.8333 T*S(rot)=     7.18 kcal/mol T*S(tot)=    26.03 kcal/mol
 sn= 8  qrot/sn=   35982.4791 T*S(rot)=     7.10 kcal/mol T*S(tot)=    25.95 kcal/mol
 sn= 9  qrot/sn=   31984.4259 T*S(rot)=     7.03 kcal/mol T*S(tot)=    25.88 kcal/mol
 sn=10  qrot/sn=   28785.9833 T*S(rot)=     6.97 kcal/mol T*S(tot)=    25.82 kcal/mol
 sn=11  qrot/sn=   26169.0757 T*S(rot)=     6.92 kcal/mol T*S(tot)=    25.77 kcal/mol
 sn=12  qrot/sn=   23988.3194 T*S(rot)=     6.86 kcal/mol T*S(tot)=    25.71 kcal/mol

-------------------
GIBBS FREE ENTHALPY
-------------------

The Gibbs free enthalpy is G = H - T*S

Total enthalpy                    ...   -343.03319008 Eh
Total entropy correction          ...     -0.04228653 Eh    -26.54 kcal/mol
-----------------------------------------------------------------------
Final Gibbs free enthalpy         ...   -343.07547661 Eh

For completeness - the Gibbs free enthalpy minus the electronic energy
G-E(el)                           ...      0.12890027 Eh     80.89 kcal/mol

                             ****ORCA TERMINATED NORMALLY****
TOTAL RUN TIME: 0 days 0 hours 35 minutes 19 seconds 129 msec
