                         Program Version 3.0.3 - RELEASE   -
|  1> ! NORI PBE0 def2-TZVP UseSym TightOPT Freq TightSCF Grid3 FinalGrid5 XYZFile
|  2> % pal
|  3>     nprocs 8
|  4> end
|  5> %method
|  6>     SymThresh 5.0e-2
|  7> end
|  8> % geom
|  9>     MaxIter 10
| 10> end
| 11> % maxcore 2000
| 12> % output
| 13>     printlevel mini
| 14>     print[ P_Basis ] 0
| 15>     print[ P_SCFInfo ] 1
| 16>     print[ P_SCFIterInfo ] 1
| 17>     print[ P_OrbEn ] 0
| 18>     print[ P_Cartesian ] 0
| 19> end
| 20> % elprop
| 21>     Dipole false
| 22> end
| 23> *xyz 1 1
| 24>  N        1.4376421912    -0.1340312101    -0.6719430375
| 25>  C        2.7877626934     0.1891130772    -0.1501718770
| 26>  C        3.5830480074    -0.8973269618     0.4981449745
| 27>  C        4.0292476234    -0.3084962593    -0.8116282107
| 28>  O        4.9786372669     0.6899673953    -0.7630572280
| 29>  C        4.3296439443     1.9424869138    -0.5537844586
| 30>  C        3.0472524405     1.6319527670     0.2344165085
| 31>  H        1.1693366371     0.4963990829    -1.4329644637
| 32>  H        0.7287402221    -0.0581799009     0.0641414968
| 33>  H        1.3993608484    -1.0899572587    -1.0332405953
| 34>  H        4.1303458237    -0.6429648216     1.3974732372
| 35>  H        3.1991444449    -1.9124556049     0.4652028462
| 36>  H        4.0309167252    -0.9308346704    -1.7029192910
| 37>  H        4.0931539018     2.4003140166    -1.5214286723
| 38>  H        5.0191394372     2.5927067622    -0.0175127255
| 39>  H        2.2262207240     2.2937968500    -0.0560400684
| 40>  H        3.1874770686     1.7348698227     1.3119215649
| 41> *
| 42>
| 43>                          ****END OF INPUT****
 Total Charge           Charge          ....    1
 Multiplicity           Mult            ....    1
 Number of Electrons    NEL             ....   54
FINAL SINGLE POINT ENERGY      -325.974630074589

CARTESIAN COORDINATES (ANGSTROEM)
---------------------------------
  N      0.903415    0.000033   -1.890859
  C      0.043469   -0.151128   -0.692121
  C     -0.352921   -1.527495   -0.265070
  C      0.568312   -0.703047    0.591100
  O      0.000175   -0.000090    1.632103
  C     -0.478845    1.251625    1.144616
  C     -0.843172    1.023830   -0.331029
  H      1.449121    0.865732   -1.853740
  H      0.342819    0.017856   -2.748331
  H      1.561800   -0.777992   -1.974556
  H     -1.376517   -1.671240    0.058625
  H      0.092315   -2.377697   -0.772959
  H      1.595919   -1.027113    0.733768
  H      0.307740    2.008996    1.240832
  H     -1.327872    1.548268    1.758029
  H     -0.630317    1.907422   -0.939191
  H     -1.898094    0.778640   -0.464660

FINAL SINGLE POINT ENERGY      -325.974630601096
                    ***********************HURRAY********************
 Multiplicity           Mult            ....    1
 Number of Electrons    NEL             ....   54
 Basis Dimension        Dim             ....  277
FINAL SINGLE POINT ENERGY      -325.974630717934

VIBRATIONAL FREQUENCIES
-----------------------

   0:         0.00 cm**-1
   1:         0.00 cm**-1
   2:         0.00 cm**-1
   3:         0.00 cm**-1
   4:         0.00 cm**-1
   5:         0.00 cm**-1
   6:       127.15 cm**-1
   7:       193.67 cm**-1
   8:       216.67 cm**-1
   9:       322.00 cm**-1
  10:       362.03 cm**-1
  11:       446.65 cm**-1
  12:       571.21 cm**-1
  13:       637.78 cm**-1
  14:       756.39 cm**-1
  15:       836.06 cm**-1
  16:       848.78 cm**-1
  17:       889.86 cm**-1
  18:       951.70 cm**-1
  19:       958.40 cm**-1
  20:       985.51 cm**-1
  21:      1017.78 cm**-1
  22:      1029.29 cm**-1
  23:      1054.11 cm**-1
  24:      1071.30 cm**-1
  25:      1106.78 cm**-1
  26:      1174.81 cm**-1
  27:      1190.67 cm**-1
  28:      1216.15 cm**-1
  29:      1247.02 cm**-1
  30:      1278.72 cm**-1
  31:      1304.40 cm**-1
  32:      1339.74 cm**-1
  33:      1392.68 cm**-1
  34:      1411.21 cm**-1
  35:      1467.66 cm**-1
  36:      1487.93 cm**-1
  37:      1516.52 cm**-1
  38:      1519.40 cm**-1
  39:      1647.84 cm**-1
  40:      1657.42 cm**-1
  41:      3043.43 cm**-1
  42:      3076.32 cm**-1
  43:      3127.14 cm**-1
  44:      3142.48 cm**-1
  45:      3157.25 cm**-1
  46:      3163.67 cm**-1
  47:      3242.05 cm**-1
  48:      3398.09 cm**-1
  49:      3471.17 cm**-1
  50:      3492.48 cm**-1

IR SPECTRUM
-----------

 Mode    freq (cm**-1)   T**2         TX         TY         TZ
-------------------------------------------------------------------
   6:       127.15    4.728112  ( -1.557118  -1.251563  -0.858537)
   7:       193.67    0.072634  ( -0.057851   0.260104   0.040412)
   8:       216.67    0.869574  (  0.063099  -0.289591  -0.884155)
   9:       322.00    5.922404  ( -1.238830   0.788334  -1.940679)
  10:       362.03    7.415614  ( -0.230649   1.646603   2.156644)
  11:       446.65    3.353332  (  1.700618   0.622599  -0.271297)
  12:       571.21    4.187525  ( -1.989095   0.336789   0.342929)
  13:       637.78    2.096633  ( -0.042016  -0.473796  -1.367620)
  14:       756.39    5.297777  ( -0.537471  -1.624745   1.539189)
  15:       836.06    8.573886  ( -0.051861   1.603386  -2.449561)
  16:       848.78    8.932305  ( -0.763182   1.181696  -2.636940)
  17:       889.86   13.553673  ( -1.999146   1.818931  -2.499716)
  18:       951.70   16.268733  ( -0.412299   3.260421   2.338460)
  19:       958.40    6.185001  (  0.705751  -0.952648   2.186179)
  20:       985.51    1.991202  ( -0.171823   0.006323  -1.400585)
  21:      1017.78    1.220234  ( -0.731192  -0.640295   0.524991)
  22:      1029.29    1.726421  ( -0.425868   0.888291   0.869481)
  23:      1054.11   48.754973  (  1.958588  -6.027809   2.929919)
  24:      1071.30    4.289632  ( -0.057173   1.327159  -1.589028)
  25:      1106.78   15.367476  (  1.283629   0.543814   3.663883)
  26:      1174.81   14.913218  ( -3.150380   1.094355   1.946975)
  27:      1190.67   45.370387  (  0.544663  -5.971380  -3.068607)
  28:      1216.15   41.565629  ( -1.557503   5.787378   2.376145)
  29:      1247.02    0.020848  (  0.069059   0.112229   0.059019)
  30:      1278.72   30.344061  (  1.868152  -2.713330  -4.414964)
  31:      1304.40    3.606415  ( -0.056284  -0.303108  -1.873866)
  32:      1339.74    8.237612  (  0.398049  -0.792876  -2.729563)
  33:      1392.68    1.335458  (  0.592425  -0.966536  -0.224274)
  34:      1411.21    4.985897  (  1.351798  -0.885594  -1.540864)
  35:      1467.66   19.414769  ( -1.550826  -4.048321   0.787912)
  36:      1487.93   29.648335  (  5.279649   0.896023  -0.985285)
  37:      1516.52   90.594532  (  4.544350  -1.260050  -8.267750)
  38:      1519.40   24.199278  ( -2.834526  -1.473443   3.740816)
  39:      1647.84   39.356974  ( -5.492454  -0.209300  -3.024255)
  40:      1657.42   40.316076  ( -0.872096   6.251128   0.692044)
  41:      3043.43   31.780435  ( -1.836672  -5.106469  -1.526777)
  42:      3076.32    8.738101  (  0.345698  -1.857129   2.273690)
  43:      3127.14    3.115613  ( -1.134585  -1.350357   0.069767)
  44:      3142.48    1.398839  (  0.887254   0.454684  -0.636303)
  45:      3157.25    5.044432  ( -1.990102   0.521666   0.900994)
  46:      3163.67    5.985922  ( -1.783040   0.781122   1.482072)
  47:      3242.05    1.023257  ( -0.943354  -0.330680   0.154893)
  48:      3398.09   31.613810  ( -2.032523  -1.187058   5.106227)
  49:      3471.17   83.999193  (  7.147554   3.212461   4.753079)
  50:      3492.48   79.834069  (  3.974512  -8.002275  -0.030212)

--------------------------
THERMOCHEMISTRY AT 298.15K
--------------------------

Temperature         ... 298.15 K
Pressure            ... 1.00 atm
Total Mass          ... 100.14 AMU

Throughout the following assumptions are being made:
  (1) The electronic state is orbitally nondegenerate
  (2) There are no thermally accessible electronically excited states
  (3) Hindered rotations indicated by low frequency modes) are not
      treated as such but are treated as vibrations and this may
      case some error
  (4) All equations used are the standard statistical mechanics
      equations for an ideal gas
  (5) All vibrations are strinctly harmonic

------------
INNER ENERGY
------------

The inner energy is: U= E(el) + E(ZPE) + E(vib) + E(rot) + E(trans)
    E(el)   - is the total energy from the electronic structure calculation
              = E(kin-el) + E(nuc-el) + E(el-el) + E(nuc-nuc)
    E(ZPE)  - the the zero temperature vibrational energy from the frequency calculation
    E(vib)  - the the finite temperature correction to E(ZPE) due to population
              of excietd vibrational states
    E(rot)  - is the rotational thermal energy
    E(trans)- is the translational thermal energy

Summary of contributions to the inner energy U:
Electronic energy                ...   -325.97463072 Eh
Zero point energy                ...      0.15388877 Eh      96.57 kcal/mol
Thermal vibrational correction   ...      0.00381114 Eh       2.39 kcal/mol
Thermal rotational correction    ...      0.00141627 Eh       0.89 kcal/mol
Thermal translational correction ...      0.00141627 Eh       0.89 kcal/mol
-----------------------------------------------------------------------
Total thermal energy                   -325.81409827 Eh

Summary of corrections to the electronic energy:
(perhaps to be used in another calculation)
Total thermal correction                  0.00664369 Eh       4.17 kcal/mol
Non-thermal (ZPE) correction              0.15388877 Eh      96.57 kcal/mol
-----------------------------------------------------------------------
Total correction                          0.16053245 Eh     100.74 kcal/mol

--------
ENTHALPY
--------

The enthalpy is H = U + kB*T
                kB is Boltzmann's constant
Total free energy                 ...   -325.81409827 Eh
Thermal Enthalpy correction       ...      0.00094421 Eh       0.59 kcal/mol
-----------------------------------------------------------------------
Total Enthalpy                    ...   -325.81315406 Eh

-------
ENTROPY
-------

The entropy contributions are T*S = T*(S(el)+S(vib)+S(rot)+S(trans)
     S(el)   - electronic entropy
     S(vib)  - vibrational entropy
     S(rot)  - rotational entropy
     S(trans)- translational entropy
The entropies will be listed as mutliplied by the temperature to get
units of energy

Electronic entropy                ...      0.00000000 Eh      0.00 kcal/mol
Vibrational entropy               ...      0.00620394 Eh      3.89 kcal/mol
Rotational entropy                ...      0.01177991 Eh      7.39 kcal/mol
Translational entropy             ...      0.01887324 Eh     11.84 kcal/mol
-----------------------------------------------------------------------
Final entropy term                ...      0.03685709 Eh     23.13 kcal/mol

CAUTION: The rotational entropy is not quite correctly treated here
         because it includes a symmetry number that is not yet correctly
         implemented in ORCA!
For a nonlinear molecule the correct rotational entropy is:
    S(rot) = R*(ln(qrot/sn)+1.5)
    R    = 8.31441 J/mol/K = 1.987191683e-3 kcal/mol/K
    qrot = 175420.6815396
    sn is the rotational symmetry number. We have assumed 3 here
       if it is different for your molecule then you should correct
       the printed rotational entropy by manually evaluating the equation
       as given above

For convenience we print out the resulting values for sn=1 - 12:
 sn= 1  qrot/sn=  175420.6815 T*S(rot)=     8.04 kcal/mol T*S(tot)=    23.78 kcal/mol
 sn= 2  qrot/sn=   87710.3408 T*S(rot)=     7.63 kcal/mol T*S(tot)=    23.37 kcal/mol
 sn= 3  qrot/sn=   58473.5605 T*S(rot)=     7.39 kcal/mol T*S(tot)=    23.13 kcal/mol
 sn= 4  qrot/sn=   43855.1704 T*S(rot)=     7.22 kcal/mol T*S(tot)=    22.96 kcal/mol
 sn= 5  qrot/sn=   35084.1363 T*S(rot)=     7.09 kcal/mol T*S(tot)=    22.83 kcal/mol
 sn= 6  qrot/sn=   29236.7803 T*S(rot)=     6.98 kcal/mol T*S(tot)=    22.72 kcal/mol
 sn= 7  qrot/sn=   25060.0974 T*S(rot)=     6.89 kcal/mol T*S(tot)=    22.63 kcal/mol
 sn= 8  qrot/sn=   21927.5852 T*S(rot)=     6.81 kcal/mol T*S(tot)=    22.55 kcal/mol
 sn= 9  qrot/sn=   19491.1868 T*S(rot)=     6.74 kcal/mol T*S(tot)=    22.48 kcal/mol
 sn=10  qrot/sn=   17542.0682 T*S(rot)=     6.68 kcal/mol T*S(tot)=    22.41 kcal/mol
 sn=11  qrot/sn=   15947.3347 T*S(rot)=     6.62 kcal/mol T*S(tot)=    22.36 kcal/mol
 sn=12  qrot/sn=   14618.3901 T*S(rot)=     6.57 kcal/mol T*S(tot)=    22.31 kcal/mol

-------------------
GIBBS FREE ENTHALPY
-------------------

The Gibbs free enthalpy is G = H - T*S

Total enthalpy                    ...   -325.81315406 Eh
Total entropy correction          ...     -0.03685709 Eh    -23.13 kcal/mol
-----------------------------------------------------------------------
Final Gibbs free enthalpy         ...   -325.85001115 Eh

For completeness - the Gibbs free enthalpy minus the electronic energy
G-E(el)                           ...      0.12461957 Eh     78.20 kcal/mol

                             ****ORCA TERMINATED NORMALLY****
TOTAL RUN TIME: 0 days 0 hours 39 minutes 9 seconds 101 msec
