                         Program Version 3.0.3 - RELEASE   -
|  1> ! NORI PBE0 def2-TZVP UseSym TightOPT Freq TightSCF Grid3 FinalGrid5 XYZFile
|  2> % pal
|  3>     nprocs 8
|  4> end
|  5> %method
|  6>     SymThresh 5.0e-2
|  7> end
|  8> % geom
|  9>     MaxIter 10
| 10> end
| 11> % maxcore 2000
| 12> % output
| 13>     printlevel mini
| 14>     print[ P_Basis ] 0
| 15>     print[ P_SCFInfo ] 1
| 16>     print[ P_SCFIterInfo ] 1
| 17>     print[ P_OrbEn ] 0
| 18>     print[ P_Cartesian ] 0
| 19> end
| 20> % elprop
| 21>     Dipole false
| 22> end
| 23> *xyz 1 1
| 24>  N        1.6646302206    -0.4103300176    -0.7743496437
| 25>  C        2.9571711230    -0.1017284058    -0.1273262544
| 26>  C        3.7802647608    -1.1970987689     0.4488778966
| 27>  C        4.2669826238    -0.4413478559    -0.7574368830
| 28>  C        5.1324757781     0.7696978350    -0.4933492080
| 29>  O        4.4928639388     1.4433732129     0.5811909034
| 30>  C        3.1088962778     1.2884146120     0.4563325304
| 31>  H        1.4135830325     0.3067348181    -1.4620127665
| 32>  H        0.9062064422    -0.4647686611    -0.0876536335
| 33>  H        1.6995101469    -1.3091636236    -1.2603263982
| 34>  H        4.2382181202    -1.0137898593     1.4138878904
| 35>  H        3.4651503870    -2.2210155465     0.2790801501
| 36>  H        4.3405188549    -0.9610285151    -1.7058902005
| 37>  H        5.1833960509     1.4034694475    -1.3876460810
| 38>  H        6.1453046316     0.5272613851    -0.1716323208
| 39>  H        2.6618155690     1.4185302768     1.4445618926
| 40>  H        2.6673320417     2.0302696663    -0.2327978738
| 41> *
| 42>
| 43>                          ****END OF INPUT****
 Total Charge           Charge          ....    1
 Multiplicity           Mult            ....    1
 Number of Electrons    NEL             ....   54
FINAL SINGLE POINT ENERGY      -325.980545366579

CARTESIAN COORDINATES (ANGSTROEM)
---------------------------------
  N      1.187833    0.000017   -1.767009
  C      0.336648    0.217330   -0.578408
  C     -0.940324    0.967631   -0.705710
  C     -0.956700   -0.500906   -0.379540
  C     -0.956753   -0.868388    1.087149
  O      0.000267   -0.000280    1.677273
  C      1.036738    0.221981    0.765535
  H      1.774955   -0.832549   -1.655755
  H      1.806491    0.799205   -1.934991
  H      0.621985   -0.128166   -2.608776
  H     -1.167351    1.689245    0.070471
  H     -1.278621    1.242555   -1.698932
  H     -1.356956   -1.194594   -1.109985
  H     -0.673255   -1.920495    1.215927
  H     -1.909674   -0.693585    1.586566
  H      1.519940    1.167167    1.024063
  H      1.793949   -0.581967    0.791782

FINAL SINGLE POINT ENERGY      -325.980545735476
                    ***********************HURRAY********************
 Multiplicity           Mult            ....    1
 Number of Electrons    NEL             ....   54
 Basis Dimension        Dim             ....  277
FINAL SINGLE POINT ENERGY      -325.980545869344

VIBRATIONAL FREQUENCIES
-----------------------

   0:         0.00 cm**-1
   1:         0.00 cm**-1
   2:         0.00 cm**-1
   3:         0.00 cm**-1
   4:         0.00 cm**-1
   5:         0.00 cm**-1
   6:       187.04 cm**-1
   7:       217.73 cm**-1
   8:       254.22 cm**-1
   9:       313.92 cm**-1
  10:       368.22 cm**-1
  11:       413.34 cm**-1
  12:       553.86 cm**-1
  13:       682.60 cm**-1
  14:       723.10 cm**-1
  15:       840.13 cm**-1
  16:       907.05 cm**-1
  17:       911.18 cm**-1
  18:       946.68 cm**-1
  19:       967.10 cm**-1
  20:       989.14 cm**-1
  21:      1031.98 cm**-1
  22:      1064.90 cm**-1
  23:      1089.22 cm**-1
  24:      1098.78 cm**-1
  25:      1119.28 cm**-1
  26:      1157.31 cm**-1
  27:      1186.36 cm**-1
  28:      1234.91 cm**-1
  29:      1242.36 cm**-1
  30:      1274.88 cm**-1
  31:      1329.46 cm**-1
  32:      1372.50 cm**-1
  33:      1382.62 cm**-1
  34:      1418.60 cm**-1
  35:      1486.59 cm**-1
  36:      1501.52 cm**-1
  37:      1511.97 cm**-1
  38:      1522.83 cm**-1
  39:      1645.66 cm**-1
  40:      1659.54 cm**-1
  41:      2956.53 cm**-1
  42:      3038.04 cm**-1
  43:      3106.87 cm**-1
  44:      3141.34 cm**-1
  45:      3148.49 cm**-1
  46:      3198.62 cm**-1
  47:      3239.67 cm**-1
  48:      3397.61 cm**-1
  49:      3466.02 cm**-1
  50:      3493.79 cm**-1

IR SPECTRUM
-----------

 Mode    freq (cm**-1)   T**2         TX         TY         TZ
-------------------------------------------------------------------
   6:       187.04    0.210139  (  0.267757  -0.371872   0.012495)
   7:       217.73    1.657415  (  0.614838   1.130220   0.044638)
   8:       254.22    8.547650  ( -1.110866   2.668327  -0.440069)
   9:       313.92    7.071946  ( -1.648896   0.449420  -2.037427)
  10:       368.22    5.785039  (  0.891842   1.633416  -1.523683)
  11:       413.34    1.999077  ( -0.216160  -1.207097   0.703753)
  12:       553.86    6.128302  (  0.465144  -0.729257  -2.319510)
  13:       682.60    4.409789  (  0.229031  -0.081864  -2.085817)
  14:       723.10    3.805285  ( -0.569536  -0.155386   1.859239)
  15:       840.13    7.815412  ( -1.948807   0.033830  -2.004100)
  16:       907.05    5.954175  ( -1.802982  -0.985214  -1.316353)
  17:       911.18   13.360925  ( -1.721728   0.987759  -3.069350)
  18:       946.68   13.455525  ( -0.176652  -0.882392  -3.556080)
  19:       967.10   16.740600  (  2.607563   1.761423   2.615073)
  20:       989.14   19.112384  ( -4.358539   0.331844   0.073483)
  21:      1031.98    7.210767  (  0.238246  -2.656100  -0.314866)
  22:      1064.90    4.711205  (  0.975925  -0.870956  -1.732112)
  23:      1089.22    9.004921  ( -2.528562  -0.138492   1.610005)
  24:      1098.78   14.001453  (  2.628781   2.641351  -0.337976)
  25:      1119.28    2.739197  (  0.027027  -1.354599  -0.950541)
  26:      1157.31   54.799712  ( -5.923614  -4.036673   1.848183)
  27:      1186.36   11.264835  ( -3.157895   0.705991  -0.891129)
  28:      1234.91   10.337698  (  1.923445   1.405923  -2.159036)
  29:      1242.36    8.702455  (  2.565543   1.424907   0.300136)
  30:      1274.88    4.413028  (  0.078039  -2.046744   0.466665)
  31:      1329.46    2.778404  ( -0.140615  -0.573776   1.558657)
  32:      1372.50    8.198775  (  1.184371   1.166191  -2.331531)
  33:      1382.62    0.732822  ( -0.425281   0.408435  -0.620596)
  34:      1418.60    4.362115  (  0.093133  -2.055075   0.360706)
  35:      1486.59   34.420481  ( -4.055475   2.853438   3.135521)
  36:      1501.52   15.624856  ( -0.991009   1.166667   3.644399)
  37:      1511.97   44.703840  ( -2.996139  -0.143156   5.975492)
  38:      1522.83   52.832953  (  3.570755  -1.238688  -6.208729)
  39:      1645.66   38.832558  (  1.860260   5.843185   1.108684)
  40:      1659.54   43.644408  (  4.584136  -2.013739   4.309868)
  41:      2956.53   53.403823  (  6.690919  -2.649180  -1.271717)
  42:      3038.04   29.541203  (  1.165012   5.213408  -1.002159)
  43:      3106.87    6.263074  (  1.501745   1.993317   0.185806)
  44:      3141.34    2.451028  ( -1.472933   0.359744   0.389976)
  45:      3148.49    2.540043  ( -0.801215   0.433517   1.307731)
  46:      3198.62    0.604190  ( -0.524739   0.080068   0.567827)
  47:      3239.67    0.805751  (  0.172798   0.417169   0.775798)
  48:      3397.61   34.499635  ( -4.555731   0.473760   3.677023)
  49:      3466.02   85.468616  ( -0.902383  -9.047231   1.673898)
  50:      3493.79   85.464858  (  6.289012   0.903641   6.715402)

--------------------------
THERMOCHEMISTRY AT 298.15K
--------------------------

Temperature         ... 298.15 K
Pressure            ... 1.00 atm
Total Mass          ... 100.14 AMU

Throughout the following assumptions are being made:
  (1) The electronic state is orbitally nondegenerate
  (2) There are no thermally accessible electronically excited states
  (3) Hindered rotations indicated by low frequency modes) are not
      treated as such but are treated as vibrations and this may
      case some error
  (4) All equations used are the standard statistical mechanics
      equations for an ideal gas
  (5) All vibrations are strinctly harmonic

------------
INNER ENERGY
------------

The inner energy is: U= E(el) + E(ZPE) + E(vib) + E(rot) + E(trans)
    E(el)   - is the total energy from the electronic structure calculation
              = E(kin-el) + E(nuc-el) + E(el-el) + E(nuc-nuc)
    E(ZPE)  - the the zero temperature vibrational energy from the frequency calculation
    E(vib)  - the the finite temperature correction to E(ZPE) due to population
              of excietd vibrational states
    E(rot)  - is the rotational thermal energy
    E(trans)- is the translational thermal energy

Summary of contributions to the inner energy U:
Electronic energy                ...   -325.98054587 Eh
Zero point energy                ...      0.15444504 Eh      96.92 kcal/mol
Thermal vibrational correction   ...      0.00361655 Eh       2.27 kcal/mol
Thermal rotational correction    ...      0.00141627 Eh       0.89 kcal/mol
Thermal translational correction ...      0.00141627 Eh       0.89 kcal/mol
-----------------------------------------------------------------------
Total thermal energy                   -325.81965175 Eh

Summary of corrections to the electronic energy:
(perhaps to be used in another calculation)
Total thermal correction                  0.00644909 Eh       4.05 kcal/mol
Non-thermal (ZPE) correction              0.15444504 Eh      96.92 kcal/mol
-----------------------------------------------------------------------
Total correction                          0.16089412 Eh     100.96 kcal/mol

--------
ENTHALPY
--------

The enthalpy is H = U + kB*T
                kB is Boltzmann's constant
Total free energy                 ...   -325.81965175 Eh
Thermal Enthalpy correction       ...      0.00094421 Eh       0.59 kcal/mol
-----------------------------------------------------------------------
Total Enthalpy                    ...   -325.81870754 Eh

-------
ENTROPY
-------

The entropy contributions are T*S = T*(S(el)+S(vib)+S(rot)+S(trans)
     S(el)   - electronic entropy
     S(vib)  - vibrational entropy
     S(rot)  - rotational entropy
     S(trans)- translational entropy
The entropies will be listed as mutliplied by the temperature to get
units of energy

Electronic entropy                ...      0.00000000 Eh      0.00 kcal/mol
Vibrational entropy               ...      0.00563620 Eh      3.54 kcal/mol
Rotational entropy                ...      0.01176192 Eh      7.38 kcal/mol
Translational entropy             ...      0.01887324 Eh     11.84 kcal/mol
-----------------------------------------------------------------------
Final entropy term                ...      0.03627136 Eh     22.76 kcal/mol

CAUTION: The rotational entropy is not quite correctly treated here
         because it includes a symmetry number that is not yet correctly
         implemented in ORCA!
For a nonlinear molecule the correct rotational entropy is:
    S(rot) = R*(ln(qrot/sn)+1.5)
    R    = 8.31441 J/mol/K = 1.987191683e-3 kcal/mol/K
    qrot = 172109.8277943
    sn is the rotational symmetry number. We have assumed 3 here
       if it is different for your molecule then you should correct
       the printed rotational entropy by manually evaluating the equation
       as given above

For convenience we print out the resulting values for sn=1 - 12:
 sn= 1  qrot/sn=  172109.8278 T*S(rot)=     8.03 kcal/mol T*S(tot)=    23.41 kcal/mol
 sn= 2  qrot/sn=   86054.9139 T*S(rot)=     7.62 kcal/mol T*S(tot)=    23.00 kcal/mol
 sn= 3  qrot/sn=   57369.9426 T*S(rot)=     7.38 kcal/mol T*S(tot)=    22.76 kcal/mol
 sn= 4  qrot/sn=   43027.4569 T*S(rot)=     7.21 kcal/mol T*S(tot)=    22.59 kcal/mol
 sn= 5  qrot/sn=   34421.9656 T*S(rot)=     7.08 kcal/mol T*S(tot)=    22.46 kcal/mol
 sn= 6  qrot/sn=   28684.9713 T*S(rot)=     6.97 kcal/mol T*S(tot)=    22.35 kcal/mol
 sn= 7  qrot/sn=   24587.1183 T*S(rot)=     6.88 kcal/mol T*S(tot)=    22.26 kcal/mol
 sn= 8  qrot/sn=   21513.7285 T*S(rot)=     6.80 kcal/mol T*S(tot)=    22.18 kcal/mol
 sn= 9  qrot/sn=   19123.3142 T*S(rot)=     6.73 kcal/mol T*S(tot)=    22.11 kcal/mol
 sn=10  qrot/sn=   17210.9828 T*S(rot)=     6.67 kcal/mol T*S(tot)=    22.05 kcal/mol
 sn=11  qrot/sn=   15646.3480 T*S(rot)=     6.61 kcal/mol T*S(tot)=    21.99 kcal/mol
 sn=12  qrot/sn=   14342.4856 T*S(rot)=     6.56 kcal/mol T*S(tot)=    21.94 kcal/mol

-------------------
GIBBS FREE ENTHALPY
-------------------

The Gibbs free enthalpy is G = H - T*S

Total enthalpy                    ...   -325.81870754 Eh
Total entropy correction          ...     -0.03627136 Eh    -22.76 kcal/mol
-----------------------------------------------------------------------
Final Gibbs free enthalpy         ...   -325.85497890 Eh

For completeness - the Gibbs free enthalpy minus the electronic energy
G-E(el)                           ...      0.12556697 Eh     78.79 kcal/mol

                             ****ORCA TERMINATED NORMALLY****
TOTAL RUN TIME: 0 days 0 hours 39 minutes 49 seconds 506 msec
