                         Program Version 3.0.3 - RELEASE   -
|  1> ! NORI PBE0 def2-TZVP UseSym TightOPT Freq TightSCF Grid3 FinalGrid5 XYZFile
|  2> % pal
|  3>     nprocs 8
|  4> end
|  5> %method
|  6>     SymThresh 5.0e-2
|  7> end
|  8> % geom
|  9>     MaxIter 10
| 10> end
| 11> % maxcore 2000
| 12> % output
| 13>     printlevel mini
| 14>     print[ P_Basis ] 0
| 15>     print[ P_SCFInfo ] 1
| 16>     print[ P_SCFIterInfo ] 1
| 17>     print[ P_OrbEn ] 0
| 18>     print[ P_Cartesian ] 0
| 19> end
| 20> % elprop
| 21>     Dipole false
| 22> end
| 23> *xyz 1 1
| 24>  N        0.9428979194    -0.1872980738    -0.2035422957
| 25>  C        2.4199987417    -0.0028115438    -0.0924637288
| 26>  C        3.3948002094    -0.5659644628    -1.1358575717
| 27>  C        4.3571349167    -0.2248824241     0.0243341333
| 28>  C        3.2512729069    -0.6935436094     0.9969999540
| 29>  O        4.2920467914     1.1977386258     0.1049286795
| 30>  C        2.8958195117     1.4453141059     0.0264963013
| 31>  H        0.5698640972     0.2934958261    -1.0269751482
| 32>  H        0.4593860843     0.1831705953     0.6194775390
| 33>  H        0.7028704402    -1.1776179260    -0.2857518482
| 34>  H        3.5241005832    -0.0239052312    -2.0719439901
| 35>  H        3.2928065796    -1.6395164199    -1.2925593526
| 36>  H        5.3822480612    -0.5747215417     0.0729245562
| 37>  H        3.1391404844    -1.7777039995     1.0099958952
| 38>  H        3.2499033876    -0.2683831433     2.0002020060
| 39>  H        2.5379866659     1.9491606330     0.9313026422
| 40>  H        2.6575026192     2.0569385896    -0.8509977715
| 41> *
| 42>
| 43>                          ****END OF INPUT****
 Total Charge           Charge          ....    1
 Multiplicity           Mult            ....    1
 Number of Electrons    NEL             ....   54
FINAL SINGLE POINT ENERGY      -325.970644855820

CARTESIAN COORDINATES (ANGSTROEM)
---------------------------------
  N     -1.829377   -1.075608   -0.000000
  C     -0.570512   -0.273452   -0.000000
  C     -0.275872    0.786124    1.070578
  C      0.782415    1.135645    0.000000
  C     -0.275872    0.786124   -1.070578
  O      1.645538   -0.000043   -0.000000
  C      0.726601   -1.083133   -0.000000
  H     -1.886425   -1.676608    0.826922
  H     -1.886425   -1.676608   -0.826922
  H     -2.651052   -0.467285    0.000000
  H      0.083956    0.455415    2.044340
  H     -1.051288    1.547281    1.155452
  H      1.349116    2.059937    0.000000
  H     -1.051288    1.547281   -1.155452
  H      0.083956    0.455415   -2.044340
  H      0.854438   -1.702439   -0.894616
  H      0.854438   -1.702439    0.894616

FINAL SINGLE POINT ENERGY      -325.970645164093
                    ***********************HURRAY********************
 Multiplicity           Mult            ....    1
 Number of Electrons    NEL             ....   54
 Basis Dimension        Dim             ....  277
FINAL SINGLE POINT ENERGY      -325.970645219001

VIBRATIONAL FREQUENCIES
-----------------------

   0:         0.00 cm**-1
   1:         0.00 cm**-1
   2:         0.00 cm**-1
   3:         0.00 cm**-1
   4:         0.00 cm**-1
   5:         0.00 cm**-1
   6:       198.38 cm**-1
   7:       276.02 cm**-1
   8:       298.65 cm**-1
   9:       374.07 cm**-1
  10:       469.66 cm**-1
  11:       521.49 cm**-1
  12:       572.17 cm**-1
  13:       661.16 cm**-1
  14:       826.66 cm**-1
  15:       869.21 cm**-1
  16:       890.95 cm**-1
  17:       927.63 cm**-1
  18:       953.88 cm**-1
  19:       964.21 cm**-1
  20:       964.29 cm**-1
  21:      1016.07 cm**-1
  22:      1037.56 cm**-1
  23:      1066.08 cm**-1
  24:      1076.76 cm**-1
  25:      1124.19 cm**-1
  26:      1132.21 cm**-1
  27:      1187.17 cm**-1
  28:      1187.80 cm**-1
  29:      1226.37 cm**-1
  30:      1255.15 cm**-1
  31:      1292.29 cm**-1
  32:      1305.57 cm**-1
  33:      1324.71 cm**-1
  34:      1379.23 cm**-1
  35:      1466.02 cm**-1
  36:      1495.47 cm**-1
  37:      1501.14 cm**-1
  38:      1530.47 cm**-1
  39:      1651.26 cm**-1
  40:      1652.78 cm**-1
  41:      3040.43 cm**-1
  42:      3087.98 cm**-1
  43:      3098.21 cm**-1
  44:      3104.23 cm**-1
  45:      3174.07 cm**-1
  46:      3177.99 cm**-1
  47:      3210.75 cm**-1
  48:      3406.82 cm**-1
  49:      3484.44 cm**-1
  50:      3497.17 cm**-1

IR SPECTRUM
-----------

 Mode    freq (cm**-1)   T**2         TX         TY         TZ
-------------------------------------------------------------------
   6:       198.38    0.130829  (  0.000001  -0.000001   0.361703)
   7:       276.02    0.774274  ( -0.000007   0.000002  -0.879928)
   8:       298.65    5.833087  (  2.135138  -1.128838   0.000008)
   9:       374.07   10.783944  ( -0.000011   0.000005   3.283892)
  10:       469.66    1.313336  ( -0.000014   0.000002  -1.146009)
  11:       521.49    0.263906  (  0.178550  -0.481690   0.000001)
  12:       572.17    5.859903  (  2.103543   1.197919   0.000001)
  13:       661.16    0.495339  ( -0.682264   0.172784  -0.000005)
  14:       826.66    8.015501  (  0.000005  -0.000004   2.831166)
  15:       869.21   12.179357  (  3.359088   0.946513  -0.000003)
  16:       890.95    1.201443  ( -0.000006   0.000001   1.096104)
  17:       927.63   18.945435  ( -3.448764   2.655459   0.000000)
  18:       953.88    7.389601  ( -0.425744  -2.684836  -0.000021)
  19:       964.21    8.292718  (  0.001191  -0.000574   2.879708)
  20:       964.29   28.747775  (  4.866229  -2.251131  -0.000708)
  21:      1016.07    0.006625  (  0.000005   0.000002   0.081391)
  22:      1037.56   18.063860  (  1.781745  -3.858658   0.000004)
  23:      1066.08    9.593058  ( -0.000003   0.000012   3.097266)
  24:      1076.76   26.736771  ( -0.533884  -5.143125   0.000004)
  25:      1124.19    1.235994  (  0.000003   0.000011   1.111753)
  26:      1132.21   44.891864  ( -0.872791  -6.643049   0.000000)
  27:      1187.17   24.465772  (  4.946043  -0.049316   0.000030)
  28:      1187.80    0.665536  ( -0.000171  -0.000000   0.815804)
  29:      1226.37    1.106267  ( -0.000005  -0.000001   1.051792)
  30:      1255.15   45.097034  (  5.778874   3.420768  -0.000001)
  31:      1292.29   19.225226  ( -3.829999  -2.134557  -0.000002)
  32:      1305.57    1.552720  (  0.000004   0.000001  -1.246082)
  33:      1324.71    4.585494  ( -2.124161   0.270987  -0.000005)
  34:      1379.23    3.427386  ( -1.137450  -1.460682  -0.000004)
  35:      1466.02   11.133877  ( -0.000038  -0.000016   3.336746)
  36:      1495.47   72.149714  (  6.290184   5.708178   0.000010)
  37:      1501.14   61.982756  (  7.522806   2.321670  -0.000005)
  38:      1530.47    9.333689  (  2.620416   1.570703   0.000014)
  39:      1651.26   43.342318  ( -4.019551   5.213974  -0.000003)
  40:      1652.78   43.935552  ( -0.000002   0.000003   6.628390)
  41:      3040.43   27.514641  ( -0.519495  -5.219652   0.000012)
  42:      3087.98    9.851580  ( -0.000000   0.000000   3.138723)
  43:      3098.21    4.369397  (  0.000001  -0.000000   2.090310)
  44:      3104.23    1.485059  (  1.172862  -0.330837  -0.000000)
  45:      3174.07    3.534439  (  0.000001   0.000000  -1.880010)
  46:      3177.99    3.165028  (  1.414946  -1.078404   0.000000)
  47:      3210.75    0.573251  ( -0.137915   0.744467   0.000000)
  48:      3406.82   46.814816  ( -5.187437  -4.461537  -0.000000)
  49:      3484.44   88.237697  ( -0.000000   0.000000  -9.393492)
  50:      3497.17   89.616979  (  5.914728  -7.391412  -0.000000)

--------------------------
THERMOCHEMISTRY AT 298.15K
--------------------------

Temperature         ... 298.15 K
Pressure            ... 1.00 atm
Total Mass          ... 100.14 AMU

Throughout the following assumptions are being made:
  (1) The electronic state is orbitally nondegenerate
  (2) There are no thermally accessible electronically excited states
  (3) Hindered rotations indicated by low frequency modes) are not
      treated as such but are treated as vibrations and this may
      case some error
  (4) All equations used are the standard statistical mechanics
      equations for an ideal gas
  (5) All vibrations are strinctly harmonic

------------
INNER ENERGY
------------

The inner energy is: U= E(el) + E(ZPE) + E(vib) + E(rot) + E(trans)
    E(el)   - is the total energy from the electronic structure calculation
              = E(kin-el) + E(nuc-el) + E(el-el) + E(nuc-nuc)
    E(ZPE)  - the the zero temperature vibrational energy from the frequency calculation
    E(vib)  - the the finite temperature correction to E(ZPE) due to population
              of excietd vibrational states
    E(rot)  - is the rotational thermal energy
    E(trans)- is the translational thermal energy

Summary of contributions to the inner energy U:
Electronic energy                ...   -325.97064522 Eh
Zero point energy                ...      0.15482155 Eh      97.15 kcal/mol
Thermal vibrational correction   ...      0.00319441 Eh       2.00 kcal/mol
Thermal rotational correction    ...      0.00141627 Eh       0.89 kcal/mol
Thermal translational correction ...      0.00141627 Eh       0.89 kcal/mol
-----------------------------------------------------------------------
Total thermal energy                   -325.80979671 Eh

Summary of corrections to the electronic energy:
(perhaps to be used in another calculation)
Total thermal correction                  0.00602695 Eh       3.78 kcal/mol
Non-thermal (ZPE) correction              0.15482155 Eh      97.15 kcal/mol
-----------------------------------------------------------------------
Total correction                          0.16084851 Eh     100.93 kcal/mol

--------
ENTHALPY
--------

The enthalpy is H = U + kB*T
                kB is Boltzmann's constant
Total free energy                 ...   -325.80979671 Eh
Thermal Enthalpy correction       ...      0.00094421 Eh       0.59 kcal/mol
-----------------------------------------------------------------------
Total Enthalpy                    ...   -325.80885250 Eh

-------
ENTROPY
-------

The entropy contributions are T*S = T*(S(el)+S(vib)+S(rot)+S(trans)
     S(el)   - electronic entropy
     S(vib)  - vibrational entropy
     S(rot)  - rotational entropy
     S(trans)- translational entropy
The entropies will be listed as mutliplied by the temperature to get
units of energy

Electronic entropy                ...      0.00000000 Eh      0.00 kcal/mol
Vibrational entropy               ...      0.00478616 Eh      3.00 kcal/mol
Rotational entropy                ...      0.01168689 Eh      7.33 kcal/mol
Translational entropy             ...      0.01887324 Eh     11.84 kcal/mol
-----------------------------------------------------------------------
Final entropy term                ...      0.03534629 Eh     22.18 kcal/mol

CAUTION: The rotational entropy is not quite correctly treated here
         because it includes a symmetry number that is not yet correctly
         implemented in ORCA!
For a nonlinear molecule the correct rotational entropy is:
    S(rot) = R*(ln(qrot/sn)+1.5)
    R    = 8.31441 J/mol/K = 1.987191683e-3 kcal/mol/K
    qrot = 158961.5818572
    sn is the rotational symmetry number. We have assumed 3 here
       if it is different for your molecule then you should correct
       the printed rotational entropy by manually evaluating the equation
       as given above

For convenience we print out the resulting values for sn=1 - 12:
 sn= 1  qrot/sn=  158961.5819 T*S(rot)=     7.98 kcal/mol T*S(tot)=    22.83 kcal/mol
 sn= 2  qrot/sn=   79480.7909 T*S(rot)=     7.57 kcal/mol T*S(tot)=    22.42 kcal/mol
 sn= 3  qrot/sn=   52987.1940 T*S(rot)=     7.33 kcal/mol T*S(tot)=    22.18 kcal/mol
 sn= 4  qrot/sn=   39740.3955 T*S(rot)=     7.16 kcal/mol T*S(tot)=    22.01 kcal/mol
 sn= 5  qrot/sn=   31792.3164 T*S(rot)=     7.03 kcal/mol T*S(tot)=    21.88 kcal/mol
 sn= 6  qrot/sn=   26493.5970 T*S(rot)=     6.92 kcal/mol T*S(tot)=    21.77 kcal/mol
 sn= 7  qrot/sn=   22708.7974 T*S(rot)=     6.83 kcal/mol T*S(tot)=    21.68 kcal/mol
 sn= 8  qrot/sn=   19870.1977 T*S(rot)=     6.75 kcal/mol T*S(tot)=    21.60 kcal/mol
 sn= 9  qrot/sn=   17662.3980 T*S(rot)=     6.68 kcal/mol T*S(tot)=    21.53 kcal/mol
 sn=10  qrot/sn=   15896.1582 T*S(rot)=     6.62 kcal/mol T*S(tot)=    21.47 kcal/mol
 sn=11  qrot/sn=   14451.0529 T*S(rot)=     6.56 kcal/mol T*S(tot)=    21.41 kcal/mol
 sn=12  qrot/sn=   13246.7985 T*S(rot)=     6.51 kcal/mol T*S(tot)=    21.36 kcal/mol

-------------------
GIBBS FREE ENTHALPY
-------------------

The Gibbs free enthalpy is G = H - T*S

Total enthalpy                    ...   -325.80885250 Eh
Total entropy correction          ...     -0.03534629 Eh    -22.18 kcal/mol
-----------------------------------------------------------------------
Final Gibbs free enthalpy         ...   -325.84419879 Eh

For completeness - the Gibbs free enthalpy minus the electronic energy
G-E(el)                           ...      0.12644643 Eh     79.35 kcal/mol

                             ****ORCA TERMINATED NORMALLY****
TOTAL RUN TIME: 0 days 0 hours 41 minutes 29 seconds 252 msec
