                         Program Version 3.0.3 - RELEASE   -
|  1> ! NORI PBE0 def2-TZVP UseSym TightOPT Freq TightSCF Grid3 FinalGrid5 XYZFile
|  2> % pal
|  3>     nprocs 8
|  4> end
|  5> %method
|  6>     SymThresh 5.0e-2
|  7> end
|  8> % geom
|  9>     MaxIter 10
| 10> end
| 11> % maxcore 2000
| 12> % output
| 13>     printlevel mini
| 14>     print[ P_Basis ] 0
| 15>     print[ P_SCFInfo ] 1
| 16>     print[ P_SCFIterInfo ] 1
| 17>     print[ P_OrbEn ] 0
| 18>     print[ P_Cartesian ] 0
| 19> end
| 20> % elprop
| 21>     Dipole false
| 22> end
| 23> *xyz 1 1
| 24>  N        1.1326395656     0.1054265870     0.1029315391
| 25>  C        2.6241450920     0.1017410325     0.1657386000
| 26>  C        3.1750529284    -0.8783892440    -0.8830165201
| 27>  C        4.6812506272    -0.6798340306    -0.7923375446
| 28>  C        4.6850786528     0.8691363249    -0.7959493478
| 29>  C        3.1798944133     1.0746709955    -0.8871786150
| 30>  O        2.7653872161     0.0969687005    -1.8899832340
| 31>  H        0.7189444359    -0.7195981045     0.5406900426
| 32>  H        0.9048449239     0.1036955286    -0.9030926546
| 33>  H        0.7232644056     0.9347266314     0.5366791860
| 34>  H        2.9565676596     0.1030573940     1.2033568635
| 35>  H        2.7682355699    -1.8782558279    -1.0325340533
| 36>  H        5.1756113969    -1.1122016859    -1.6605164173
| 37>  H        5.1103478278    -1.1199687594     0.1087155453
| 38>  H        5.1167954175     1.3114587290     0.1027725758
| 39>  H        5.1811442122     1.2948579700    -1.6664541451
| 40>  H        2.7775556553     2.0756877589    -1.0410318207
| 41> *
| 42>
| 43>                          ****END OF INPUT****
 Total Charge           Charge          ....    1
 Multiplicity           Mult            ....    1
 Number of Electrons    NEL             ....   54
FINAL SINGLE POINT ENERGY      -325.980500053090

CARTESIAN COORDINATES (ANGSTROEM)
---------------------------------
  N     -0.211839   -2.133658    0.000000
  C     -0.697866   -0.721858   -0.000000
  C      0.151585    0.108118    0.976558
  C     -0.365142    1.525419    0.774527
  C     -0.365142    1.525419   -0.774527
  C      0.151585    0.108118   -0.976558
  O      1.232355    0.000202   -0.000000
  H     -0.511931   -2.652358    0.827194
  H      0.817389   -2.064530   -0.000000
  H     -0.511931   -2.652358   -0.827194
  H     -1.786990   -0.699096   -0.000000
  H      0.412355   -0.236388    1.976990
  H      0.326838    2.248003    1.203369
  H     -1.350304    1.681231    1.215733
  H     -1.350304    1.681231   -1.215733
  H      0.326838    2.248003   -1.203369
  H      0.412355   -0.236388   -1.976990

FINAL SINGLE POINT ENERGY      -325.980500454656
                    ***********************HURRAY********************
 Multiplicity           Mult            ....    1
 Number of Electrons    NEL             ....   54
 Basis Dimension        Dim             ....  277
FINAL SINGLE POINT ENERGY      -325.980500570634

VIBRATIONAL FREQUENCIES
-----------------------

   0:         0.00 cm**-1
   1:         0.00 cm**-1
   2:         0.00 cm**-1
   3:         0.00 cm**-1
   4:         0.00 cm**-1
   5:         0.00 cm**-1
   6:       253.32 cm**-1
   7:       280.30 cm**-1
   8:       307.60 cm**-1
   9:       332.28 cm**-1
  10:       449.76 cm**-1
  11:       601.33 cm**-1
  12:       705.09 cm**-1
  13:       804.02 cm**-1
  14:       821.25 cm**-1
  15:       847.40 cm**-1
  16:       893.03 cm**-1
  17:       918.55 cm**-1
  18:       945.06 cm**-1
  19:       964.51 cm**-1
  20:       981.63 cm**-1
  21:      1010.60 cm**-1
  22:      1021.71 cm**-1
  23:      1045.64 cm**-1
  24:      1078.03 cm**-1
  25:      1105.93 cm**-1
  26:      1160.70 cm**-1
  27:      1196.84 cm**-1
  28:      1249.65 cm**-1
  29:      1251.62 cm**-1
  30:      1260.13 cm**-1
  31:      1275.82 cm**-1
  32:      1315.86 cm**-1
  33:      1323.34 cm**-1
  34:      1328.64 cm**-1
  35:      1410.24 cm**-1
  36:      1462.56 cm**-1
  37:      1474.51 cm**-1
  38:      1496.56 cm**-1
  39:      1650.13 cm**-1
  40:      1665.63 cm**-1
  41:      3104.12 cm**-1
  42:      3109.43 cm**-1
  43:      3142.80 cm**-1
  44:      3144.72 cm**-1
  45:      3151.83 cm**-1
  46:      3159.11 cm**-1
  47:      3171.79 cm**-1
  48:      3332.16 cm**-1
  49:      3468.27 cm**-1
  50:      3513.41 cm**-1

IR SPECTRUM
-----------

 Mode    freq (cm**-1)   T**2         TX         TY         TZ
-------------------------------------------------------------------
   6:       253.32   26.581028  (  3.262013   3.992530  -0.000037)
   7:       280.30    3.867785  ( -0.000070  -0.000127  -1.966668)
   8:       307.60    5.058961  (  0.000012   0.000002  -2.249213)
   9:       332.28    1.081560  (  0.000007  -0.000011   1.039981)
  10:       449.76   36.669130  ( -0.389752   6.042948  -0.000010)
  11:       601.33    2.880140  ( -0.017034  -1.697012   0.000002)
  12:       705.09    0.120480  ( -0.000004   0.000011  -0.347102)
  13:       804.02    6.299070  ( -2.330208  -0.932309  -0.000005)
  14:       821.25    8.570280  ( -0.000011  -0.000005   2.927504)
  15:       847.40   18.559600  ( -2.432175  -3.555858  -0.000002)
  16:       893.03   34.051911  ( -5.629627   1.535973  -0.000004)
  17:       918.55    6.289191  (  0.000008   0.000005   2.507826)
  18:       945.06    0.020948  (  0.140952   0.032868   0.000031)
  19:       964.51   25.047257  ( -0.000011  -0.000000   5.004723)
  20:       981.63   13.913140  ( -1.010830   3.590454  -0.000008)
  21:      1010.60    2.736018  (  0.000034   0.000016  -1.654091)
  22:      1021.71    6.244541  (  1.845362   1.684987   0.000026)
  23:      1045.64   10.595553  ( -0.505746  -3.215552  -0.000012)
  24:      1078.03   29.609355  ( -0.000003  -0.000013  -5.441448)
  25:      1105.93   15.232888  (  3.649971   1.382243  -0.000007)
  26:      1160.70    5.671461  ( -2.272462   0.712303  -0.000003)
  27:      1196.84    2.790184  (  0.000002   0.000003  -1.670384)
  28:      1249.65    9.336363  (  0.300413  -3.040743   0.000000)
  29:      1251.62    0.930734  (  0.000003   0.000002   0.964746)
  30:      1260.13    0.937857  (  0.000005   0.000010  -0.968430)
  31:      1275.82    0.374775  (  0.000017   0.000004   0.612188)
  32:      1315.86    5.284699  ( -2.269817   0.364182  -0.000015)
  33:      1323.34    6.024566  (  0.000014   0.000020  -2.454499)
  34:      1328.64    2.902304  (  0.941347   1.419919   0.000006)
  35:      1410.24    9.965515  ( -2.149804  -2.311679  -0.000001)
  36:      1462.56  194.006979  (  5.784810 -12.670555  -0.000003)
  37:      1474.51    4.661808  (  0.000045  -0.000146   2.159122)
  38:      1496.56   12.953378  (  1.035730  -3.446831  -0.000071)
  39:      1650.13   35.748402  ( -5.107193  -3.108855   0.000036)
  40:      1665.63   29.885168  ( -0.000028  -0.000016  -5.466733)
  41:      3104.12    4.404393  (  0.000247  -0.000167  -2.098665)
  42:      3109.43    3.622278  (  1.577300  -1.065084   0.000328)
  43:      3142.80    2.452936  ( -1.148746   1.064574   0.000009)
  44:      3144.72   15.122730  ( -0.000000   0.000006  -3.888796)
  45:      3151.83    3.939722  (  1.288617   1.509698   0.000006)
  46:      3159.11    0.158025  (  0.000066   0.000002  -0.397523)
  47:      3171.79    1.478763  ( -1.214559  -0.060078   0.000003)
  48:      3332.16   61.401826  ( -7.798118  -0.768888   0.000012)
  49:      3468.27  112.748339  ( -6.316748  -8.535047  -0.000145)
  50:      3513.41   93.682004  ( -0.000084  -0.000128   9.678946)

--------------------------
THERMOCHEMISTRY AT 298.15K
--------------------------

Temperature         ... 298.15 K
Pressure            ... 1.00 atm
Total Mass          ... 100.14 AMU

Throughout the following assumptions are being made:
  (1) The electronic state is orbitally nondegenerate
  (2) There are no thermally accessible electronically excited states
  (3) Hindered rotations indicated by low frequency modes) are not
      treated as such but are treated as vibrations and this may
      case some error
  (4) All equations used are the standard statistical mechanics
      equations for an ideal gas
  (5) All vibrations are strinctly harmonic

------------
INNER ENERGY
------------

The inner energy is: U= E(el) + E(ZPE) + E(vib) + E(rot) + E(trans)
    E(el)   - is the total energy from the electronic structure calculation
              = E(kin-el) + E(nuc-el) + E(el-el) + E(nuc-nuc)
    E(ZPE)  - the the zero temperature vibrational energy from the frequency calculation
    E(vib)  - the the finite temperature correction to E(ZPE) due to population
              of excietd vibrational states
    E(rot)  - is the rotational thermal energy
    E(trans)- is the translational thermal energy

Summary of contributions to the inner energy U:
Electronic energy                ...   -325.98050057 Eh
Zero point energy                ...      0.15534129 Eh      97.48 kcal/mol
Thermal vibrational correction   ...      0.00300200 Eh       1.88 kcal/mol
Thermal rotational correction    ...      0.00141627 Eh       0.89 kcal/mol
Thermal translational correction ...      0.00141627 Eh       0.89 kcal/mol
-----------------------------------------------------------------------
Total thermal energy                   -325.81932474 Eh

Summary of corrections to the electronic energy:
(perhaps to be used in another calculation)
Total thermal correction                  0.00583454 Eh       3.66 kcal/mol
Non-thermal (ZPE) correction              0.15534129 Eh      97.48 kcal/mol
-----------------------------------------------------------------------
Total correction                          0.16117583 Eh     101.14 kcal/mol

--------
ENTHALPY
--------

The enthalpy is H = U + kB*T
                kB is Boltzmann's constant
Total free energy                 ...   -325.81932474 Eh
Thermal Enthalpy correction       ...      0.00094421 Eh       0.59 kcal/mol
-----------------------------------------------------------------------
Total Enthalpy                    ...   -325.81838054 Eh

-------
ENTROPY
-------

The entropy contributions are T*S = T*(S(el)+S(vib)+S(rot)+S(trans)
     S(el)   - electronic entropy
     S(vib)  - vibrational entropy
     S(rot)  - rotational entropy
     S(trans)- translational entropy
The entropies will be listed as mutliplied by the temperature to get
units of energy

Electronic entropy                ...      0.00000000 Eh      0.00 kcal/mol
Vibrational entropy               ...      0.00442720 Eh      2.78 kcal/mol
Rotational entropy                ...      0.01166981 Eh      7.32 kcal/mol
Translational entropy             ...      0.01887324 Eh     11.84 kcal/mol
-----------------------------------------------------------------------
Final entropy term                ...      0.03497025 Eh     21.94 kcal/mol

CAUTION: The rotational entropy is not quite correctly treated here
         because it includes a symmetry number that is not yet correctly
         implemented in ORCA!
For a nonlinear molecule the correct rotational entropy is:
    S(rot) = R*(ln(qrot/sn)+1.5)
    R    = 8.31441 J/mol/K = 1.987191683e-3 kcal/mol/K
    qrot = 156111.8024508
    sn is the rotational symmetry number. We have assumed 3 here
       if it is different for your molecule then you should correct
       the printed rotational entropy by manually evaluating the equation
       as given above

For convenience we print out the resulting values for sn=1 - 12:
 sn= 1  qrot/sn=  156111.8025 T*S(rot)=     7.97 kcal/mol T*S(tot)=    22.60 kcal/mol
 sn= 2  qrot/sn=   78055.9012 T*S(rot)=     7.56 kcal/mol T*S(tot)=    22.18 kcal/mol
 sn= 3  qrot/sn=   52037.2675 T*S(rot)=     7.32 kcal/mol T*S(tot)=    21.94 kcal/mol
 sn= 4  qrot/sn=   39027.9506 T*S(rot)=     7.15 kcal/mol T*S(tot)=    21.77 kcal/mol
 sn= 5  qrot/sn=   31222.3605 T*S(rot)=     7.02 kcal/mol T*S(tot)=    21.64 kcal/mol
 sn= 6  qrot/sn=   26018.6337 T*S(rot)=     6.91 kcal/mol T*S(tot)=    21.53 kcal/mol
 sn= 7  qrot/sn=   22301.6861 T*S(rot)=     6.82 kcal/mol T*S(tot)=    21.44 kcal/mol
 sn= 8  qrot/sn=   19513.9753 T*S(rot)=     6.74 kcal/mol T*S(tot)=    21.36 kcal/mol
 sn= 9  qrot/sn=   17345.7558 T*S(rot)=     6.67 kcal/mol T*S(tot)=    21.29 kcal/mol
 sn=10  qrot/sn=   15611.1802 T*S(rot)=     6.61 kcal/mol T*S(tot)=    21.23 kcal/mol
 sn=11  qrot/sn=   14191.9820 T*S(rot)=     6.55 kcal/mol T*S(tot)=    21.17 kcal/mol
 sn=12  qrot/sn=   13009.3169 T*S(rot)=     6.50 kcal/mol T*S(tot)=    21.12 kcal/mol

-------------------
GIBBS FREE ENTHALPY
-------------------

The Gibbs free enthalpy is G = H - T*S

Total enthalpy                    ...   -325.81838054 Eh
Total entropy correction          ...     -0.03497025 Eh    -21.94 kcal/mol
-----------------------------------------------------------------------
Final Gibbs free enthalpy         ...   -325.85335078 Eh

For completeness - the Gibbs free enthalpy minus the electronic energy
G-E(el)                           ...      0.12714979 Eh     79.79 kcal/mol

                             ****ORCA TERMINATED NORMALLY****
TOTAL RUN TIME: 0 days 0 hours 40 minutes 24 seconds 531 msec
