                         Program Version 3.0.3 - RELEASE   -
|  1> ! NORI PBE0 def2-TZVP UseSym TightOPT Freq TightSCF Grid3 FinalGrid5 XYZFile
|  2> % pal
|  3>     nprocs 8
|  4> end
|  5> %method
|  6>     SymThresh 5.0e-2
|  7> end
|  8> % geom
|  9>     MaxIter 10
| 10> end
| 11> % maxcore 2000
| 12> % output
| 13>     printlevel mini
| 14>     print[ P_Basis ] 0
| 15>     print[ P_SCFInfo ] 1
| 16>     print[ P_SCFIterInfo ] 1
| 17>     print[ P_OrbEn ] 0
| 18>     print[ P_Cartesian ] 0
| 19> end
| 20> % elprop
| 21>     Dipole false
| 22> end
| 23> *xyz 1 1
| 24>  N        0.7079275642     0.0996840590    -0.2569854281
| 25>  C        2.1141486166     0.0398076574     0.1706225773
| 26>  C        3.0478799692    -0.9406687902    -0.4862458976
| 27>  C        2.5940089661    -1.7370047497    -1.7005381102
| 28>  C        2.6185682353    -0.6890075663    -2.8131923322
| 29>  O        2.4129037563     0.5708785947    -2.1382166663
| 30>  C        3.0614877494     0.4944739008    -0.9033184059
| 31>  H        0.2000539675     0.8372502628     0.2333520323
| 32>  H        0.2012448855    -0.7785442381    -0.1358511078
| 33>  H        0.7593843455     0.3450066759    -1.2689930617
| 34>  H        2.2612180873     0.3007596063     1.2095493615
| 35>  H        3.8154322347    -1.3453944959     0.1605336744
| 36>  H        3.2860663151    -2.5560333827    -1.8936770407
| 37>  H        1.6052927688    -2.1904405951    -1.5757014901
| 38>  H        3.5877880743    -0.6637585532    -3.3172750316
| 39>  H        1.8318542806    -0.7926890938    -3.5603728170
| 40>  H        3.8494601835     1.2134807079    -0.7183902563
| 41> *
| 42>
| 43>                          ****END OF INPUT****
 Total Charge           Charge          ....    1
 Multiplicity           Mult            ....    1
 Number of Electrons    NEL             ....   54
FINAL SINGLE POINT ENERGY      -325.985685171635

CARTESIAN COORDINATES (ANGSTROEM)
---------------------------------
  N      1.807714   -0.000012   -0.547413
  C      0.688781    0.922684   -0.794942
  C     -0.712707    0.382148   -0.885411
  C     -0.996805   -1.073895   -0.547977
  C     -0.894770   -1.087533    0.977418
  O     -0.000116   -0.000139    1.297098
  C     -0.243204    1.024831    0.379447
  H      2.692612    0.501827   -0.460833
  H      1.913666   -0.722416   -1.261077
  H      1.580080   -0.437219    0.371313
  H      0.964291    1.787895   -1.382070
  H     -1.361312    0.906183   -1.575026
  H     -1.991042   -1.354057   -0.894558
  H     -0.297066   -1.771481   -1.019660
  H     -1.863509   -0.894660    1.444635
  H     -0.470138   -1.996731    1.401911
  H     -0.571152    1.974899    0.781584

FINAL SINGLE POINT ENERGY      -325.985686011045
                    ***********************HURRAY********************
 Multiplicity           Mult            ....    1
 Number of Electrons    NEL             ....   54
 Basis Dimension        Dim             ....  277
FINAL SINGLE POINT ENERGY      -325.985686338958

VIBRATIONAL FREQUENCIES
-----------------------

   0:         0.00 cm**-1
   1:         0.00 cm**-1
   2:         0.00 cm**-1
   3:         0.00 cm**-1
   4:         0.00 cm**-1
   5:         0.00 cm**-1
   6:       167.07 cm**-1
   7:       209.65 cm**-1
   8:       317.60 cm**-1
   9:       330.44 cm**-1
  10:       468.26 cm**-1
  11:       611.69 cm**-1
  12:       637.84 cm**-1
  13:       725.37 cm**-1
  14:       790.12 cm**-1
  15:       804.82 cm**-1
  16:       865.44 cm**-1
  17:       919.15 cm**-1
  18:       959.73 cm**-1
  19:       984.55 cm**-1
  20:       995.71 cm**-1
  21:      1024.34 cm**-1
  22:      1035.14 cm**-1
  23:      1087.33 cm**-1
  24:      1113.01 cm**-1
  25:      1137.66 cm**-1
  26:      1149.50 cm**-1
  27:      1171.16 cm**-1
  28:      1215.51 cm**-1
  29:      1226.71 cm**-1
  30:      1255.74 cm**-1
  31:      1293.92 cm**-1
  32:      1325.21 cm**-1
  33:      1346.06 cm**-1
  34:      1385.50 cm**-1
  35:      1441.21 cm**-1
  36:      1462.08 cm**-1
  37:      1496.64 cm**-1
  38:      1518.37 cm**-1
  39:      1639.57 cm**-1
  40:      1666.58 cm**-1
  41:      3059.04 cm**-1
  42:      3082.83 cm**-1
  43:      3141.43 cm**-1
  44:      3155.11 cm**-1
  45:      3157.33 cm**-1
  46:      3214.37 cm**-1
  47:      3219.30 cm**-1
  48:      3229.78 cm**-1
  49:      3461.35 cm**-1
  50:      3515.80 cm**-1

IR SPECTRUM
-----------

 Mode    freq (cm**-1)   T**2         TX         TY         TZ
-------------------------------------------------------------------
   6:       167.07    7.905627  ( -1.559693  -2.029383   1.163867)
   7:       209.65    8.142750  (  0.953600   1.748675   2.043412)
   8:       317.60   57.023234  ( -5.988641   0.960092   4.498626)
   9:       330.44    6.507336  ( -2.085327  -0.080442   1.467064)
  10:       468.26    6.553717  ( -2.474883  -0.514808   0.404528)
  11:       611.69    9.820080  (  2.960920   0.214146  -1.003580)
  12:       637.84    6.859784  (  0.868882  -0.255411   2.457558)
  13:       725.37    3.355713  ( -1.028931  -1.510916  -0.118932)
  14:       790.12   10.811068  ( -1.276383  -0.889781   2.896585)
  15:       804.82   19.294379  (  4.103066   1.396872   0.712727)
  16:       865.44    8.847851  ( -1.487583  -1.715415  -1.921535)
  17:       919.15   15.890443  (  2.758029   1.654814   2.354848)
  18:       959.73    3.366600  ( -0.346953  -0.844931   1.591325)
  19:       984.55   20.716677  ( -3.277645  -2.495607  -1.935372)
  20:       995.71   29.034952  ( -2.594307  -0.439687   4.702255)
  21:      1024.34    9.091764  ( -1.254874  -1.288793   2.419931)
  22:      1035.14    2.174330  ( -0.936125  -0.581374   0.979798)
  23:      1087.33   22.967222  ( -2.797432  -1.548316   3.569918)
  24:      1113.01   42.283425  (  3.213041   4.635727  -3.235712)
  25:      1137.66   10.476494  (  2.440877   2.089849  -0.388773)
  26:      1149.50   26.033981  ( -1.099965   4.982032   0.058426)
  27:      1171.16    8.977445  (  0.892180   2.763908   0.736391)
  28:      1215.51   19.761686  ( -2.279556  -1.903362   3.307949)
  29:      1226.71    3.206295  (  0.972660   0.784927  -1.282231)
  30:      1255.74    6.748421  ( -0.899001   1.544821  -1.885138)
  31:      1293.92    7.776646  ( -0.163543   1.949005  -1.987782)
  32:      1325.21    6.850350  (  1.228462   1.784687   1.468374)
  33:      1346.06    8.427420  (  0.614444  -1.223505   2.559866)
  34:      1385.50    7.499914  (  1.352142  -2.325006   0.515728)
  35:      1441.21    4.907312  (  0.595045   2.120339  -0.239577)
  36:      1462.08  146.791840  (-10.685391   5.434116  -1.756314)
  37:      1496.64   10.438325  ( -0.543339  -2.177267  -2.324353)
  38:      1518.37    8.074038  ( -2.553160  -0.792515   0.962981)
  39:      1639.57   37.197506  ( -3.681534   0.799064   4.796386)
  40:      1666.58   31.044843  ( -3.812580  -2.853511  -2.892499)
  41:      3059.04   15.221070  (  1.603659  -3.066896  -1.800971)
  42:      3082.83   20.392971  ( -3.038170  -1.821757   2.800660)
  43:      3141.43    0.282211  ( -0.132306  -0.508040  -0.081249)
  44:      3155.11   95.186928  (  6.340668   1.005808  -7.346510)
  45:      3157.33   75.752280  (  3.843942   3.252089  -7.099318)
  46:      3214.37    2.204304  (  0.039715  -0.630222   1.343706)
  47:      3219.30    3.835753  (  1.678826   0.471831  -0.891444)
  48:      3229.78    4.176304  (  0.289476   1.284640  -1.562756)
  49:      3461.35   89.868421  ( -7.860433   0.598009   5.265397)
  50:      3515.80   99.613269  (  5.985788   6.828401   4.142047)

--------------------------
THERMOCHEMISTRY AT 298.15K
--------------------------

Temperature         ... 298.15 K
Pressure            ... 1.00 atm
Total Mass          ... 100.14 AMU

Throughout the following assumptions are being made:
  (1) The electronic state is orbitally nondegenerate
  (2) There are no thermally accessible electronically excited states
  (3) Hindered rotations indicated by low frequency modes) are not
      treated as such but are treated as vibrations and this may
      case some error
  (4) All equations used are the standard statistical mechanics
      equations for an ideal gas
  (5) All vibrations are strinctly harmonic

------------
INNER ENERGY
------------

The inner energy is: U= E(el) + E(ZPE) + E(vib) + E(rot) + E(trans)
    E(el)   - is the total energy from the electronic structure calculation
              = E(kin-el) + E(nuc-el) + E(el-el) + E(nuc-nuc)
    E(ZPE)  - the the zero temperature vibrational energy from the frequency calculation
    E(vib)  - the the finite temperature correction to E(ZPE) due to population
              of excietd vibrational states
    E(rot)  - is the rotational thermal energy
    E(trans)- is the translational thermal energy

Summary of contributions to the inner energy U:
Electronic energy                ...   -325.98568634 Eh
Zero point energy                ...      0.15494956 Eh      97.23 kcal/mol
Thermal vibrational correction   ...      0.00326336 Eh       2.05 kcal/mol
Thermal rotational correction    ...      0.00141627 Eh       0.89 kcal/mol
Thermal translational correction ...      0.00141627 Eh       0.89 kcal/mol
-----------------------------------------------------------------------
Total thermal energy                   -325.82464088 Eh

Summary of corrections to the electronic energy:
(perhaps to be used in another calculation)
Total thermal correction                  0.00609590 Eh       3.83 kcal/mol
Non-thermal (ZPE) correction              0.15494956 Eh      97.23 kcal/mol
-----------------------------------------------------------------------
Total correction                          0.16104546 Eh     101.06 kcal/mol

--------
ENTHALPY
--------

The enthalpy is H = U + kB*T
                kB is Boltzmann's constant
Total free energy                 ...   -325.82464088 Eh
Thermal Enthalpy correction       ...      0.00094421 Eh       0.59 kcal/mol
-----------------------------------------------------------------------
Total Enthalpy                    ...   -325.82369667 Eh

-------
ENTROPY
-------

The entropy contributions are T*S = T*(S(el)+S(vib)+S(rot)+S(trans)
     S(el)   - electronic entropy
     S(vib)  - vibrational entropy
     S(rot)  - rotational entropy
     S(trans)- translational entropy
The entropies will be listed as mutliplied by the temperature to get
units of energy

Electronic entropy                ...      0.00000000 Eh      0.00 kcal/mol
Vibrational entropy               ...      0.00506314 Eh      3.18 kcal/mol
Rotational entropy                ...      0.01170153 Eh      7.34 kcal/mol
Translational entropy             ...      0.01887324 Eh     11.84 kcal/mol
-----------------------------------------------------------------------
Final entropy term                ...      0.03563791 Eh     22.36 kcal/mol

CAUTION: The rotational entropy is not quite correctly treated here
         because it includes a symmetry number that is not yet correctly
         implemented in ORCA!
For a nonlinear molecule the correct rotational entropy is:
    S(rot) = R*(ln(qrot/sn)+1.5)
    R    = 8.31441 J/mol/K = 1.987191683e-3 kcal/mol/K
    qrot = 161446.1776900
    sn is the rotational symmetry number. We have assumed 3 here
       if it is different for your molecule then you should correct
       the printed rotational entropy by manually evaluating the equation
       as given above

For convenience we print out the resulting values for sn=1 - 12:
 sn= 1  qrot/sn=  161446.1777 T*S(rot)=     7.99 kcal/mol T*S(tot)=    23.01 kcal/mol
 sn= 2  qrot/sn=   80723.0888 T*S(rot)=     7.58 kcal/mol T*S(tot)=    22.60 kcal/mol
 sn= 3  qrot/sn=   53815.3926 T*S(rot)=     7.34 kcal/mol T*S(tot)=    22.36 kcal/mol
 sn= 4  qrot/sn=   40361.5444 T*S(rot)=     7.17 kcal/mol T*S(tot)=    22.19 kcal/mol
 sn= 5  qrot/sn=   32289.2355 T*S(rot)=     7.04 kcal/mol T*S(tot)=    22.06 kcal/mol
 sn= 6  qrot/sn=   26907.6963 T*S(rot)=     6.93 kcal/mol T*S(tot)=    21.95 kcal/mol
 sn= 7  qrot/sn=   23063.7397 T*S(rot)=     6.84 kcal/mol T*S(tot)=    21.86 kcal/mol
 sn= 8  qrot/sn=   20180.7722 T*S(rot)=     6.76 kcal/mol T*S(tot)=    21.78 kcal/mol
 sn= 9  qrot/sn=   17938.4642 T*S(rot)=     6.69 kcal/mol T*S(tot)=    21.71 kcal/mol
 sn=10  qrot/sn=   16144.6178 T*S(rot)=     6.63 kcal/mol T*S(tot)=    21.65 kcal/mol
 sn=11  qrot/sn=   14676.9252 T*S(rot)=     6.57 kcal/mol T*S(tot)=    21.59 kcal/mol
 sn=12  qrot/sn=   13453.8481 T*S(rot)=     6.52 kcal/mol T*S(tot)=    21.54 kcal/mol

-------------------
GIBBS FREE ENTHALPY
-------------------

The Gibbs free enthalpy is G = H - T*S

Total enthalpy                    ...   -325.82369667 Eh
Total entropy correction          ...     -0.03563791 Eh    -22.36 kcal/mol
-----------------------------------------------------------------------
Final Gibbs free enthalpy         ...   -325.85933457 Eh

For completeness - the Gibbs free enthalpy minus the electronic energy
G-E(el)                           ...      0.12635176 Eh     79.29 kcal/mol

                             ****ORCA TERMINATED NORMALLY****
TOTAL RUN TIME: 0 days 0 hours 40 minutes 22 seconds 170 msec
