                         Program Version 3.0.3 - RELEASE   -
|  1> ! NORI PBE0 def2-TZVP UseSym TightOPT Freq TightSCF Grid3 FinalGrid5 XYZFile
|  2> % pal
|  3>     nprocs 8
|  4> end
|  5> %method
|  6>     SymThresh 5.0e-2
|  7> end
|  8> % geom
|  9>     MaxIter 10
| 10> end
| 11> % maxcore 2000
| 12> % output
| 13>     printlevel mini
| 14>     print[ P_Basis ] 0
| 15>     print[ P_SCFInfo ] 1
| 16>     print[ P_SCFIterInfo ] 1
| 17>     print[ P_OrbEn ] 0
| 18>     print[ P_Cartesian ] 0
| 19> end
| 20> % elprop
| 21>     Dipole false
| 22> end
| 23> *xyz 1 1
| 24>  N        1.0251211444    -0.0597820917     0.1128012272
| 25>  C        2.5196694023    -0.0221368283     0.0557595109
| 26>  C        3.0903608354     1.0145160627    -0.9424642468
| 27>  C        2.7800397860    -0.0084466852    -2.0696388658
| 28>  C        3.1717493888    -0.9983795203    -0.9576504850
| 29>  O        4.5329174029    -0.7301086575    -0.7251260316
| 30>  C        4.5700341842     0.7158336555    -0.7309951971
| 31>  H        0.6937523207    -0.9045295692     0.5850060682
| 32>  H        0.6195033756    -0.0470342038    -0.8259744451
| 33>  H        0.6534942693     0.7454512565     0.6225543498
| 34>  H        2.8862994565    -0.0395411272     1.0825605530
| 35>  H        2.7803713110     2.0581282333    -0.9609562374
| 36>  H        1.7376370398    -0.0456160024    -2.3950155163
| 37>  H        3.4175664410     0.0034207933    -2.9522476586
| 38>  H        2.9833822423    -2.0702897742    -0.9792051512
| 39>  H        4.9663456837     1.0776849644     0.2197059780
| 40>  H        5.1951257161     1.0770094942    -1.5494038523
| 41> *
| 42>
| 43>                          ****END OF INPUT****
 Total Charge           Charge          ....    1
 Multiplicity           Mult            ....    1
 Number of Electrons    NEL             ....   54
FINAL SINGLE POINT ENERGY      -325.966068826567
FINAL SINGLE POINT ENERGY      -325.966069492938

CARTESIAN COORDINATES (ANGSTROEM)
---------------------------------
  N      1.249525   -0.000174   -1.818044
  C      0.706379   -0.418303   -0.487567
  C     -0.839252   -0.484439   -0.426427
  C     -0.826666    1.060081   -0.264712
  C      0.456473    0.733409    0.520417
  O     -0.000157    0.000365    1.630964
  C     -0.972715   -0.890578    1.036767
  H      2.234889    0.265064   -1.748940
  H      0.734939    0.801584   -2.190261
  H      1.180205   -0.758201   -2.501200
  H      1.295748   -1.269918   -0.146976
  H     -1.442863   -1.018212   -1.158518
  H     -0.689070    1.627173   -1.188704
  H     -1.636787    1.515212    0.302557
  H      1.211165    1.459407    0.815589
  H     -0.694300   -1.926583    1.238934
  H     -1.966678   -0.692925    1.441146

FINAL SINGLE POINT ENERGY      -325.966069657865
                    ***********************HURRAY********************
 Multiplicity           Mult            ....    1
 Number of Electrons    NEL             ....   54
 Basis Dimension        Dim             ....  277
FINAL SINGLE POINT ENERGY      -325.966069707058

VIBRATIONAL FREQUENCIES
-----------------------

   0:         0.00 cm**-1
   1:         0.00 cm**-1
   2:         0.00 cm**-1
   3:         0.00 cm**-1
   4:         0.00 cm**-1
   5:         0.00 cm**-1
   6:       198.97 cm**-1
   7:       269.71 cm**-1
   8:       286.33 cm**-1
   9:       359.81 cm**-1
  10:       478.86 cm**-1
  11:       524.51 cm**-1
  12:       646.03 cm**-1
  13:       801.25 cm**-1
  14:       840.45 cm**-1
  15:       863.98 cm**-1
  16:       889.94 cm**-1
  17:       936.58 cm**-1
  18:       950.89 cm**-1
  19:       971.86 cm**-1
  20:       995.42 cm**-1
  21:      1022.46 cm**-1
  22:      1052.38 cm**-1
  23:      1058.21 cm**-1
  24:      1086.24 cm**-1
  25:      1096.26 cm**-1
  26:      1140.87 cm**-1
  27:      1160.13 cm**-1
  28:      1199.32 cm**-1
  29:      1230.07 cm**-1
  30:      1262.71 cm**-1
  31:      1269.81 cm**-1
  32:      1280.18 cm**-1
  33:      1298.68 cm**-1
  34:      1367.58 cm**-1
  35:      1413.89 cm**-1
  36:      1483.23 cm**-1
  37:      1517.94 cm**-1
  38:      1532.12 cm**-1
  39:      1652.97 cm**-1
  40:      1658.33 cm**-1
  41:      3081.98 cm**-1
  42:      3084.33 cm**-1
  43:      3133.37 cm**-1
  44:      3138.87 cm**-1
  45:      3153.21 cm**-1
  46:      3161.16 cm**-1
  47:      3165.18 cm**-1
  48:      3412.83 cm**-1
  49:      3490.73 cm**-1
  50:      3493.75 cm**-1

IR SPECTRUM
-----------

 Mode    freq (cm**-1)   T**2         TX         TY         TZ
-------------------------------------------------------------------
   6:       198.97    0.175104  (  0.315911   0.018165   0.273814)
   7:       269.71    8.677462  (  0.745670  -2.174621  -1.841864)
   8:       286.33    7.348838  ( -2.647868   0.003208  -0.581055)
   9:       359.81    5.313561  (  1.376122  -1.847123  -0.089358)
  10:       478.86   14.502122  ( -2.544014   0.834754   2.708007)
  11:       524.51    2.225206  (  0.620968   0.446589  -1.280688)
  12:       646.03    1.759202  ( -1.186794  -0.542061  -0.238520)
  13:       801.25   17.098056  (  3.251732  -1.747236  -1.863185)
  14:       840.45   18.840873  (  0.774614  -2.696985  -3.311664)
  15:       863.98    3.765460  (  1.691580  -0.906236   0.287671)
  16:       889.94    1.666958  ( -0.339034  -1.091027  -0.601394)
  17:       936.58   18.278322  (  3.239718   1.451585   2.382321)
  18:       950.89    6.394784  (  0.222022  -0.057923   2.518360)
  19:       971.86    6.221964  (  1.384677   1.435496   1.497994)
  20:       995.42   30.515491  (  1.737300   2.223162  -4.749193)
  21:      1022.46    5.763617  ( -2.180730   0.957196   0.303001)
  22:      1052.38    9.182950  ( -1.180124  -2.790145   0.073121)
  23:      1058.21   30.165052  (  3.074804   4.395551  -1.178881)
  24:      1086.24    8.488076  ( -0.231250  -2.337866   1.723074)
  25:      1096.26    4.052746  (  1.795676   0.431063   0.801548)
  26:      1140.87    9.278410  ( -2.387465   0.597444  -1.794849)
  27:      1160.13   20.819269  ( -3.578547  -1.703337   2.260953)
  28:      1199.32    7.037629  ( -1.049719  -1.521540  -1.902797)
  29:      1230.07    1.377687  (  0.880621   0.739912   0.233930)
  30:      1262.71    3.002963  ( -1.072359  -0.187584  -1.348266)
  31:      1269.81   15.702833  ( -0.340525   1.050889  -3.805589)
  32:      1280.18    1.187847  ( -1.028384  -0.359055   0.036775)
  33:      1298.68   12.986338  ( -1.405343  -2.484671  -2.199490)
  34:      1367.58    5.710757  (  1.568859  -0.163230  -1.795214)
  35:      1413.89   14.434764  ( -3.038633   1.174816   1.954809)
  36:      1483.23   86.149437  (  4.385737   1.488399  -8.043595)
  37:      1517.94   73.137370  (  1.971372   3.631526  -7.487528)
  38:      1532.12   11.243746  (  0.188876  -1.602681   2.939300)
  39:      1652.97   32.446392  ( -3.679545  -3.505084  -2.573272)
  40:      1658.33   42.926780  ( -4.033428   5.095421  -0.833622)
  41:      3081.98   29.177991  ( -1.638813  -2.785513   4.328187)
  42:      3084.33   12.165162  ( -1.997272  -2.796646   0.595684)
  43:      3133.37    1.108914  (  0.735934  -0.738921   0.145981)
  44:      3138.87    6.634956  ( -1.875919   1.765004  -0.025414)
  45:      3153.21    6.241601  (  0.868159   1.626780   1.685671)
  46:      3161.16    5.161164  (  1.546379   0.625748  -1.542179)
  47:      3165.18    4.970947  ( -1.793742  -1.324065   0.017024)
  48:      3412.83   30.660531  ( -2.544190  -1.005883   4.814128)
  49:      3490.73  100.290464  (  5.449421  -8.021220  -2.500862)
  50:      3493.75   98.321699  ( -8.239155  -4.048583  -3.747934)

--------------------------
THERMOCHEMISTRY AT 298.15K
--------------------------

Temperature         ... 298.15 K
Pressure            ... 1.00 atm
Total Mass          ... 100.14 AMU

Throughout the following assumptions are being made:
  (1) The electronic state is orbitally nondegenerate
  (2) There are no thermally accessible electronically excited states
  (3) Hindered rotations indicated by low frequency modes) are not
      treated as such but are treated as vibrations and this may
      case some error
  (4) All equations used are the standard statistical mechanics
      equations for an ideal gas
  (5) All vibrations are strinctly harmonic

------------
INNER ENERGY
------------

The inner energy is: U= E(el) + E(ZPE) + E(vib) + E(rot) + E(trans)
    E(el)   - is the total energy from the electronic structure calculation
              = E(kin-el) + E(nuc-el) + E(el-el) + E(nuc-nuc)
    E(ZPE)  - the the zero temperature vibrational energy from the frequency calculation
    E(vib)  - the the finite temperature correction to E(ZPE) due to population
              of excietd vibrational states
    E(rot)  - is the rotational thermal energy
    E(trans)- is the translational thermal energy

Summary of contributions to the inner energy U:
Electronic energy                ...   -325.96606971 Eh
Zero point energy                ...      0.15517369 Eh      97.37 kcal/mol
Thermal vibrational correction   ...      0.00312791 Eh       1.96 kcal/mol
Thermal rotational correction    ...      0.00141627 Eh       0.89 kcal/mol
Thermal translational correction ...      0.00141627 Eh       0.89 kcal/mol
-----------------------------------------------------------------------
Total thermal energy                   -325.80493556 Eh

Summary of corrections to the electronic energy:
(perhaps to be used in another calculation)
Total thermal correction                  0.00596046 Eh       3.74 kcal/mol
Non-thermal (ZPE) correction              0.15517369 Eh      97.37 kcal/mol
-----------------------------------------------------------------------
Total correction                          0.16113414 Eh     101.11 kcal/mol

--------
ENTHALPY
--------

The enthalpy is H = U + kB*T
                kB is Boltzmann's constant
Total free energy                 ...   -325.80493556 Eh
Thermal Enthalpy correction       ...      0.00094421 Eh       0.59 kcal/mol
-----------------------------------------------------------------------
Total Enthalpy                    ...   -325.80399135 Eh

-------
ENTROPY
-------

The entropy contributions are T*S = T*(S(el)+S(vib)+S(rot)+S(trans)
     S(el)   - electronic entropy
     S(vib)  - vibrational entropy
     S(rot)  - rotational entropy
     S(trans)- translational entropy
The entropies will be listed as mutliplied by the temperature to get
units of energy

Electronic entropy                ...      0.00000000 Eh      0.00 kcal/mol
Vibrational entropy               ...      0.00471360 Eh      2.96 kcal/mol
Rotational entropy                ...      0.01169492 Eh      7.34 kcal/mol
Translational entropy             ...      0.01887324 Eh     11.84 kcal/mol
-----------------------------------------------------------------------
Final entropy term                ...      0.03528175 Eh     22.14 kcal/mol

CAUTION: The rotational entropy is not quite correctly treated here
         because it includes a symmetry number that is not yet correctly
         implemented in ORCA!
For a nonlinear molecule the correct rotational entropy is:
    S(rot) = R*(ln(qrot/sn)+1.5)
    R    = 8.31441 J/mol/K = 1.987191683e-3 kcal/mol/K
    qrot = 160319.1052505
    sn is the rotational symmetry number. We have assumed 3 here
       if it is different for your molecule then you should correct
       the printed rotational entropy by manually evaluating the equation
       as given above

For convenience we print out the resulting values for sn=1 - 12:
 sn= 1  qrot/sn=  160319.1053 T*S(rot)=     7.99 kcal/mol T*S(tot)=    22.79 kcal/mol
 sn= 2  qrot/sn=   80159.5526 T*S(rot)=     7.58 kcal/mol T*S(tot)=    22.38 kcal/mol
 sn= 3  qrot/sn=   53439.7018 T*S(rot)=     7.34 kcal/mol T*S(tot)=    22.14 kcal/mol
 sn= 4  qrot/sn=   40079.7763 T*S(rot)=     7.17 kcal/mol T*S(tot)=    21.97 kcal/mol
 sn= 5  qrot/sn=   32063.8211 T*S(rot)=     7.04 kcal/mol T*S(tot)=    21.84 kcal/mol
 sn= 6  qrot/sn=   26719.8509 T*S(rot)=     6.93 kcal/mol T*S(tot)=    21.73 kcal/mol
 sn= 7  qrot/sn=   22902.7293 T*S(rot)=     6.84 kcal/mol T*S(tot)=    21.64 kcal/mol
 sn= 8  qrot/sn=   20039.8882 T*S(rot)=     6.76 kcal/mol T*S(tot)=    21.56 kcal/mol
 sn= 9  qrot/sn=   17813.2339 T*S(rot)=     6.69 kcal/mol T*S(tot)=    21.49 kcal/mol
 sn=10  qrot/sn=   16031.9105 T*S(rot)=     6.63 kcal/mol T*S(tot)=    21.43 kcal/mol
 sn=11  qrot/sn=   14574.4641 T*S(rot)=     6.57 kcal/mol T*S(tot)=    21.37 kcal/mol
 sn=12  qrot/sn=   13359.9254 T*S(rot)=     6.52 kcal/mol T*S(tot)=    21.32 kcal/mol

-------------------
GIBBS FREE ENTHALPY
-------------------

The Gibbs free enthalpy is G = H - T*S

Total enthalpy                    ...   -325.80399135 Eh
Total entropy correction          ...     -0.03528175 Eh    -22.14 kcal/mol
-----------------------------------------------------------------------
Final Gibbs free enthalpy         ...   -325.83927311 Eh

For completeness - the Gibbs free enthalpy minus the electronic energy
G-E(el)                           ...      0.12679660 Eh     79.57 kcal/mol

                             ****ORCA TERMINATED NORMALLY****
TOTAL RUN TIME: 0 days 0 hours 41 minutes 25 seconds 712 msec
