                         Program Version 3.0.3 - RELEASE   -
|  1> ! NORI PBE0 def2-TZVP UseSym TightOPT Freq TightSCF Grid3 FinalGrid5 XYZFile
|  2> % pal
|  3>     nprocs 8
|  4> end
|  5> %method
|  6>     SymThresh 5.0e-2
|  7> end
|  8> % geom
|  9>     MaxIter 10
| 10> end
| 11> % maxcore 2000
| 12> % output
| 13>     printlevel mini
| 14>     print[ P_Basis ] 0
| 15>     print[ P_SCFInfo ] 1
| 16>     print[ P_SCFIterInfo ] 1
| 17>     print[ P_OrbEn ] 0
| 18>     print[ P_Cartesian ] 0
| 19> end
| 20> % elprop
| 21>     Dipole false
| 22> end
| 23> *xyz 1 1
| 24>  N        0.7380711803     0.0010884828     0.0016311478
| 25>  C        2.2021373812     0.0691350012     0.2235691403
| 26>  C        3.0804744228    -0.8693991077    -0.5379387472
| 27>  C        2.4577288305    -1.5581545241    -1.7311588298
| 28>  O        1.6900744200    -0.5360951398    -2.3714696680
| 29>  C        2.4328874830     0.6793432399    -2.2489262457
| 30>  C        3.0635641272     0.5977130366    -0.8766649804
| 31>  H        0.2792587248     0.8902353316     0.2047767531
| 32>  H        0.2981430853    -0.7215289331     0.5729086414
| 33>  H        0.6185783152    -0.2326455723    -1.0139829164
| 34>  H        2.4504582272     0.3095356007     1.2485658763
| 35>  H        3.9040952830    -1.3415208711    -0.0190152163
| 36>  H        3.2406942065    -1.9346598465    -2.3968609281
| 37>  H        1.7800902666    -2.3816903777    -1.4962047835
| 38>  H        1.7374403497     1.5079850357    -2.3973293404
| 39>  H        3.2116598515     0.7409976813    -3.0155492399
| 40>  H        3.8734638452     1.2681809626    -0.6209306631
| 41> *
| 42>
| 43>                          ****END OF INPUT****
 Total Charge           Charge          ....    1
 Multiplicity           Mult            ....    1
 Number of Electrons    NEL             ....   54
FINAL SINGLE POINT ENERGY      -325.994862178935
FINAL SINGLE POINT ENERGY      -325.994862857573

CARTESIAN COORDINATES (ANGSTROEM)
---------------------------------
  N     -0.547824   -1.734615   -0.000000
  C     -1.272867   -0.441837    0.000000
  C     -0.680039    0.704503    0.752775
  C      0.773517    0.571802    1.148294
  O      1.403504   -0.001260   -0.000000
  C      0.773517    0.571802   -1.148294
  C     -0.680039    0.704503   -0.752775
  H     -0.763135   -2.293430   -0.826705
  H     -0.763135   -2.293430    0.826705
  H      0.471044   -1.483764    0.000000
  H     -2.346596   -0.573660   -0.000000
  H     -1.337600    1.332337    1.339399
  H      1.192268    1.557671    1.373240
  H      0.970600   -0.087337    1.996483
  H      0.970600   -0.087338   -1.996483
  H      1.192269    1.557671   -1.373240
  H     -1.337600    1.332337   -1.339399

FINAL SINGLE POINT ENERGY      -325.994863119525
                    ***********************HURRAY********************
 Multiplicity           Mult            ....    1
 Number of Electrons    NEL             ....   54
 Basis Dimension        Dim             ....  277
FINAL SINGLE POINT ENERGY      -325.994863188455

VIBRATIONAL FREQUENCIES
-----------------------

   0:         0.00 cm**-1
   1:         0.00 cm**-1
   2:         0.00 cm**-1
   3:         0.00 cm**-1
   4:         0.00 cm**-1
   5:         0.00 cm**-1
   6:       221.01 cm**-1
   7:       280.14 cm**-1
   8:       333.80 cm**-1
   9:       402.52 cm**-1
  10:       446.90 cm**-1
  11:       510.34 cm**-1
  12:       691.81 cm**-1
  13:       731.43 cm**-1
  14:       800.59 cm**-1
  15:       804.31 cm**-1
  16:       901.78 cm**-1
  17:       927.21 cm**-1
  18:       972.28 cm**-1
  19:       980.01 cm**-1
  20:       988.08 cm**-1
  21:      1008.44 cm**-1
  22:      1072.90 cm**-1
  23:      1096.35 cm**-1
  24:      1109.15 cm**-1
  25:      1135.66 cm**-1
  26:      1143.83 cm**-1
  27:      1191.34 cm**-1
  28:      1216.70 cm**-1
  29:      1221.91 cm**-1
  30:      1271.74 cm**-1
  31:      1329.63 cm**-1
  32:      1354.12 cm**-1
  33:      1357.89 cm**-1
  34:      1373.64 cm**-1
  35:      1465.82 cm**-1
  36:      1473.96 cm**-1
  37:      1510.92 cm**-1
  38:      1526.47 cm**-1
  39:      1644.16 cm**-1
  40:      1693.34 cm**-1
  41:      3008.39 cm**-1
  42:      3066.09 cm**-1
  43:      3067.82 cm**-1
  44:      3121.95 cm**-1
  45:      3122.97 cm**-1
  46:      3218.72 cm**-1
  47:      3220.15 cm**-1
  48:      3228.60 cm**-1
  49:      3461.38 cm**-1
  50:      3517.77 cm**-1

IR SPECTRUM
-----------

 Mode    freq (cm**-1)   T**2         TX         TY         TZ
-------------------------------------------------------------------
   6:       221.01    8.167849  (  0.000203   0.000229  -2.857945)
   7:       280.14   36.035100  (  3.717207   4.713542   0.000071)
   8:       333.80   41.054662  ( -4.559205  -4.502034   0.000006)
   9:       402.52    0.226407  ( -0.000138  -0.000155  -0.475822)
  10:       446.90    0.874745  (  0.000025   0.000005   0.935278)
  11:       510.34   20.009472  ( -1.170428  -4.317357  -0.000044)
  12:       691.81    2.722745  (  0.000030   0.000041  -1.650074)
  13:       731.43    7.594758  (  2.645970   0.770457  -0.000008)
  14:       800.59   37.620442  ( -4.366609  -4.307339   0.000136)
  15:       804.31    7.170929  ( -0.000218  -0.000206  -2.677859)
  16:       901.78   30.374454  ( -5.452727   0.801389   0.000045)
  17:       927.21   17.904928  ( -0.454776   4.206912  -0.000034)
  18:       972.28   10.883414  ( -3.296502   0.128408  -0.000054)
  19:       980.01   25.694886  (  0.000038   0.000057  -5.069012)
  20:       988.08   10.976995  ( -0.349677  -3.294650  -0.000153)
  21:      1008.44    2.919767  (  0.000017   0.000156  -1.708733)
  22:      1072.90    9.288242  ( -0.000005  -0.000033  -3.047662)
  23:      1096.35    8.877588  ( -1.015167   2.801254  -0.000127)
  24:      1109.15   33.702166  (  0.000004  -0.000060  -5.805357)
  25:      1135.66   12.005910  (  0.000125   0.000034  -3.464955)
  26:      1143.83   13.853432  ( -3.552246  -1.111298  -0.000131)
  27:      1191.34    0.823128  (  0.000032   0.000083   0.907264)
  28:      1216.70   15.133695  (  3.396895   1.895996   0.000173)
  29:      1221.91    4.699398  (  0.000236   0.000012  -2.167810)
  30:      1271.74    7.642702  ( -0.012063   2.764517  -0.000074)
  31:      1329.63    9.300510  ( -0.000031   0.000073   3.049674)
  32:      1354.12   10.997700  ( -0.000053  -0.000052   3.316278)
  33:      1357.89    2.785263  (  0.977809   1.352462   0.000057)
  34:      1373.64   17.799232  ( -4.106737   0.966406  -0.000013)
  35:      1465.82   24.079917  (  2.471313   4.239402   0.000007)
  36:      1473.96  151.084755  (  2.900050 -11.944642  -0.000039)
  37:      1510.92    6.344868  ( -0.000052  -0.000370   2.518902)
  38:      1526.47   16.512189  (  1.900091   3.591914   0.000126)
  39:      1644.16   13.807249  ( -2.234072  -2.969204   0.000193)
  40:      1693.34   19.532164  (  0.000130   0.000127   4.419521)
  41:      3008.39  341.792060  (-15.186316 -10.543618   0.000045)
  42:      3066.09   22.788871  (  0.000098  -0.000137   4.773769)
  43:      3067.82    0.648140  ( -0.310621   0.742734   0.001009)
  44:      3121.95    3.571116  (  0.000016  -0.000176  -1.889740)
  45:      3122.97    7.773702  ( -0.289605   2.773054  -0.000132)
  46:      3218.72    2.621255  ( -1.047255  -1.234711  -0.000011)
  47:      3220.15    0.362951  (  0.000042   0.000023  -0.602454)
  48:      3228.60    4.407426  (  1.838680  -1.013254   0.000003)
  49:      3461.38   92.064215  ( -4.328861  -8.563012   0.000044)
  50:      3517.77   87.451290  (  0.000053   0.000064   9.351539)

--------------------------
THERMOCHEMISTRY AT 298.15K
--------------------------

Temperature         ... 298.15 K
Pressure            ... 1.00 atm
Total Mass          ... 100.14 AMU

Throughout the following assumptions are being made:
  (1) The electronic state is orbitally nondegenerate
  (2) There are no thermally accessible electronically excited states
  (3) Hindered rotations indicated by low frequency modes) are not
      treated as such but are treated as vibrations and this may
      case some error
  (4) All equations used are the standard statistical mechanics
      equations for an ideal gas
  (5) All vibrations are strinctly harmonic

------------
INNER ENERGY
------------

The inner energy is: U= E(el) + E(ZPE) + E(vib) + E(rot) + E(trans)
    E(el)   - is the total energy from the electronic structure calculation
              = E(kin-el) + E(nuc-el) + E(el-el) + E(nuc-nuc)
    E(ZPE)  - the the zero temperature vibrational energy from the frequency calculation
    E(vib)  - the the finite temperature correction to E(ZPE) due to population
              of excietd vibrational states
    E(rot)  - is the rotational thermal energy
    E(trans)- is the translational thermal energy

Summary of contributions to the inner energy U:
Electronic energy                ...   -325.99486319 Eh
Zero point energy                ...      0.15542578 Eh      97.53 kcal/mol
Thermal vibrational correction   ...      0.00301502 Eh       1.89 kcal/mol
Thermal rotational correction    ...      0.00141627 Eh       0.89 kcal/mol
Thermal translational correction ...      0.00141627 Eh       0.89 kcal/mol
-----------------------------------------------------------------------
Total thermal energy                   -325.83358985 Eh

Summary of corrections to the electronic energy:
(perhaps to be used in another calculation)
Total thermal correction                  0.00584756 Eh       3.67 kcal/mol
Non-thermal (ZPE) correction              0.15542578 Eh      97.53 kcal/mol
-----------------------------------------------------------------------
Total correction                          0.16127334 Eh     101.20 kcal/mol

--------
ENTHALPY
--------

The enthalpy is H = U + kB*T
                kB is Boltzmann's constant
Total free energy                 ...   -325.83358985 Eh
Thermal Enthalpy correction       ...      0.00094421 Eh       0.59 kcal/mol
-----------------------------------------------------------------------
Total Enthalpy                    ...   -325.83264564 Eh

-------
ENTROPY
-------

The entropy contributions are T*S = T*(S(el)+S(vib)+S(rot)+S(trans)
     S(el)   - electronic entropy
     S(vib)  - vibrational entropy
     S(rot)  - rotational entropy
     S(trans)- translational entropy
The entropies will be listed as mutliplied by the temperature to get
units of energy

Electronic entropy                ...      0.00000000 Eh      0.00 kcal/mol
Vibrational entropy               ...      0.00445173 Eh      2.79 kcal/mol
Rotational entropy                ...      0.01166777 Eh      7.32 kcal/mol
Translational entropy             ...      0.01887324 Eh     11.84 kcal/mol
-----------------------------------------------------------------------
Final entropy term                ...      0.03499274 Eh     21.96 kcal/mol

CAUTION: The rotational entropy is not quite correctly treated here
         because it includes a symmetry number that is not yet correctly
         implemented in ORCA!
For a nonlinear molecule the correct rotational entropy is:
    S(rot) = R*(ln(qrot/sn)+1.5)
    R    = 8.31441 J/mol/K = 1.987191683e-3 kcal/mol/K
    qrot = 155775.8875299
    sn is the rotational symmetry number. We have assumed 3 here
       if it is different for your molecule then you should correct
       the printed rotational entropy by manually evaluating the equation
       as given above

For convenience we print out the resulting values for sn=1 - 12:
 sn= 1  qrot/sn=  155775.8875 T*S(rot)=     7.97 kcal/mol T*S(tot)=    22.61 kcal/mol
 sn= 2  qrot/sn=   77887.9438 T*S(rot)=     7.56 kcal/mol T*S(tot)=    22.20 kcal/mol
 sn= 3  qrot/sn=   51925.2958 T*S(rot)=     7.32 kcal/mol T*S(tot)=    21.96 kcal/mol
 sn= 4  qrot/sn=   38943.9719 T*S(rot)=     7.15 kcal/mol T*S(tot)=    21.79 kcal/mol
 sn= 5  qrot/sn=   31155.1775 T*S(rot)=     7.02 kcal/mol T*S(tot)=    21.66 kcal/mol
 sn= 6  qrot/sn=   25962.6479 T*S(rot)=     6.91 kcal/mol T*S(tot)=    21.55 kcal/mol
 sn= 7  qrot/sn=   22253.6982 T*S(rot)=     6.82 kcal/mol T*S(tot)=    21.46 kcal/mol
 sn= 8  qrot/sn=   19471.9859 T*S(rot)=     6.74 kcal/mol T*S(tot)=    21.38 kcal/mol
 sn= 9  qrot/sn=   17308.4319 T*S(rot)=     6.67 kcal/mol T*S(tot)=    21.31 kcal/mol
 sn=10  qrot/sn=   15577.5888 T*S(rot)=     6.61 kcal/mol T*S(tot)=    21.24 kcal/mol
 sn=11  qrot/sn=   14161.4443 T*S(rot)=     6.55 kcal/mol T*S(tot)=    21.19 kcal/mol
 sn=12  qrot/sn=   12981.3240 T*S(rot)=     6.50 kcal/mol T*S(tot)=    21.14 kcal/mol

-------------------
GIBBS FREE ENTHALPY
-------------------

The Gibbs free enthalpy is G = H - T*S

Total enthalpy                    ...   -325.83264564 Eh
Total entropy correction          ...     -0.03499274 Eh    -21.96 kcal/mol
-----------------------------------------------------------------------
Final Gibbs free enthalpy         ...   -325.86763838 Eh

For completeness - the Gibbs free enthalpy minus the electronic energy
G-E(el)                           ...      0.12722481 Eh     79.83 kcal/mol

                             ****ORCA TERMINATED NORMALLY****
TOTAL RUN TIME: 0 days 0 hours 43 minutes 35 seconds 724 msec
