                         Program Version 3.0.3 - RELEASE   -
|  1> ! NORI PBE0 def2-TZVP UseSym TightOPT Freq TightSCF Grid3 FinalGrid5 XYZFile
|  2> % pal
|  3>     nprocs 8
|  4> end
|  5> %method
|  6>     SymThresh 5.0e-2
|  7> end
|  8> % geom
|  9>     MaxIter 10
| 10> end
| 11> % maxcore 2000
| 12> % output
| 13>     printlevel mini
| 14>     print[ P_Basis ] 0
| 15>     print[ P_SCFInfo ] 1
| 16>     print[ P_SCFIterInfo ] 1
| 17>     print[ P_OrbEn ] 0
| 18>     print[ P_Cartesian ] 0
| 19> end
| 20> % elprop
| 21>     Dipole false
| 22> end
| 23> *xyz 1 1
| 24>  N        0.8338370149    -0.1941671526    -0.4482004223
| 25>  C        2.2629022051     0.0226404764    -0.0548232267
| 26>  C        3.3594296886    -0.8380323502    -0.7246086392
| 27>  O        4.2272582864     0.2814126265    -0.4247694479
| 28>  C        3.0894547704     1.0904684225    -0.8080414479
| 29>  C        2.8858188693     0.6876454473    -2.2721904970
| 30>  C        3.0703520236    -0.6320826998    -2.2147270075
| 31>  H        0.2316064726     0.5713225375    -0.1371166771
| 32>  H        0.4596125831    -1.0644634953    -0.0640218444
| 33>  H        0.8059519056    -0.2439397601    -1.4777774185
| 34>  H        2.3328900304     0.0795854943     1.0298547477
| 35>  H        3.6882110144    -1.7988750413    -0.3387324563
| 36>  H        3.1382292138     2.1337964446    -0.5087067843
| 37>  H        2.7080281336     1.3416783022    -3.1136681869
| 38>  H        3.0885477882    -1.3789892521    -2.9953506917
| 39> *
| 40>
| 41>                          ****END OF INPUT****
 Total Charge           Charge          ....    1
 Multiplicity           Mult            ....    1
 Number of Electrons    NEL             ....   52
FINAL SINGLE POINT ENERGY      -324.721944642012

CARTESIAN COORDINATES (ANGSTROEM)
---------------------------------
  N     -1.666649    1.139380    0.000000
  C     -0.173372    1.020435    0.000000
  C      0.494411    0.022671    0.974514
  O      1.564956   -0.000472    0.000000
  C      0.494411    0.022671   -0.974514
  C     -0.250149   -1.280338   -0.666942
  C     -0.250149   -1.280338    0.666942
  H     -2.010685    1.632760   -0.826574
  H     -2.010685    1.632760    0.826574
  H     -2.047620    0.181372    0.000000
  H      0.267160    2.015481    0.000000
  H      0.791977    0.279831    1.987310
  H      0.791977    0.279831   -1.987309
  H     -0.606163   -2.014701   -1.374901
  H     -0.606163   -2.014701    1.374901

FINAL SINGLE POINT ENERGY      -324.721945021835
                    ***********************HURRAY********************
 Multiplicity           Mult            ....    1
 Number of Electrons    NEL             ....   52
 Basis Dimension        Dim             ....  265
FINAL SINGLE POINT ENERGY      -324.721945103270

VIBRATIONAL FREQUENCIES
-----------------------

   0:         0.00 cm**-1
   1:         0.00 cm**-1
   2:         0.00 cm**-1
   3:         0.00 cm**-1
   4:         0.00 cm**-1
   5:         0.00 cm**-1
   6:       271.62 cm**-1
   7:       272.57 cm**-1
   8:       295.36 cm**-1
   9:       549.11 cm**-1
  10:       551.95 cm**-1
  11:       584.28 cm**-1
  12:       754.46 cm**-1
  13:       779.83 cm**-1
  14:       792.98 cm**-1
  15:       833.35 cm**-1
  16:       888.21 cm**-1
  17:       903.45 cm**-1
  18:       910.52 cm**-1
  19:       964.72 cm**-1
  20:       977.98 cm**-1
  21:       979.86 cm**-1
  22:      1052.01 cm**-1
  23:      1069.37 cm**-1
  24:      1069.40 cm**-1
  25:      1168.38 cm**-1
  26:      1185.74 cm**-1
  27:      1231.22 cm**-1
  28:      1251.10 cm**-1
  29:      1274.54 cm**-1
  30:      1301.03 cm**-1
  31:      1321.25 cm**-1
  32:      1390.00 cm**-1
  33:      1463.31 cm**-1
  34:      1618.69 cm**-1
  35:      1644.63 cm**-1
  36:      1647.73 cm**-1
  37:      3167.94 cm**-1
  38:      3185.93 cm**-1
  39:      3187.49 cm**-1
  40:      3251.29 cm**-1
  41:      3273.61 cm**-1
  42:      3318.72 cm**-1
  43:      3458.98 cm**-1
  44:      3506.73 cm**-1

IR SPECTRUM
-----------

 Mode    freq (cm**-1)   T**2         TX         TY         TZ
-------------------------------------------------------------------
   6:       271.62   11.121025  (  0.992500  -3.183704   0.000019)
   7:       272.57    1.663236  ( -0.000014   0.000035   1.289665)
   8:       295.36    0.877567  ( -0.000001   0.000001   0.936785)
   9:       549.11   28.965622  (  4.580679  -2.825420  -0.000001)
  10:       551.95    0.016336  (  0.000002  -0.000003   0.127813)
  11:       584.28    4.951941  (  0.790247   2.080253  -0.000001)
  12:       754.46    2.118845  ( -1.310779   0.633012  -0.000000)
  13:       779.83   70.118342  (  5.249697  -6.523727  -0.000002)
  14:       792.98    1.813259  (  0.000011  -0.000014   1.346573)
  15:       833.35    2.268395  (  0.000001   0.000001   1.506119)
  16:       888.21    0.033899  ( -0.000012   0.000011  -0.184117)
  17:       903.45   58.785552  ( -7.097422   2.900372  -0.000004)
  18:       910.52   16.104970  ( -1.920098  -3.523946   0.000003)
  19:       964.72    0.008192  (  0.000007  -0.000001  -0.090509)
  20:       977.98   15.503174  ( -3.876081  -0.692222   0.000158)
  21:       979.86   30.224772  ( -0.000104  -0.000023  -5.497706)
  22:      1052.01   24.251376  ( -3.984038  -2.894618  -0.000001)
  23:      1069.37   25.387603  ( -4.288501   2.645063  -0.000771)
  24:      1069.40   19.249418  ( -0.000752   0.000462   4.387416)
  25:      1168.38    0.078451  ( -0.031614   0.278300  -0.000002)
  26:      1185.74    0.674557  ( -0.000001   0.000003   0.821314)
  27:      1231.22    0.220351  (  0.000000  -0.000003  -0.469415)
  28:      1251.10    0.115467  ( -0.000000  -0.000000   0.339804)
  29:      1274.54    0.009699  (  0.077044   0.061343  -0.000002)
  30:      1301.03    3.144526  ( -1.757839  -0.233516  -0.000001)
  31:      1321.25   28.930605  ( -0.000001   0.000000  -5.378718)
  32:      1390.00   23.135235  (  1.394472  -4.603334  -0.000000)
  33:      1463.31  203.483198  ( 14.106015  -2.122151  -0.000000)
  34:      1618.69    0.773738  (  0.519453   0.709864   0.000000)
  35:      1644.63   32.151482  (  0.091420   5.669491   0.000000)
  36:      1647.73   17.941446  (  0.000000   0.000002  -4.235734)
  37:      3167.94    0.667776  (  0.584207  -0.571382  -0.000000)
  38:      3185.93    5.117312  ( -0.000001   0.000001  -2.262148)
  39:      3187.49    0.354880  ( -0.420879   0.421593   0.000005)
  40:      3251.29    5.461571  ( -0.000000  -0.000000  -2.337000)
  41:      3273.61    5.409843  (  0.811577   2.179721   0.000000)
  42:      3318.72   64.143507  ( -0.817103  -7.967173   0.000000)
  43:      3458.98  129.817661  ( -5.723613   9.851798   0.000000)
  44:      3506.73  101.823256  ( -0.000000  -0.000017  10.090751)

--------------------------
THERMOCHEMISTRY AT 298.15K
--------------------------

Temperature         ... 298.15 K
Pressure            ... 1.00 atm
Total Mass          ... 98.12 AMU

Throughout the following assumptions are being made:
  (1) The electronic state is orbitally nondegenerate
  (2) There are no thermally accessible electronically excited states
  (3) Hindered rotations indicated by low frequency modes) are not
      treated as such but are treated as vibrations and this may
      case some error
  (4) All equations used are the standard statistical mechanics
      equations for an ideal gas
  (5) All vibrations are strinctly harmonic

------------
INNER ENERGY
------------

The inner energy is: U= E(el) + E(ZPE) + E(vib) + E(rot) + E(trans)
    E(el)   - is the total energy from the electronic structure calculation
              = E(kin-el) + E(nuc-el) + E(el-el) + E(nuc-nuc)
    E(ZPE)  - the the zero temperature vibrational energy from the frequency calculation
    E(vib)  - the the finite temperature correction to E(ZPE) due to population
              of excietd vibrational states
    E(rot)  - is the rotational thermal energy
    E(trans)- is the translational thermal energy

Summary of contributions to the inner energy U:
Electronic energy                ...   -324.72194510 Eh
Zero point energy                ...      0.13065150 Eh      81.98 kcal/mol
Thermal vibrational correction   ...      0.00270379 Eh       1.70 kcal/mol
Thermal rotational correction    ...      0.00141627 Eh       0.89 kcal/mol
Thermal translational correction ...      0.00141627 Eh       0.89 kcal/mol
-----------------------------------------------------------------------
Total thermal energy                   -324.58575727 Eh

Summary of corrections to the electronic energy:
(perhaps to be used in another calculation)
Total thermal correction                  0.00553633 Eh       3.47 kcal/mol
Non-thermal (ZPE) correction              0.13065150 Eh      81.98 kcal/mol
-----------------------------------------------------------------------
Total correction                          0.13618784 Eh      85.46 kcal/mol

--------
ENTHALPY
--------

The enthalpy is H = U + kB*T
                kB is Boltzmann's constant
Total free energy                 ...   -324.58575727 Eh
Thermal Enthalpy correction       ...      0.00094421 Eh       0.59 kcal/mol
-----------------------------------------------------------------------
Total Enthalpy                    ...   -324.58481306 Eh

-------
ENTROPY
-------

The entropy contributions are T*S = T*(S(el)+S(vib)+S(rot)+S(trans)
     S(el)   - electronic entropy
     S(vib)  - vibrational entropy
     S(rot)  - rotational entropy
     S(trans)- translational entropy
The entropies will be listed as mutliplied by the temperature to get
units of energy

Electronic entropy                ...      0.00000000 Eh      0.00 kcal/mol
Vibrational entropy               ...      0.00393497 Eh      2.47 kcal/mol
Rotational entropy                ...      0.01160100 Eh      7.28 kcal/mol
Translational entropy             ...      0.01884443 Eh     11.83 kcal/mol
-----------------------------------------------------------------------
Final entropy term                ...      0.03438040 Eh     21.57 kcal/mol

CAUTION: The rotational entropy is not quite correctly treated here
         because it includes a symmetry number that is not yet correctly
         implemented in ORCA!
For a nonlinear molecule the correct rotational entropy is:
    S(rot) = R*(ln(qrot/sn)+1.5)
    R    = 8.31441 J/mol/K = 1.987191683e-3 kcal/mol/K
    qrot = 145139.3192163
    sn is the rotational symmetry number. We have assumed 3 here
       if it is different for your molecule then you should correct
       the printed rotational entropy by manually evaluating the equation
       as given above

For convenience we print out the resulting values for sn=1 - 12:
 sn= 1  qrot/sn=  145139.3192 T*S(rot)=     7.93 kcal/mol T*S(tot)=    22.22 kcal/mol
 sn= 2  qrot/sn=   72569.6596 T*S(rot)=     7.52 kcal/mol T*S(tot)=    21.81 kcal/mol
 sn= 3  qrot/sn=   48379.7731 T*S(rot)=     7.28 kcal/mol T*S(tot)=    21.57 kcal/mol
 sn= 4  qrot/sn=   36284.8298 T*S(rot)=     7.11 kcal/mol T*S(tot)=    21.40 kcal/mol
 sn= 5  qrot/sn=   29027.8638 T*S(rot)=     6.98 kcal/mol T*S(tot)=    21.27 kcal/mol
 sn= 6  qrot/sn=   24189.8865 T*S(rot)=     6.87 kcal/mol T*S(tot)=    21.16 kcal/mol
 sn= 7  qrot/sn=   20734.1885 T*S(rot)=     6.78 kcal/mol T*S(tot)=    21.07 kcal/mol
 sn= 8  qrot/sn=   18142.4149 T*S(rot)=     6.70 kcal/mol T*S(tot)=    20.99 kcal/mol
 sn= 9  qrot/sn=   16126.5910 T*S(rot)=     6.63 kcal/mol T*S(tot)=    20.92 kcal/mol
 sn=10  qrot/sn=   14513.9319 T*S(rot)=     6.57 kcal/mol T*S(tot)=    20.86 kcal/mol
 sn=11  qrot/sn=   13194.4836 T*S(rot)=     6.51 kcal/mol T*S(tot)=    20.80 kcal/mol
 sn=12  qrot/sn=   12094.9433 T*S(rot)=     6.46 kcal/mol T*S(tot)=    20.75 kcal/mol

-------------------
GIBBS FREE ENTHALPY
-------------------

The Gibbs free enthalpy is G = H - T*S

Total enthalpy                    ...   -324.58481306 Eh
Total entropy correction          ...     -0.03438040 Eh    -21.57 kcal/mol
-----------------------------------------------------------------------
Final Gibbs free enthalpy         ...   -324.61919346 Eh

For completeness - the Gibbs free enthalpy minus the electronic energy
G-E(el)                           ...      0.10275164 Eh     64.48 kcal/mol

                             ****ORCA TERMINATED NORMALLY****
TOTAL RUN TIME: 0 days 0 hours 33 minutes 4 seconds 534 msec
