                         Program Version 3.0.3 - RELEASE   -
|  1> ! NORI PBE0 def2-TZVP UseSym TightOPT Freq TightSCF Grid3 FinalGrid5 XYZFile
|  2> % pal
|  3>     nprocs 8
|  4> end
|  5> %method
|  6>     SymThresh 5.0e-2
|  7> end
|  8> % geom
|  9>     MaxIter 10
| 10> end
| 11> % maxcore 2000
| 12> % output
| 13>     printlevel mini
| 14>     print[ P_Basis ] 0
| 15>     print[ P_SCFInfo ] 1
| 16>     print[ P_SCFIterInfo ] 1
| 17>     print[ P_OrbEn ] 0
| 18>     print[ P_Cartesian ] 0
| 19> end
| 20> % elprop
| 21>     Dipole false
| 22> end
| 23> *xyz 1 1
| 24>  N        1.0513911033    -0.0332687913    -0.5592352885
| 25>  C        2.2410743234    -0.0135419085     0.3012143006
| 26>  C        3.4158572624     0.7754955405    -0.1759572628
| 27>  O        3.3673873141     1.2175385321    -1.5064143256
| 28>  C        3.4200680604     0.1211319938    -2.3088147077
| 29>  C        3.4915900264    -1.0363368504    -1.6423997680
| 30>  C        3.4790159292    -0.7356496745    -0.1924364574
| 31>  H        0.6540219495     0.8984705099    -0.6987370663
| 32>  H        0.3255707582    -0.6478263329    -0.1869036247
| 33>  H        1.3508036882    -0.3982605080    -1.4854119248
| 34>  H        2.0081856117    -0.0197927211     1.3567956450
| 35>  H        3.9419178885     1.4442381735     0.4917327452
| 36>  H        3.4133329090     0.3291489138    -3.3699926846
| 37>  H        3.6142077778    -2.0160123590    -2.0778162901
| 38>  H        4.0339053980    -1.3338545179     0.5183467097
| 39> *
| 40>
| 41>                          ****END OF INPUT****
 Total Charge           Charge          ....    1
 Multiplicity           Mult            ....    1
 Number of Electrons    NEL             ....   52
FINAL SINGLE POINT ENERGY      -324.762878081419
FINAL SINGLE POINT ENERGY      -324.762878887149

CARTESIAN COORDINATES (ANGSTROEM)
---------------------------------
  N      1.619891    0.000029   -0.874479
  C      0.486613    0.932082   -0.816555
  C     -0.277509    1.001033    0.464815
  O     -0.001488    0.000319    1.407954
  C     -0.425566   -1.183575    0.891200
  C     -0.960748   -1.081938   -0.330350
  C     -0.906508    0.340029   -0.741453
  H      2.348534    0.226683   -0.193771
  H      2.037869   -0.030140   -1.805742
  H      1.248108   -0.944199   -0.647910
  H      0.648142    1.840439   -1.379332
  H     -0.543437    1.954774    0.899724
  H     -0.289643   -2.040156    1.536646
  H     -1.423592   -1.879155   -0.891530
  H     -1.680581    0.786673   -1.351284

FINAL SINGLE POINT ENERGY      -324.762879278076
                    ***********************HURRAY********************
 Multiplicity           Mult            ....    1
 Number of Electrons    NEL             ....   52
 Basis Dimension        Dim             ....  265
FINAL SINGLE POINT ENERGY      -324.762879429209

VIBRATIONAL FREQUENCIES
-----------------------

   0:         0.00 cm**-1
   1:         0.00 cm**-1
   2:         0.00 cm**-1
   3:         0.00 cm**-1
   4:         0.00 cm**-1
   5:         0.00 cm**-1
   6:       191.64 cm**-1
   7:       260.28 cm**-1
   8:       282.96 cm**-1
   9:       447.30 cm**-1
  10:       545.90 cm**-1
  11:       672.05 cm**-1
  12:       720.10 cm**-1
  13:       740.72 cm**-1
  14:       801.57 cm**-1
  15:       813.28 cm**-1
  16:       860.55 cm**-1
  17:       935.59 cm**-1
  18:       947.10 cm**-1
  19:       996.42 cm**-1
  20:      1015.85 cm**-1
  21:      1029.60 cm**-1
  22:      1044.46 cm**-1
  23:      1105.53 cm**-1
  24:      1109.68 cm**-1
  25:      1139.10 cm**-1
  26:      1157.73 cm**-1
  27:      1197.94 cm**-1
  28:      1232.23 cm**-1
  29:      1288.79 cm**-1
  30:      1341.98 cm**-1
  31:      1381.58 cm**-1
  32:      1443.92 cm**-1
  33:      1491.48 cm**-1
  34:      1631.58 cm**-1
  35:      1642.61 cm**-1
  36:      1655.33 cm**-1
  37:      3173.00 cm**-1
  38:      3220.06 cm**-1
  39:      3229.94 cm**-1
  40:      3236.64 cm**-1
  41:      3256.52 cm**-1
  42:      3277.71 cm**-1
  43:      3449.71 cm**-1
  44:      3508.86 cm**-1

IR SPECTRUM
-----------

 Mode    freq (cm**-1)   T**2         TX         TY         TZ
-------------------------------------------------------------------
   6:       191.64   12.958087  (  1.798795  -0.080858  -3.117032)
   7:       260.28    2.398078  (  0.583931   1.421418  -0.191503)
   8:       282.96   17.802632  ( -3.514344  -2.087651   1.045816)
   9:       447.30   38.187092  (  5.504300   0.068931  -2.808027)
  10:       545.90    0.984026  (  0.175200   0.141959   0.966012)
  11:       672.05    0.686520  (  0.439253  -0.121702  -0.691928)
  12:       720.10   13.708780  ( -1.932477  -2.581203   1.819809)
  13:       740.72    1.290817  (  0.104231  -0.999887   0.529319)
  14:       801.57   62.396167  (  6.860615  -1.354020  -3.673521)
  15:       813.28   34.729119  ( -1.911213  -0.956590  -5.491932)
  16:       860.55    4.580529  (  1.822360   0.229669   1.098538)
  17:       935.59    1.660775  ( -0.795110  -0.818771   0.598489)
  18:       947.10    9.061147  (  2.835418   0.447907   0.906051)
  19:       996.42   30.377773  ( -3.207537  -2.392744  -3.790020)
  20:      1015.85   15.115084  (  1.037524   2.628075  -2.670553)
  21:      1029.60    9.786898  ( -1.419048  -0.472121   2.747781)
  22:      1044.46   20.133832  ( -0.429593  -1.559717   4.185280)
  23:      1105.53   28.535672  ( -4.061592  -3.416730  -0.604233)
  24:      1109.68    2.341924  (  0.543544   1.037247   0.985192)
  25:      1139.10   10.001020  (  2.188581  -1.055241  -2.024253)
  26:      1157.73    4.686952  ( -0.605931   1.988278   0.605433)
  27:      1197.94   37.305116  ( -0.463821   5.048867   3.405719)
  28:      1232.23   75.028512  (  3.468792   7.821762  -1.347604)
  29:      1288.79    1.695753  (  0.427983   0.956345   0.773296)
  30:      1341.98   11.747801  ( -1.138085   0.040418  -3.232790)
  31:      1381.58    4.710228  ( -1.370979  -1.181666  -1.197626)
  32:      1443.92    8.446259  (  0.043036  -2.760749  -0.907013)
  33:      1491.48  150.138731  (-10.185537   6.138269   2.952154)
  34:      1631.58   38.255469  ( -4.527012  -3.182403  -2.762959)
  35:      1642.61    3.263152  (  1.434608  -0.709200  -0.837906)
  36:      1655.33   40.058167  (  0.700949   0.023271  -6.290175)
  37:      3173.00  185.968012  (-10.155124  -7.586199   5.029022)
  38:      3220.06    2.523511  (  1.551111   0.290853   0.181576)
  39:      3229.94    6.299688  ( -1.649881  -0.912159   1.656970)
  40:      3236.64    9.876538  (  0.766688   2.773124  -1.264323)
  41:      3256.52    9.373835  ( -1.225189   0.301582  -2.789587)
  42:      3277.71    6.394763  ( -1.117930  -2.166416  -0.672041)
  43:      3449.71  105.654995  (  9.820015   2.707192  -1.376010)
  44:      3508.86  106.552276  (  0.261541  -1.053608 -10.265173)

--------------------------
THERMOCHEMISTRY AT 298.15K
--------------------------

Temperature         ... 298.15 K
Pressure            ... 1.00 atm
Total Mass          ... 98.12 AMU

Throughout the following assumptions are being made:
  (1) The electronic state is orbitally nondegenerate
  (2) There are no thermally accessible electronically excited states
  (3) Hindered rotations indicated by low frequency modes) are not
      treated as such but are treated as vibrations and this may
      case some error
  (4) All equations used are the standard statistical mechanics
      equations for an ideal gas
  (5) All vibrations are strinctly harmonic

------------
INNER ENERGY
------------

The inner energy is: U= E(el) + E(ZPE) + E(vib) + E(rot) + E(trans)
    E(el)   - is the total energy from the electronic structure calculation
              = E(kin-el) + E(nuc-el) + E(el-el) + E(nuc-nuc)
    E(ZPE)  - the the zero temperature vibrational energy from the frequency calculation
    E(vib)  - the the finite temperature correction to E(ZPE) due to population
              of excietd vibrational states
    E(rot)  - is the rotational thermal energy
    E(trans)- is the translational thermal energy

Summary of contributions to the inner energy U:
Electronic energy                ...   -324.76287943 Eh
Zero point energy                ...      0.13094288 Eh      82.17 kcal/mol
Thermal vibrational correction   ...      0.00288645 Eh       1.81 kcal/mol
Thermal rotational correction    ...      0.00141627 Eh       0.89 kcal/mol
Thermal translational correction ...      0.00141627 Eh       0.89 kcal/mol
-----------------------------------------------------------------------
Total thermal energy                   -324.62621755 Eh

Summary of corrections to the electronic energy:
(perhaps to be used in another calculation)
Total thermal correction                  0.00571899 Eh       3.59 kcal/mol
Non-thermal (ZPE) correction              0.13094288 Eh      82.17 kcal/mol
-----------------------------------------------------------------------
Total correction                          0.13666188 Eh      85.76 kcal/mol

--------
ENTHALPY
--------

The enthalpy is H = U + kB*T
                kB is Boltzmann's constant
Total free energy                 ...   -324.62621755 Eh
Thermal Enthalpy correction       ...      0.00094421 Eh       0.59 kcal/mol
-----------------------------------------------------------------------
Total Enthalpy                    ...   -324.62527334 Eh

-------
ENTROPY
-------

The entropy contributions are T*S = T*(S(el)+S(vib)+S(rot)+S(trans)
     S(el)   - electronic entropy
     S(vib)  - vibrational entropy
     S(rot)  - rotational entropy
     S(trans)- translational entropy
The entropies will be listed as mutliplied by the temperature to get
units of energy

Electronic entropy                ...      0.00000000 Eh      0.00 kcal/mol
Vibrational entropy               ...      0.00436896 Eh      2.74 kcal/mol
Rotational entropy                ...      0.01159957 Eh      7.28 kcal/mol
Translational entropy             ...      0.01884443 Eh     11.83 kcal/mol
-----------------------------------------------------------------------
Final entropy term                ...      0.03481296 Eh     21.85 kcal/mol

CAUTION: The rotational entropy is not quite correctly treated here
         because it includes a symmetry number that is not yet correctly
         implemented in ORCA!
For a nonlinear molecule the correct rotational entropy is:
    S(rot) = R*(ln(qrot/sn)+1.5)
    R    = 8.31441 J/mol/K = 1.987191683e-3 kcal/mol/K
    qrot = 144920.1563927
    sn is the rotational symmetry number. We have assumed 3 here
       if it is different for your molecule then you should correct
       the printed rotational entropy by manually evaluating the equation
       as given above

For convenience we print out the resulting values for sn=1 - 12:
 sn= 1  qrot/sn=  144920.1564 T*S(rot)=     7.93 kcal/mol T*S(tot)=    22.50 kcal/mol
 sn= 2  qrot/sn=   72460.0782 T*S(rot)=     7.52 kcal/mol T*S(tot)=    22.09 kcal/mol
 sn= 3  qrot/sn=   48306.7188 T*S(rot)=     7.28 kcal/mol T*S(tot)=    21.85 kcal/mol
 sn= 4  qrot/sn=   36230.0391 T*S(rot)=     7.11 kcal/mol T*S(tot)=    21.67 kcal/mol
 sn= 5  qrot/sn=   28984.0313 T*S(rot)=     6.98 kcal/mol T*S(tot)=    21.54 kcal/mol
 sn= 6  qrot/sn=   24153.3594 T*S(rot)=     6.87 kcal/mol T*S(tot)=    21.43 kcal/mol
 sn= 7  qrot/sn=   20702.8795 T*S(rot)=     6.78 kcal/mol T*S(tot)=    21.34 kcal/mol
 sn= 8  qrot/sn=   18115.0195 T*S(rot)=     6.70 kcal/mol T*S(tot)=    21.26 kcal/mol
 sn= 9  qrot/sn=   16102.2396 T*S(rot)=     6.63 kcal/mol T*S(tot)=    21.19 kcal/mol
 sn=10  qrot/sn=   14492.0156 T*S(rot)=     6.57 kcal/mol T*S(tot)=    21.13 kcal/mol
 sn=11  qrot/sn=   13174.5597 T*S(rot)=     6.51 kcal/mol T*S(tot)=    21.08 kcal/mol
 sn=12  qrot/sn=   12076.6797 T*S(rot)=     6.46 kcal/mol T*S(tot)=    21.02 kcal/mol

-------------------
GIBBS FREE ENTHALPY
-------------------

The Gibbs free enthalpy is G = H - T*S

Total enthalpy                    ...   -324.62527334 Eh
Total entropy correction          ...     -0.03481296 Eh    -21.85 kcal/mol
-----------------------------------------------------------------------
Final Gibbs free enthalpy         ...   -324.66008631 Eh

For completeness - the Gibbs free enthalpy minus the electronic energy
G-E(el)                           ...      0.10279312 Eh     64.50 kcal/mol

                             ****ORCA TERMINATED NORMALLY****
TOTAL RUN TIME: 0 days 0 hours 35 minutes 25 seconds 940 msec
