                         Program Version 3.0.3 - RELEASE   -
|  1> ! NORI PBE0 def2-TZVP UseSym TightOPT Freq TightSCF Grid3 FinalGrid5 XYZFile
|  2> % pal
|  3>     nprocs 8
|  4> end
|  5> %method
|  6>     SymThresh 5.0e-2
|  7> end
|  8> % geom
|  9>     MaxIter 10
| 10> end
| 11> % maxcore 2000
| 12> % output
| 13>     printlevel mini
| 14>     print[ P_Basis ] 0
| 15>     print[ P_SCFInfo ] 1
| 16>     print[ P_SCFIterInfo ] 1
| 17>     print[ P_OrbEn ] 0
| 18>     print[ P_Cartesian ] 0
| 19> end
| 20> % elprop
| 21>     Dipole false
| 22> end
| 23> *xyz 1 1
| 24>  N        0.8654405703    -0.0371763923    -0.2697347321
| 25>  C        2.2634613030     0.1130954882     0.1532382429
| 26>  C        3.2496286014    -0.8170958709    -0.5053465128
| 27>  O        2.7042873064    -1.5708494979    -1.5455703655
| 28>  C        2.8141666367    -0.7405631648    -2.6867089824
| 29>  O        2.5581928926     0.5732186768    -2.1970092386
| 30>  C        3.1793803882     0.6061553874    -0.9439304559
| 31>  H        0.2340312093     0.5395813879     0.2868828153
| 32>  H        0.5552830594    -1.0117503827    -0.2336592015
| 33>  H        0.8267348233     0.2706445218    -1.2575770604
| 34>  H        2.3936120288     0.4234401820     1.1809231212
| 35>  H        4.0545463215    -1.2644972911     0.0640059986
| 36>  H        3.8224928972    -0.7928110610    -3.1096582146
| 37>  H        2.0529679147    -1.0120796314    -3.4163854034
| 38>  H        3.9197140473     1.3769576480    -0.7747300109
| 39> *
| 40>
| 41>                          ****END OF INPUT****
 Total Charge           Charge          ....    1
 Multiplicity           Mult            ....    1
 Number of Electrons    NEL             ....   54
FINAL SINGLE POINT ENERGY      -361.865343403512
FINAL SINGLE POINT ENERGY      -361.865344502513

CARTESIAN COORDINATES (ANGSTROEM)
---------------------------------
  N     -0.991274   -1.380802   -0.745620
  C     -1.153706    0.078822   -0.767825
  C     -0.678719    0.811342    0.460899
  O      0.001059    0.001622    1.372433
  C      1.343496    0.003740    0.923210
  O      1.242834   -0.000543   -0.498540
  C      0.155789    0.835733   -0.774239
  H     -1.428022   -1.825296   -1.553755
  H     -1.363530   -1.796683    0.112146
  H      0.028159   -1.560163   -0.767862
  H     -2.011904    0.428504   -1.325252
  H     -1.241707    1.645274    0.860445
  H      1.864179    0.905893    1.259348
  H      1.845906   -0.903102    1.255611
  H      0.330180    1.681848   -1.425576

FINAL SINGLE POINT ENERGY      -361.865344835736
                    ***********************HURRAY********************
 Multiplicity           Mult            ....    1
 Number of Electrons    NEL             ....   54
 Basis Dimension        Dim             ....  265
FINAL SINGLE POINT ENERGY      -361.865344976933

VIBRATIONAL FREQUENCIES
-----------------------

   0:         0.00 cm**-1
   1:         0.00 cm**-1
   2:         0.00 cm**-1
   3:         0.00 cm**-1
   4:         0.00 cm**-1
   5:         0.00 cm**-1
   6:       149.98 cm**-1
   7:       228.58 cm**-1
   8:       266.39 cm**-1
   9:       336.20 cm**-1
  10:       520.83 cm**-1
  11:       644.99 cm**-1
  12:       735.40 cm**-1
  13:       754.07 cm**-1
  14:       799.08 cm**-1
  15:       805.50 cm**-1
  16:       937.56 cm**-1
  17:       954.56 cm**-1
  18:      1020.95 cm**-1
  19:      1027.45 cm**-1
  20:      1057.70 cm**-1
  21:      1085.31 cm**-1
  22:      1103.54 cm**-1
  23:      1120.67 cm**-1
  24:      1152.91 cm**-1
  25:      1166.88 cm**-1
  26:      1180.97 cm**-1
  27:      1208.49 cm**-1
  28:      1236.56 cm**-1
  29:      1292.92 cm**-1
  30:      1336.01 cm**-1
  31:      1412.03 cm**-1
  32:      1439.78 cm**-1
  33:      1487.67 cm**-1
  34:      1537.73 cm**-1
  35:      1621.23 cm**-1
  36:      1666.92 cm**-1
  37:      3068.21 cm**-1
  38:      3172.53 cm**-1
  39:      3216.73 cm**-1
  40:      3223.81 cm**-1
  41:      3231.53 cm**-1
  42:      3265.83 cm**-1
  43:      3447.44 cm**-1
  44:      3516.90 cm**-1

IR SPECTRUM
-----------

 Mode    freq (cm**-1)   T**2         TX         TY         TZ
-------------------------------------------------------------------
   6:       149.98    8.396251  ( -0.970545  -0.061770  -2.729556)
   7:       228.58   16.564429  (  3.814751   0.207082  -1.403289)
   8:       266.39    9.416260  (  1.387415   0.893866   2.586956)
   9:       336.20   55.193999  ( -3.828578  -6.121777  -1.749241)
  10:       520.83    0.043756  (  0.169762  -0.085182  -0.087641)
  11:       644.99    6.133018  ( -1.327159  -1.663975  -1.266040)
  12:       735.40    7.145887  (  2.287148   0.916853   1.036447)
  13:       754.07    0.301278  ( -0.184118  -0.085393  -0.509986)
  14:       799.08   20.859311  (  1.657452  -0.395042  -4.237465)
  15:       805.50   20.713680  (  3.664107   1.960381   1.856046)
  16:       937.56   17.555972  (  1.709834  -1.249169  -3.615525)
  17:       954.56   89.930227  (  4.835491   0.302461  -8.152102)
  18:      1020.95   17.547594  ( -3.934937  -1.155877   0.853121)
  19:      1027.45    2.527543  (  0.063589  -1.438099  -0.674811)
  20:      1057.70    2.688453  ( -0.086879   1.507389  -0.639284)
  21:      1085.31  109.500936  (  9.029129   1.333275   5.118412)
  22:      1103.54    4.696162  ( -1.163952  -0.468306   1.766938)
  23:      1120.67    5.437738  ( -0.725462  -0.146162   2.211352)
  24:      1152.91   59.998745  ( -5.464448   3.272609  -4.407787)
  25:      1166.88    8.887695  (  2.632908   0.081436  -1.396015)
  26:      1180.97   16.764481  ( -0.319185   3.995493  -0.835844)
  27:      1208.49   70.595356  ( -7.164132   1.619903  -4.080011)
  28:      1236.56    1.951105  ( -0.867449   0.337370   1.041546)
  29:      1292.92    0.687563  (  0.659256  -0.479293  -0.152392)
  30:      1336.01   18.704772  (  3.468570  -1.692141   1.952037)
  31:      1412.03    2.203358  (  0.499041  -1.227619  -0.668780)
  32:      1439.78    0.706536  (  0.108220   0.319225   0.770013)
  33:      1487.67  145.443177  (  0.315965 -11.899564  -1.934867)
  34:      1537.73    5.186438  ( -0.727885  -2.008899  -0.788001)
  35:      1621.23   41.302622  ( -5.593952  -2.195317   2.278357)
  36:      1666.92   35.378892  ( -1.788233  -1.439527  -5.487156)
  37:      3068.21   26.671475  (  4.203790   1.440030   2.631718)
  38:      3172.53    2.799704  ( -0.409512   1.587162  -0.336034)
  39:      3216.73    2.410838  ( -0.091853   0.420835   1.491744)
  40:      3223.81    0.357544  (  0.458769   0.324939   0.203689)
  41:      3231.53    1.982928  ( -0.030083   1.136539  -0.830844)
  42:      3265.83  112.946314  (-10.549466  -1.017990  -0.786624)
  43:      3447.44   96.214043  ( -7.141643  -6.026270   2.982455)
  44:      3516.90  125.633235  (  3.160690   3.085724  10.301533)

--------------------------
THERMOCHEMISTRY AT 298.15K
--------------------------

Temperature         ... 298.15 K
Pressure            ... 1.00 atm
Total Mass          ... 102.11 AMU

Throughout the following assumptions are being made:
  (1) The electronic state is orbitally nondegenerate
  (2) There are no thermally accessible electronically excited states
  (3) Hindered rotations indicated by low frequency modes) are not
      treated as such but are treated as vibrations and this may
      case some error
  (4) All equations used are the standard statistical mechanics
      equations for an ideal gas
  (5) All vibrations are strinctly harmonic

------------
INNER ENERGY
------------

The inner energy is: U= E(el) + E(ZPE) + E(vib) + E(rot) + E(trans)
    E(el)   - is the total energy from the electronic structure calculation
              = E(kin-el) + E(nuc-el) + E(el-el) + E(nuc-nuc)
    E(ZPE)  - the the zero temperature vibrational energy from the frequency calculation
    E(vib)  - the the finite temperature correction to E(ZPE) due to population
              of excietd vibrational states
    E(rot)  - is the rotational thermal energy
    E(trans)- is the translational thermal energy

Summary of contributions to the inner energy U:
Electronic energy                ...   -361.86534498 Eh
Zero point energy                ...      0.13083937 Eh      82.10 kcal/mol
Thermal vibrational correction   ...      0.00309365 Eh       1.94 kcal/mol
Thermal rotational correction    ...      0.00141627 Eh       0.89 kcal/mol
Thermal translational correction ...      0.00141627 Eh       0.89 kcal/mol
-----------------------------------------------------------------------
Total thermal energy                   -361.72857941 Eh

Summary of corrections to the electronic energy:
(perhaps to be used in another calculation)
Total thermal correction                  0.00592620 Eh       3.72 kcal/mol
Non-thermal (ZPE) correction              0.13083937 Eh      82.10 kcal/mol
-----------------------------------------------------------------------
Total correction                          0.13676557 Eh      85.82 kcal/mol

--------
ENTHALPY
--------

The enthalpy is H = U + kB*T
                kB is Boltzmann's constant
Total free energy                 ...   -361.72857941 Eh
Thermal Enthalpy correction       ...      0.00094421 Eh       0.59 kcal/mol
-----------------------------------------------------------------------
Total Enthalpy                    ...   -361.72763520 Eh

-------
ENTROPY
-------

The entropy contributions are T*S = T*(S(el)+S(vib)+S(rot)+S(trans)
     S(el)   - electronic entropy
     S(vib)  - vibrational entropy
     S(rot)  - rotational entropy
     S(trans)- translational entropy
The entropies will be listed as mutliplied by the temperature to get
units of energy

Electronic entropy                ...      0.00000000 Eh      0.00 kcal/mol
Vibrational entropy               ...      0.00490476 Eh      3.08 kcal/mol
Rotational entropy                ...      0.01161384 Eh      7.29 kcal/mol
Translational entropy             ...      0.01890086 Eh     11.86 kcal/mol
-----------------------------------------------------------------------
Final entropy term                ...      0.03541945 Eh     22.23 kcal/mol

CAUTION: The rotational entropy is not quite correctly treated here
         because it includes a symmetry number that is not yet correctly
         implemented in ORCA!
For a nonlinear molecule the correct rotational entropy is:
    S(rot) = R*(ln(qrot/sn)+1.5)
    R    = 8.31441 J/mol/K = 1.987191683e-3 kcal/mol/K
    qrot = 147126.7017205
    sn is the rotational symmetry number. We have assumed 3 here
       if it is different for your molecule then you should correct
       the printed rotational entropy by manually evaluating the equation
       as given above

For convenience we print out the resulting values for sn=1 - 12:
 sn= 1  qrot/sn=  147126.7017 T*S(rot)=     7.94 kcal/mol T*S(tot)=    22.88 kcal/mol
 sn= 2  qrot/sn=   73563.3509 T*S(rot)=     7.53 kcal/mol T*S(tot)=    22.47 kcal/mol
 sn= 3  qrot/sn=   49042.2339 T*S(rot)=     7.29 kcal/mol T*S(tot)=    22.23 kcal/mol
 sn= 4  qrot/sn=   36781.6754 T*S(rot)=     7.12 kcal/mol T*S(tot)=    22.06 kcal/mol
 sn= 5  qrot/sn=   29425.3403 T*S(rot)=     6.99 kcal/mol T*S(tot)=    21.92 kcal/mol
 sn= 6  qrot/sn=   24521.1170 T*S(rot)=     6.88 kcal/mol T*S(tot)=    21.82 kcal/mol
 sn= 7  qrot/sn=   21018.1002 T*S(rot)=     6.79 kcal/mol T*S(tot)=    21.72 kcal/mol
 sn= 8  qrot/sn=   18390.8377 T*S(rot)=     6.71 kcal/mol T*S(tot)=    21.64 kcal/mol
 sn= 9  qrot/sn=   16347.4113 T*S(rot)=     6.64 kcal/mol T*S(tot)=    21.58 kcal/mol
 sn=10  qrot/sn=   14712.6702 T*S(rot)=     6.57 kcal/mol T*S(tot)=    21.51 kcal/mol
 sn=11  qrot/sn=   13375.1547 T*S(rot)=     6.52 kcal/mol T*S(tot)=    21.46 kcal/mol
 sn=12  qrot/sn=   12260.5585 T*S(rot)=     6.47 kcal/mol T*S(tot)=    21.40 kcal/mol

-------------------
GIBBS FREE ENTHALPY
-------------------

The Gibbs free enthalpy is G = H - T*S

Total enthalpy                    ...   -361.72763520 Eh
Total entropy correction          ...     -0.03541945 Eh    -22.23 kcal/mol
-----------------------------------------------------------------------
Final Gibbs free enthalpy         ...   -361.76305466 Eh

For completeness - the Gibbs free enthalpy minus the electronic energy
G-E(el)                           ...      0.10229032 Eh     64.19 kcal/mol

                             ****ORCA TERMINATED NORMALLY****
TOTAL RUN TIME: 0 days 0 hours 32 minutes 15 seconds 118 msec
