                         Program Version 3.0.3 - RELEASE   -
|  1> ! NORI PBE0 def2-TZVP UseSym TightOPT Freq TightSCF Grid3 FinalGrid5 XYZFile
|  2> % pal
|  3>     nprocs 8
|  4> end
|  5> %method
|  6>     SymThresh 5.0e-2
|  7> end
|  8> % geom
|  9>     MaxIter 10
| 10> end
| 11> % maxcore 2000
| 12> % output
| 13>     printlevel mini
| 14>     print[ P_Basis ] 0
| 15>     print[ P_SCFInfo ] 1
| 16>     print[ P_SCFIterInfo ] 1
| 17>     print[ P_OrbEn ] 0
| 18>     print[ P_Cartesian ] 0
| 19> end
| 20> % elprop
| 21>     Dipole false
| 22> end
| 23> *xyz 1 1
| 24>  N        0.8633705564    -0.1474682885    -0.3846172278
| 25>  C        2.1560557326    -0.1268055731     0.3264591880
| 26>  C        3.2278835912     0.6838336690    -0.3197845827
| 27>  O        2.9477401959     1.0119982815    -1.6529799055
| 28>  N        2.9591971133    -0.1353336007    -2.4416072236
| 29>  C        3.2211590597    -1.1424419131    -1.7066451931
| 30>  C        3.3557162197    -0.8168200664    -0.2752634626
| 31>  H        0.1739565385     0.4264394302     0.1064970241
| 32>  H        0.4804543508    -1.0899806890    -0.4920228737
| 33>  H        0.9911538222     0.2594025694    -1.3242892852
| 34>  H        2.0496669518    -0.1306454869     1.4022813039
| 35>  H        3.8153214751     1.4179480852     0.2155988591
| 36>  H        3.3276338590    -2.1199211803    -2.1595536736
| 37>  H        4.0088705337    -1.3749352372     0.3826570528
| 38> *
| 39>
| 40>                          ****END OF INPUT****
 Total Charge           Charge          ....    1
 Multiplicity           Mult            ....    1
 Number of Electrons    NEL             ....   52
FINAL SINGLE POINT ENERGY      -340.755626549798

CARTESIAN COORDINATES (ANGSTROEM)
---------------------------------
  N      1.661620    0.000459   -0.782495
  C      0.503268    0.913133   -0.832435
  C     -0.278614    1.023268    0.432385
  O      0.000047   -0.000135    1.348297
  N     -0.451076   -1.221294    0.854131
  C     -0.981838   -1.036620   -0.289335
  C     -0.897436    0.355081   -0.768058
  H      2.535615    0.530202   -0.754337
  H      1.699829   -0.641938   -1.577516
  H      1.611191   -0.558301    0.083380
  H      0.677758    1.787831   -1.442606
  H     -0.547530    1.971514    0.878266
  H     -1.441789   -1.870234   -0.804604
  H     -1.651187    0.788238   -1.411830

FINAL SINGLE POINT ENERGY      -340.755627515614
                    ***********************HURRAY********************
 Multiplicity           Mult            ....    1
 Number of Electrons    NEL             ....   52
 Basis Dimension        Dim             ....  259
FINAL SINGLE POINT ENERGY      -340.755627839004

VIBRATIONAL FREQUENCIES
-----------------------

   0:         0.00 cm**-1
   1:         0.00 cm**-1
   2:         0.00 cm**-1
   3:         0.00 cm**-1
   4:         0.00 cm**-1
   5:         0.00 cm**-1
   6:        75.56 cm**-1
   7:       223.63 cm**-1
   8:       257.96 cm**-1
   9:       441.36 cm**-1
  10:       554.10 cm**-1
  11:       682.43 cm**-1
  12:       726.55 cm**-1
  13:       764.84 cm**-1
  14:       818.20 cm**-1
  15:       879.10 cm**-1
  16:       890.81 cm**-1
  17:       907.32 cm**-1
  18:       945.42 cm**-1
  19:      1008.97 cm**-1
  20:      1018.99 cm**-1
  21:      1037.79 cm**-1
  22:      1060.67 cm**-1
  23:      1104.00 cm**-1
  24:      1129.48 cm**-1
  25:      1161.61 cm**-1
  26:      1203.05 cm**-1
  27:      1252.14 cm**-1
  28:      1333.02 cm**-1
  29:      1347.69 cm**-1
  30:      1432.12 cm**-1
  31:      1514.89 cm**-1
  32:      1629.13 cm**-1
  33:      1648.26 cm**-1
  34:      1674.11 cm**-1
  35:      3225.90 cm**-1
  36:      3230.51 cm**-1
  37:      3238.05 cm**-1
  38:      3243.54 cm**-1
  39:      3328.16 cm**-1
  40:      3452.87 cm**-1
  41:      3500.65 cm**-1

IR SPECTRUM
-----------

 Mode    freq (cm**-1)   T**2         TX         TY         TZ
-------------------------------------------------------------------
   6:        75.56    5.011773  ( -1.292949   0.234266   1.812505)
   7:       223.63    6.271806  ( -0.676079  -2.129379  -1.131577)
   8:       257.96   35.481309  ( -4.769711  -0.636192   3.510901)
   9:       441.36    9.573665  (  3.018232   0.648576  -0.208067)
  10:       554.10    1.235424  (  0.863260   0.553573   0.428676)
  11:       682.43    3.032631  (  1.022212  -1.246765  -0.658248)
  12:       726.55   18.303163  (  3.007822   3.028145   0.294117)
  13:       764.84   13.050849  ( -1.514020   0.598527   3.224959)
  14:       818.20   32.930965  (  3.417809   0.495950   4.582966)
  15:       879.10    7.627374  ( -0.358691  -2.256167  -1.551910)
  16:       890.81   26.616788  ( -2.660333   1.001697   4.305348)
  17:       907.32   23.601158  ( -3.445689  -1.009065  -3.272641)
  18:       945.42    6.064980  ( -1.768026  -1.685164  -0.315096)
  19:      1008.97   27.155655  ( -0.948198  -2.183024   4.635837)
  20:      1018.99   12.608391  ( -0.688055  -1.616046   3.085995)
  21:      1037.79    3.841458  (  0.539296   1.667066   0.878355)
  22:      1060.67   16.695562  ( -1.845241  -3.645116   0.061445)
  23:      1104.00    2.046794  ( -1.220944   0.423466   0.613812)
  24:      1129.48   13.883206  (  1.834387  -2.342464  -2.243009)
  25:      1161.61    7.763392  (  1.000054   2.231941   1.334811)
  26:      1203.05   14.761079  (  1.639626   1.858843  -2.935542)
  27:      1252.14    1.840245  (  0.728518  -1.144138  -0.021334)
  28:      1333.02   11.452382  ( -1.886935  -2.804562   0.162147)
  29:      1347.69   21.218104  ( -1.971682  -3.275332  -2.569587)
  30:      1432.12   11.163280  ( -1.272204  -3.050364   0.489959)
  31:      1514.89  151.536066  ( 10.388499  -6.571066   0.660491)
  32:      1629.13   25.913702  ( -4.499398  -1.984848   1.315104)
  33:      1648.26   46.150558  (  0.742740   0.201974   6.749674)
  34:      1674.11   16.616070  ( -2.336431  -3.249508  -0.773213)
  35:      3225.90    3.273304  (  1.455175  -0.518734   0.941640)
  36:      3230.51    3.436168  ( -0.787192   0.838504   1.453756)
  37:      3238.05    9.482936  ( -0.207262  -3.049405   0.375642)
  38:      3243.54    9.242798  (  2.043087   1.022060   2.005988)
  39:      3328.16   59.786630  (  1.238996   4.458715  -6.194463)
  40:      3452.87  113.510376  (  7.447877   0.211615  -7.615427)
  41:      3500.65  112.846030  (  6.748490   7.150798   4.021194)

--------------------------
THERMOCHEMISTRY AT 298.15K
--------------------------

Temperature         ... 298.15 K
Pressure            ... 1.00 atm
Total Mass          ... 99.11 AMU

Throughout the following assumptions are being made:
  (1) The electronic state is orbitally nondegenerate
  (2) There are no thermally accessible electronically excited states
  (3) Hindered rotations indicated by low frequency modes) are not
      treated as such but are treated as vibrations and this may
      case some error
  (4) All equations used are the standard statistical mechanics
      equations for an ideal gas
  (5) All vibrations are strinctly harmonic

------------
INNER ENERGY
------------

The inner energy is: U= E(el) + E(ZPE) + E(vib) + E(rot) + E(trans)
    E(el)   - is the total energy from the electronic structure calculation
              = E(kin-el) + E(nuc-el) + E(el-el) + E(nuc-nuc)
    E(ZPE)  - the the zero temperature vibrational energy from the frequency calculation
    E(vib)  - the the finite temperature correction to E(ZPE) due to population
              of excietd vibrational states
    E(rot)  - is the rotational thermal energy
    E(trans)- is the translational thermal energy

Summary of contributions to the inner energy U:
Electronic energy                ...   -340.75562784 Eh
Zero point energy                ...      0.11833457 Eh      74.26 kcal/mol
Thermal vibrational correction   ...      0.00310327 Eh       1.95 kcal/mol
Thermal rotational correction    ...      0.00141627 Eh       0.89 kcal/mol
Thermal translational correction ...      0.00141627 Eh       0.89 kcal/mol
-----------------------------------------------------------------------
Total thermal energy                   -340.63135746 Eh

Summary of corrections to the electronic energy:
(perhaps to be used in another calculation)
Total thermal correction                  0.00593581 Eh       3.72 kcal/mol
Non-thermal (ZPE) correction              0.11833457 Eh      74.26 kcal/mol
-----------------------------------------------------------------------
Total correction                          0.12427038 Eh      77.98 kcal/mol

--------
ENTHALPY
--------

The enthalpy is H = U + kB*T
                kB is Boltzmann's constant
Total free energy                 ...   -340.63135746 Eh
Thermal Enthalpy correction       ...      0.00094421 Eh       0.59 kcal/mol
-----------------------------------------------------------------------
Total Enthalpy                    ...   -340.63041325 Eh

-------
ENTROPY
-------

The entropy contributions are T*S = T*(S(el)+S(vib)+S(rot)+S(trans)
     S(el)   - electronic entropy
     S(vib)  - vibrational entropy
     S(rot)  - rotational entropy
     S(trans)- translational entropy
The entropies will be listed as mutliplied by the temperature to get
units of energy

Electronic entropy                ...      0.00000000 Eh      0.00 kcal/mol
Vibrational entropy               ...      0.00532664 Eh      3.34 kcal/mol
Rotational entropy                ...      0.01157263 Eh      7.26 kcal/mol
Translational entropy             ...      0.01885862 Eh     11.83 kcal/mol
-----------------------------------------------------------------------
Final entropy term                ...      0.03575790 Eh     22.44 kcal/mol

CAUTION: The rotational entropy is not quite correctly treated here
         because it includes a symmetry number that is not yet correctly
         implemented in ORCA!
For a nonlinear molecule the correct rotational entropy is:
    S(rot) = R*(ln(qrot/sn)+1.5)
    R    = 8.31441 J/mol/K = 1.987191683e-3 kcal/mol/K
    qrot = 140843.4726041
    sn is the rotational symmetry number. We have assumed 3 here
       if it is different for your molecule then you should correct
       the printed rotational entropy by manually evaluating the equation
       as given above

For convenience we print out the resulting values for sn=1 - 12:
 sn= 1  qrot/sn=  140843.4726 T*S(rot)=     7.91 kcal/mol T*S(tot)=    23.09 kcal/mol
 sn= 2  qrot/sn=   70421.7363 T*S(rot)=     7.50 kcal/mol T*S(tot)=    22.68 kcal/mol
 sn= 3  qrot/sn=   46947.8242 T*S(rot)=     7.26 kcal/mol T*S(tot)=    22.44 kcal/mol
 sn= 4  qrot/sn=   35210.8682 T*S(rot)=     7.09 kcal/mol T*S(tot)=    22.27 kcal/mol
 sn= 5  qrot/sn=   28168.6945 T*S(rot)=     6.96 kcal/mol T*S(tot)=    22.14 kcal/mol
 sn= 6  qrot/sn=   23473.9121 T*S(rot)=     6.85 kcal/mol T*S(tot)=    22.03 kcal/mol
 sn= 7  qrot/sn=   20120.4961 T*S(rot)=     6.76 kcal/mol T*S(tot)=    21.94 kcal/mol
 sn= 8  qrot/sn=   17605.4341 T*S(rot)=     6.68 kcal/mol T*S(tot)=    21.86 kcal/mol
 sn= 9  qrot/sn=   15649.2747 T*S(rot)=     6.61 kcal/mol T*S(tot)=    21.79 kcal/mol
 sn=10  qrot/sn=   14084.3473 T*S(rot)=     6.55 kcal/mol T*S(tot)=    21.73 kcal/mol
 sn=11  qrot/sn=   12803.9521 T*S(rot)=     6.49 kcal/mol T*S(tot)=    21.67 kcal/mol
 sn=12  qrot/sn=   11736.9561 T*S(rot)=     6.44 kcal/mol T*S(tot)=    21.62 kcal/mol

-------------------
GIBBS FREE ENTHALPY
-------------------

The Gibbs free enthalpy is G = H - T*S

Total enthalpy                    ...   -340.63041325 Eh
Total entropy correction          ...     -0.03575790 Eh    -22.44 kcal/mol
-----------------------------------------------------------------------
Final Gibbs free enthalpy         ...   -340.66617115 Eh

For completeness - the Gibbs free enthalpy minus the electronic energy
G-E(el)                           ...      0.08945669 Eh     56.13 kcal/mol

                             ****ORCA TERMINATED NORMALLY****
TOTAL RUN TIME: 0 days 0 hours 31 minutes 20 seconds 500 msec
