                         Program Version 3.0.3 - RELEASE   -
|  1> ! NORI PBE0 def2-TZVP UseSym TightOPT Freq TightSCF Grid3 FinalGrid5 XYZFile
|  2> % pal
|  3>     nprocs 8
|  4> end
|  5> %method
|  6>     SymThresh 5.0e-2
|  7> end
|  8> % geom
|  9>     MaxIter 10
| 10> end
| 11> % maxcore 2000
| 12> % output
| 13>     printlevel mini
| 14>     print[ P_Basis ] 0
| 15>     print[ P_SCFInfo ] 1
| 16>     print[ P_SCFIterInfo ] 1
| 17>     print[ P_OrbEn ] 0
| 18>     print[ P_Cartesian ] 0
| 19> end
| 20> % elprop
| 21>     Dipole false
| 22> end
| 23> *xyz 1 1
| 24>  N        0.9881856719     0.1484374238    -0.1464903867
| 25>  C        2.4698539513     0.1404425841    -0.0849780992
| 26>  C        3.2010660330    -0.9118082230    -0.8401031886
| 27>  C        3.2446253185     0.5210213081    -1.2974497534
| 28>  C        4.4967030918     1.3130328486    -1.1053374411
| 29>  C        4.5291276364     2.5466600336    -0.3282354738
| 30>  O        4.9993029005     1.3194534777     0.2155434455
| 31>  H        0.6076539482     1.0801179175     0.0391621269
| 32>  H        0.5883340726    -0.4969960803     0.5403477309
| 33>  H        0.6546469309    -0.1422145643    -1.0682071887
| 34>  H        2.8333848876     0.4485783192     0.8873996239
| 35>  H        4.0750178606    -1.3246597921    -0.3520147812
| 36>  H        2.6379363807    -1.6183621827    -1.4400597209
| 37>  H        2.6894406613     0.7470954294    -2.2047964934
| 38>  H        5.2459698549     1.1645426574    -1.8804421100
| 39>  H        3.6120749747     2.9289822070     0.1144184387
| 40>  H        5.2965258253     3.2869566362    -0.5316767291
| 41> *
| 42>
| 43>                          ****END OF INPUT****
 Total Charge           Charge          ....    1
 Multiplicity           Mult            ....    1
 Number of Electrons    NEL             ....   54
FINAL SINGLE POINT ENERGY      -325.951784004914
FINAL SINGLE POINT ENERGY      -325.951785196877

CARTESIAN COORDINATES (ANGSTROEM)
---------------------------------
  N      1.257319    0.001342   -2.135411
  C      0.692632    0.403084   -0.824076
  C     -0.382852    1.429905   -0.804797
  C     -0.696999   -0.005935   -0.481478
  C     -0.983615   -0.392230    0.933250
  C     -0.198287   -1.393282    1.646037
  O      0.002904   -0.002985    1.867192
  H      1.661627   -0.938066   -2.100012
  H      1.992039    0.649249   -2.433295
  H      0.538555    0.000080   -2.862700
  H      1.445944    0.405894   -0.045777
  H     -0.341071    2.145130    0.007288
  H     -0.748477    1.828979   -1.744589
  H     -1.266609   -0.547480   -1.232908
  H     -2.009794   -0.213825    1.248376
  H      0.615435   -1.904777    1.136333
  H     -0.645560   -1.933764    2.474056

FINAL SINGLE POINT ENERGY      -325.951785771046
                    ***********************HURRAY********************
 Multiplicity           Mult            ....    1
 Number of Electrons    NEL             ....   54
 Basis Dimension        Dim             ....  277
FINAL SINGLE POINT ENERGY      -325.951785921551

VIBRATIONAL FREQUENCIES
-----------------------

   0:         0.00 cm**-1
   1:         0.00 cm**-1
   2:         0.00 cm**-1
   3:         0.00 cm**-1
   4:         0.00 cm**-1
   5:         0.00 cm**-1
   6:        90.75 cm**-1
   7:       153.11 cm**-1
   8:       188.34 cm**-1
   9:       211.47 cm**-1
  10:       329.21 cm**-1
  11:       365.22 cm**-1
  12:       472.31 cm**-1
  13:       571.71 cm**-1
  14:       751.07 cm**-1
  15:       807.57 cm**-1
  16:       879.73 cm**-1
  17:       897.50 cm**-1
  18:       919.21 cm**-1
  19:       933.43 cm**-1
  20:       971.19 cm**-1
  21:      1031.78 cm**-1
  22:      1067.58 cm**-1
  23:      1082.96 cm**-1
  24:      1104.17 cm**-1
  25:      1117.59 cm**-1
  26:      1129.99 cm**-1
  27:      1170.95 cm**-1
  28:      1173.95 cm**-1
  29:      1181.96 cm**-1
  30:      1188.75 cm**-1
  31:      1244.87 cm**-1
  32:      1297.99 cm**-1
  33:      1346.95 cm**-1
  34:      1422.68 cm**-1
  35:      1448.95 cm**-1
  36:      1498.67 cm**-1
  37:      1519.88 cm**-1
  38:      1532.02 cm**-1
  39:      1652.94 cm**-1
  40:      1660.43 cm**-1
  41:      3112.04 cm**-1
  42:      3145.26 cm**-1
  43:      3152.18 cm**-1
  44:      3157.10 cm**-1
  45:      3210.67 cm**-1
  46:      3212.50 cm**-1
  47:      3246.82 cm**-1
  48:      3408.60 cm**-1
  49:      3483.40 cm**-1
  50:      3496.39 cm**-1

IR SPECTRUM
-----------

 Mode    freq (cm**-1)   T**2         TX         TY         TZ
-------------------------------------------------------------------
   6:        90.75    1.999278  (  0.538747  -0.621591  -1.150067)
   7:       153.11    8.923870  ( -0.406501   2.088324  -2.097029)
   8:       188.34    3.484974  ( -0.126551   0.980608   1.583467)
   9:       211.47    5.411988  ( -0.179960   0.259112   2.304878)
  10:       329.21   13.435026  (  2.053511   1.657956  -2.543482)
  11:       365.22    5.255231  ( -1.893348   1.289415   0.088736)
  12:       472.31    5.459109  (  0.044933   0.786709   2.199586)
  13:       571.71    4.626446  ( -0.440930  -1.184254  -1.740566)
  14:       751.07    5.084833  (  1.248858   1.360081   1.294360)
  15:       807.57    7.964900  (  2.744179   0.658326   0.031450)
  16:       879.73    3.455221  (  1.770857   0.066565   0.561119)
  17:       897.50   22.828789  (  1.776766  -3.913865   2.086517)
  18:       919.21   15.561794  (  2.798292   1.199145   2.508667)
  19:       933.43    9.417469  (  1.090131  -2.762946  -0.771502)
  20:       971.19   30.785855  (  4.071565   3.662254   0.892248)
  21:      1031.78    7.114341  (  0.405470  -2.118370  -1.569217)
  22:      1067.58   20.511477  (  3.051190   3.145535  -1.143384)
  23:      1082.96    3.536617  ( -1.469645  -0.275128   1.140643)
  24:      1104.17    7.263447  (  0.687946  -2.480623   0.797926)
  25:      1117.59    3.080690  ( -0.411018  -1.706271   0.019794)
  26:      1129.99    8.082226  (  2.772795   0.627437   0.012422)
  27:      1170.95    2.928436  ( -0.108647  -1.380314   1.005666)
  28:      1173.95    3.973200  ( -0.014577  -1.919889   0.535737)
  29:      1181.96    2.856606  ( -0.160587  -1.540496  -0.676528)
  30:      1188.75   11.825846  ( -1.069786  -2.307030   2.314955)
  31:      1244.87    2.437056  ( -0.072263  -1.510905   0.386005)
  32:      1297.99   10.633480  (  2.128187   2.444539   0.358514)
  33:      1346.95    1.827014  (  1.048137  -0.750521  -0.406375)
  34:      1422.68    5.705477  ( -0.919267  -1.827137  -1.233692)
  35:      1448.95    6.962569  (  0.834317   1.078335  -2.259132)
  36:      1498.67   61.995949  (  4.020218  -3.754331  -5.633719)
  37:      1519.88   84.624531  (  1.996180  -1.170695  -8.903329)
  38:      1532.02    7.040950  ( -1.435302   0.440750  -2.187829)
  39:      1652.94   32.904677  (  1.706599   5.434726  -0.675242)
  40:      1660.43   48.420360  (  5.968338  -1.309587   3.329307)
  41:      3112.04   16.101052  ( -1.965917   3.274829   1.229519)
  42:      3145.26    4.124764  ( -1.913228  -0.557450   0.391882)
  43:      3152.18    1.315494  (  0.946816  -0.345624  -0.547336)
  44:      3157.10    5.012420  ( -0.073146  -0.655466  -2.139494)
  45:      3210.67    5.322254  ( -0.808821   0.069894  -2.159439)
  46:      3212.50    6.795003  ( -1.936334  -0.011140   1.745133)
  47:      3246.82    2.067427  (  0.311755   0.862373   1.107497)
  48:      3408.60   41.097771  (  4.050737  -0.936298  -4.879821)
  49:      3483.40   95.593148  ( -3.410089  -9.112353   0.964089)
  50:      3496.39   85.860159  (  7.535627  -2.298402   4.877688)

--------------------------
THERMOCHEMISTRY AT 298.15K
--------------------------

Temperature         ... 298.15 K
Pressure            ... 1.00 atm
Total Mass          ... 100.14 AMU

Throughout the following assumptions are being made:
  (1) The electronic state is orbitally nondegenerate
  (2) There are no thermally accessible electronically excited states
  (3) Hindered rotations indicated by low frequency modes) are not
      treated as such but are treated as vibrations and this may
      case some error
  (4) All equations used are the standard statistical mechanics
      equations for an ideal gas
  (5) All vibrations are strinctly harmonic

------------
INNER ENERGY
------------

The inner energy is: U= E(el) + E(ZPE) + E(vib) + E(rot) + E(trans)
    E(el)   - is the total energy from the electronic structure calculation
              = E(kin-el) + E(nuc-el) + E(el-el) + E(nuc-nuc)
    E(ZPE)  - the the zero temperature vibrational energy from the frequency calculation
    E(vib)  - the the finite temperature correction to E(ZPE) due to population
              of excietd vibrational states
    E(rot)  - is the rotational thermal energy
    E(trans)- is the translational thermal energy

Summary of contributions to the inner energy U:
Electronic energy                ...   -325.95178592 Eh
Zero point energy                ...      0.15273258 Eh      95.84 kcal/mol
Thermal vibrational correction   ...      0.00438259 Eh       2.75 kcal/mol
Thermal rotational correction    ...      0.00141627 Eh       0.89 kcal/mol
Thermal translational correction ...      0.00141627 Eh       0.89 kcal/mol
-----------------------------------------------------------------------
Total thermal energy                   -325.79183820 Eh

Summary of corrections to the electronic energy:
(perhaps to be used in another calculation)
Total thermal correction                  0.00721514 Eh       4.53 kcal/mol
Non-thermal (ZPE) correction              0.15273258 Eh      95.84 kcal/mol
-----------------------------------------------------------------------
Total correction                          0.15994772 Eh     100.37 kcal/mol

--------
ENTHALPY
--------

The enthalpy is H = U + kB*T
                kB is Boltzmann's constant
Total free energy                 ...   -325.79183820 Eh
Thermal Enthalpy correction       ...      0.00094421 Eh       0.59 kcal/mol
-----------------------------------------------------------------------
Total Enthalpy                    ...   -325.79089399 Eh

-------
ENTROPY
-------

The entropy contributions are T*S = T*(S(el)+S(vib)+S(rot)+S(trans)
     S(el)   - electronic entropy
     S(vib)  - vibrational entropy
     S(rot)  - rotational entropy
     S(trans)- translational entropy
The entropies will be listed as mutliplied by the temperature to get
units of energy

Electronic entropy                ...      0.00000000 Eh      0.00 kcal/mol
Vibrational entropy               ...      0.00759509 Eh      4.77 kcal/mol
Rotational entropy                ...      0.01199582 Eh      7.53 kcal/mol
Translational entropy             ...      0.01887324 Eh     11.84 kcal/mol
-----------------------------------------------------------------------
Final entropy term                ...      0.03846414 Eh     24.14 kcal/mol

CAUTION: The rotational entropy is not quite correctly treated here
         because it includes a symmetry number that is not yet correctly
         implemented in ORCA!
For a nonlinear molecule the correct rotational entropy is:
    S(rot) = R*(ln(qrot/sn)+1.5)
    R    = 8.31441 J/mol/K = 1.987191683e-3 kcal/mol/K
    qrot = 220491.3589125
    sn is the rotational symmetry number. We have assumed 3 here
       if it is different for your molecule then you should correct
       the printed rotational entropy by manually evaluating the equation
       as given above

For convenience we print out the resulting values for sn=1 - 12:
 sn= 1  qrot/sn=  220491.3589 T*S(rot)=     8.18 kcal/mol T*S(tot)=    24.79 kcal/mol
 sn= 2  qrot/sn=  110245.6795 T*S(rot)=     7.77 kcal/mol T*S(tot)=    24.38 kcal/mol
 sn= 3  qrot/sn=   73497.1196 T*S(rot)=     7.53 kcal/mol T*S(tot)=    24.14 kcal/mol
 sn= 4  qrot/sn=   55122.8397 T*S(rot)=     7.36 kcal/mol T*S(tot)=    23.97 kcal/mol
 sn= 5  qrot/sn=   44098.2718 T*S(rot)=     7.22 kcal/mol T*S(tot)=    23.83 kcal/mol
 sn= 6  qrot/sn=   36748.5598 T*S(rot)=     7.12 kcal/mol T*S(tot)=    23.73 kcal/mol
 sn= 7  qrot/sn=   31498.7656 T*S(rot)=     7.03 kcal/mol T*S(tot)=    23.63 kcal/mol
 sn= 8  qrot/sn=   27561.4199 T*S(rot)=     6.95 kcal/mol T*S(tot)=    23.56 kcal/mol
 sn= 9  qrot/sn=   24499.0399 T*S(rot)=     6.88 kcal/mol T*S(tot)=    23.49 kcal/mol
 sn=10  qrot/sn=   22049.1359 T*S(rot)=     6.81 kcal/mol T*S(tot)=    23.42 kcal/mol
 sn=11  qrot/sn=   20044.6690 T*S(rot)=     6.76 kcal/mol T*S(tot)=    23.37 kcal/mol
 sn=12  qrot/sn=   18374.2799 T*S(rot)=     6.71 kcal/mol T*S(tot)=    23.32 kcal/mol

-------------------
GIBBS FREE ENTHALPY
-------------------

The Gibbs free enthalpy is G = H - T*S

Total enthalpy                    ...   -325.79089399 Eh
Total entropy correction          ...     -0.03846414 Eh    -24.14 kcal/mol
-----------------------------------------------------------------------
Final Gibbs free enthalpy         ...   -325.82935814 Eh

For completeness - the Gibbs free enthalpy minus the electronic energy
G-E(el)                           ...      0.12242778 Eh     76.82 kcal/mol

                             ****ORCA TERMINATED NORMALLY****
TOTAL RUN TIME: 0 days 0 hours 36 minutes 22 seconds 126 msec
