                         Program Version 3.0.3 - RELEASE   -
|  1> ! NORI PBE0 def2-TZVP UseSym TightOPT Freq TightSCF Grid3 FinalGrid5 XYZFile
|  2> % pal
|  3>     nprocs 8
|  4> end
|  5> %method
|  6>     SymThresh 5.0e-2
|  7> end
|  8> % geom
|  9>     MaxIter 10
| 10> end
| 11> % maxcore 2000
| 12> % output
| 13>     printlevel mini
| 14>     print[ P_Basis ] 0
| 15>     print[ P_SCFInfo ] 1
| 16>     print[ P_SCFIterInfo ] 1
| 17>     print[ P_OrbEn ] 0
| 18>     print[ P_Cartesian ] 0
| 19> end
| 20> % elprop
| 21>     Dipole false
| 22> end
| 23> *xyz 1 1
| 24>  N        0.9180940439     0.3632703081     0.0401832125
| 25>  C        2.3818261799     0.1142653070     0.0716905626
| 26>  C        2.9554430368    -0.7604347517    -0.9952069054
| 27>  C        3.2465888630     0.7086931702    -0.9856973787
| 28>  C        2.8184137593    -0.0190648990     1.5002119127
| 29>  C        2.3791154760     0.8925079732     2.5500180313
| 30>  O        1.7604294757    -0.3892385345     2.3739566196
| 31>  H        0.4518510720    -0.1479154369    -0.7085636991
| 32>  H        0.6797749005     1.3524063434    -0.0441023747
| 33>  H        0.5818338454     0.0069264505     0.9605068650
| 34>  H        3.7311978317    -1.4539374717    -0.6956741054
| 35>  H        2.2957226017    -1.1393116311    -1.7684337047
| 36>  H        2.7809366489     1.3206321579    -1.7501670731
| 37>  H        4.2280247468     1.0487171569    -0.6796729004
| 38>  H        3.7473307560    -0.5667266190     1.6345011447
| 39>  H        1.7510619065     1.7499130160     2.3186935101
| 40>  H        2.9722448559     0.9879574607     3.4528562830
| 41> *
| 42>
| 43>                          ****END OF INPUT****
 Total Charge           Charge          ....    1
 Multiplicity           Mult            ....    1
 Number of Electrons    NEL             ....   54
FINAL SINGLE POINT ENERGY      -325.956466237184

CARTESIAN COORDINATES (ANGSTROEM)
---------------------------------
  N      1.513266    0.000168   -0.243979
  C      0.076283    0.194472   -0.566442
  C     -0.280617    1.334748   -1.463391
  C     -0.404401   -0.076252   -1.950318
  C     -0.739144   -0.115784    0.653445
  C     -0.502347   -1.289536    1.485500
  O     -0.000760    0.000018    1.862157
  H      2.105553    0.722310   -0.652838
  H      1.869851   -0.912891   -0.529616
  H      1.550978    0.072896    0.795519
  H     -1.177738    1.888831   -1.217581
  H      0.517912    1.942499   -1.874670
  H      0.311899   -0.420388   -2.687636
  H     -1.389630   -0.515114   -2.047749
  H     -1.723323    0.344782    0.662350
  H      0.253328   -2.023482    1.214118
  H     -1.302203   -1.664883    2.114454

FINAL SINGLE POINT ENERGY      -325.956466843251
                    ***********************HURRAY********************
 Multiplicity           Mult            ....    1
 Number of Electrons    NEL             ....   54
 Basis Dimension        Dim             ....  277
FINAL SINGLE POINT ENERGY      -325.956467004405

VIBRATIONAL FREQUENCIES
-----------------------

   0:         0.00 cm**-1
   1:         0.00 cm**-1
   2:         0.00 cm**-1
   3:         0.00 cm**-1
   4:         0.00 cm**-1
   5:         0.00 cm**-1
   6:        78.94 cm**-1
   7:       226.86 cm**-1
   8:       258.57 cm**-1
   9:       274.70 cm**-1
  10:       336.45 cm**-1
  11:       353.23 cm**-1
  12:       465.80 cm**-1
  13:       529.72 cm**-1
  14:       706.23 cm**-1
  15:       763.48 cm**-1
  16:       852.98 cm**-1
  17:       895.54 cm**-1
  18:       910.26 cm**-1
  19:       938.08 cm**-1
  20:       972.40 cm**-1
  21:       975.32 cm**-1
  22:      1020.85 cm**-1
  23:      1070.87 cm**-1
  24:      1079.13 cm**-1
  25:      1106.28 cm**-1
  26:      1110.66 cm**-1
  27:      1164.54 cm**-1
  28:      1169.80 cm**-1
  29:      1179.00 cm**-1
  30:      1189.62 cm**-1
  31:      1275.77 cm**-1
  32:      1312.51 cm**-1
  33:      1343.68 cm**-1
  34:      1454.94 cm**-1
  35:      1458.85 cm**-1
  36:      1465.25 cm**-1
  37:      1512.21 cm**-1
  38:      1540.16 cm**-1
  39:      1637.45 cm**-1
  40:      1669.91 cm**-1
  41:      3119.17 cm**-1
  42:      3153.45 cm**-1
  43:      3156.83 cm**-1
  44:      3160.43 cm**-1
  45:      3170.36 cm**-1
  46:      3223.47 cm**-1
  47:      3239.16 cm**-1
  48:      3250.44 cm**-1
  49:      3467.37 cm**-1
  50:      3527.73 cm**-1

IR SPECTRUM
-----------

 Mode    freq (cm**-1)   T**2         TX         TY         TZ
-------------------------------------------------------------------
   6:        78.94    7.206907  ( -1.381330   2.208874   0.647849)
   7:       226.86    1.718634  (  0.882055  -0.560242  -0.791670)
   8:       258.57   36.414972  (  4.581835   0.982634  -3.802130)
   9:       274.70    5.790948  ( -2.383457   0.025977   0.330762)
  10:       336.45   16.121720  ( -1.221592  -1.244820   3.616609)
  11:       353.23   14.344180  (  1.813624  -1.388798  -3.020958)
  12:       465.80    0.679783  ( -0.304353  -0.747691  -0.167660)
  13:       529.72    7.284841  (  0.381469   1.644725  -2.105755)
  14:       706.23    7.464819  (  2.313535   1.400971   0.386857)
  15:       763.48    0.304509  ( -0.383262  -0.285127   0.276264)
  16:       852.98   15.372244  ( -1.496506  -1.961774  -3.046991)
  17:       895.54   32.276353  (  1.101940  -1.742968   5.293783)
  18:       910.26    0.938879  ( -0.837472   0.359371  -0.329199)
  19:       938.08   25.122090  ( -2.365876  -2.986089  -3.256991)
  20:       972.40   39.179264  ( -3.087992  -3.663812   4.027412)
  21:       975.32   15.894406  (  2.583470   2.727403   1.334677)
  22:      1020.85    0.759938  (  0.063470  -0.173844   0.851873)
  23:      1070.87   22.009027  (  3.159793  -0.168181  -3.463589)
  24:      1079.13   26.369371  ( -0.888877   0.478618  -5.034897)
  25:      1106.28    5.346994  ( -1.587311  -1.610769   0.482557)
  26:      1110.66    1.204447  ( -0.740261   0.793942   0.161606)
  27:      1164.54    3.284921  (  0.306818   1.786097  -0.025325)
  28:      1169.80    1.179517  (  0.642153   0.528168   0.698710)
  29:      1179.00    9.362797  ( -1.326169   2.417233   1.327049)
  30:      1189.62    0.595126  (  0.008564   0.632321   0.441841)
  31:      1275.77    4.681686  ( -0.983992  -1.775168  -0.749816)
  32:      1312.51    1.550637  ( -0.854622  -0.841922  -0.333805)
  33:      1343.68   16.329880  (  1.869706   1.179862   3.382603)
  34:      1454.94  106.157725  ( 10.104800   0.804353   1.844928)
  35:      1458.85   33.847083  ( -4.848178   2.946529   1.288496)
  36:      1465.25   64.105005  ( -7.851555  -1.522943  -0.372478)
  37:      1512.21   19.197769  ( -3.635871  -1.275279   2.086115)
  38:      1540.16    3.731173  (  0.429337   1.129370  -1.507105)
  39:      1637.45   25.480783  (  1.792865  -3.173137  -3.492509)
  40:      1669.91   39.072708  ( -2.697675  -5.093904   2.418139)
  41:      3119.17    7.020062  ( -0.978885   2.433508  -0.374012)
  42:      3153.45    2.434416  ( -0.470032   0.202226  -1.473971)
  43:      3156.83   14.126215  (  0.184744  -0.473828   3.723919)
  44:      3160.43  182.593087  ( -4.395870  -0.884054  12.747073)
  45:      3170.36   14.365182  (  0.747313  -0.075909  -3.714962)
  46:      3223.47    1.325653  ( -1.020420   0.472067   0.248091)
  47:      3239.16    0.214239  (  0.227635   0.400903   0.041210)
  48:      3250.44    0.788398  (  0.843799  -0.029531  -0.274828)
  49:      3467.37   78.286412  (  6.721765  -2.150496  -5.336633)
  50:      3527.73   88.746649  (  3.221283   8.734919  -1.439159)

--------------------------
THERMOCHEMISTRY AT 298.15K
--------------------------

Temperature         ... 298.15 K
Pressure            ... 1.00 atm
Total Mass          ... 100.14 AMU

Throughout the following assumptions are being made:
  (1) The electronic state is orbitally nondegenerate
  (2) There are no thermally accessible electronically excited states
  (3) Hindered rotations indicated by low frequency modes) are not
      treated as such but are treated as vibrations and this may
      case some error
  (4) All equations used are the standard statistical mechanics
      equations for an ideal gas
  (5) All vibrations are strinctly harmonic

------------
INNER ENERGY
------------

The inner energy is: U= E(el) + E(ZPE) + E(vib) + E(rot) + E(trans)
    E(el)   - is the total energy from the electronic structure calculation
              = E(kin-el) + E(nuc-el) + E(el-el) + E(nuc-nuc)
    E(ZPE)  - the the zero temperature vibrational energy from the frequency calculation
    E(vib)  - the the finite temperature correction to E(ZPE) due to population
              of excietd vibrational states
    E(rot)  - is the rotational thermal energy
    E(trans)- is the translational thermal energy

Summary of contributions to the inner energy U:
Electronic energy                ...   -325.95646700 Eh
Zero point energy                ...      0.15210967 Eh      95.45 kcal/mol
Thermal vibrational correction   ...      0.00418534 Eh       2.63 kcal/mol
Thermal rotational correction    ...      0.00141627 Eh       0.89 kcal/mol
Thermal translational correction ...      0.00141627 Eh       0.89 kcal/mol
-----------------------------------------------------------------------
Total thermal energy                   -325.79733945 Eh

Summary of corrections to the electronic energy:
(perhaps to be used in another calculation)
Total thermal correction                  0.00701789 Eh       4.40 kcal/mol
Non-thermal (ZPE) correction              0.15210967 Eh      95.45 kcal/mol
-----------------------------------------------------------------------
Total correction                          0.15912756 Eh      99.85 kcal/mol

--------
ENTHALPY
--------

The enthalpy is H = U + kB*T
                kB is Boltzmann's constant
Total free energy                 ...   -325.79733945 Eh
Thermal Enthalpy correction       ...      0.00094421 Eh       0.59 kcal/mol
-----------------------------------------------------------------------
Total Enthalpy                    ...   -325.79639524 Eh

-------
ENTROPY
-------

The entropy contributions are T*S = T*(S(el)+S(vib)+S(rot)+S(trans)
     S(el)   - electronic entropy
     S(vib)  - vibrational entropy
     S(rot)  - rotational entropy
     S(trans)- translational entropy
The entropies will be listed as mutliplied by the temperature to get
units of energy

Electronic entropy                ...      0.00000000 Eh      0.00 kcal/mol
Vibrational entropy               ...      0.00701716 Eh      4.40 kcal/mol
Rotational entropy                ...      0.01189398 Eh      7.46 kcal/mol
Translational entropy             ...      0.01887324 Eh     11.84 kcal/mol
-----------------------------------------------------------------------
Final entropy term                ...      0.03778438 Eh     23.71 kcal/mol

CAUTION: The rotational entropy is not quite correctly treated here
         because it includes a symmetry number that is not yet correctly
         implemented in ORCA!
For a nonlinear molecule the correct rotational entropy is:
    S(rot) = R*(ln(qrot/sn)+1.5)
    R    = 8.31441 J/mol/K = 1.987191683e-3 kcal/mol/K
    qrot = 197947.1320256
    sn is the rotational symmetry number. We have assumed 3 here
       if it is different for your molecule then you should correct
       the printed rotational entropy by manually evaluating the equation
       as given above

For convenience we print out the resulting values for sn=1 - 12:
 sn= 1  qrot/sn=  197947.1320 T*S(rot)=     8.11 kcal/mol T*S(tot)=    24.36 kcal/mol
 sn= 2  qrot/sn=   98973.5660 T*S(rot)=     7.70 kcal/mol T*S(tot)=    23.95 kcal/mol
 sn= 3  qrot/sn=   65982.3773 T*S(rot)=     7.46 kcal/mol T*S(tot)=    23.71 kcal/mol
 sn= 4  qrot/sn=   49486.7830 T*S(rot)=     7.29 kcal/mol T*S(tot)=    23.54 kcal/mol
 sn= 5  qrot/sn=   39589.4264 T*S(rot)=     7.16 kcal/mol T*S(tot)=    23.41 kcal/mol
 sn= 6  qrot/sn=   32991.1887 T*S(rot)=     7.05 kcal/mol T*S(tot)=    23.30 kcal/mol
 sn= 7  qrot/sn=   28278.1617 T*S(rot)=     6.96 kcal/mol T*S(tot)=    23.21 kcal/mol
 sn= 8  qrot/sn=   24743.3915 T*S(rot)=     6.88 kcal/mol T*S(tot)=    23.13 kcal/mol
 sn= 9  qrot/sn=   21994.1258 T*S(rot)=     6.81 kcal/mol T*S(tot)=    23.06 kcal/mol
 sn=10  qrot/sn=   19794.7132 T*S(rot)=     6.75 kcal/mol T*S(tot)=    23.00 kcal/mol
 sn=11  qrot/sn=   17995.1938 T*S(rot)=     6.69 kcal/mol T*S(tot)=    22.94 kcal/mol
 sn=12  qrot/sn=   16495.5943 T*S(rot)=     6.64 kcal/mol T*S(tot)=    22.89 kcal/mol

-------------------
GIBBS FREE ENTHALPY
-------------------

The Gibbs free enthalpy is G = H - T*S

Total enthalpy                    ...   -325.79639524 Eh
Total entropy correction          ...     -0.03778438 Eh    -23.71 kcal/mol
-----------------------------------------------------------------------
Final Gibbs free enthalpy         ...   -325.83417962 Eh

For completeness - the Gibbs free enthalpy minus the electronic energy
G-E(el)                           ...      0.12228738 Eh     76.74 kcal/mol

                             ****ORCA TERMINATED NORMALLY****
TOTAL RUN TIME: 0 days 0 hours 37 minutes 10 seconds 528 msec
