                         Program Version 3.0.3 - RELEASE   -
|  1> ! NORI PBE0 def2-TZVP UseSym TightOPT Freq TightSCF Grid3 FinalGrid5 XYZFile
|  2> % pal
|  3>     nprocs 8
|  4> end
|  5> %method
|  6>     SymThresh 5.0e-2
|  7> end
|  8> % geom
|  9>     MaxIter 10
| 10> end
| 11> % maxcore 2000
| 12> % output
| 13>     printlevel mini
| 14>     print[ P_Basis ] 0
| 15>     print[ P_SCFInfo ] 1
| 16>     print[ P_SCFIterInfo ] 1
| 17>     print[ P_OrbEn ] 0
| 18>     print[ P_Cartesian ] 0
| 19> end
| 20> % elprop
| 21>     Dipole false
| 22> end
| 23> *xyz 1 1
| 24>  N        0.9826343322     0.6591497026    -0.5560626585
| 25>  C        2.3372280424     0.1796725745    -0.2207790053
| 26>  C        2.9808766753    -1.0098741514    -0.8397612916
| 27>  C        3.3901880303     0.3822376358    -1.2424056158
| 28>  C        4.6187046221     1.1335496656    -0.8187565657
| 29>  C        4.3387062326     2.6261856138    -0.8824447313
| 30>  O        3.0908361499     2.8978813487    -0.2355053016
| 31>  H        1.0239742732     1.6868991217    -0.5205275799
| 32>  H        0.2662288302     0.3242429371     0.0916361982
| 33>  H        0.7064073933     0.3839017063    -1.4997417457
| 34>  H        2.5721121778     0.4323588029     0.8037928435
| 35>  H        3.6125016441    -1.5982070528    -0.1850188630
| 36>  H        2.4426838723    -1.5929885712    -1.5782328575
| 37>  H        3.0201115311     0.6616575459    -2.2279839511
| 38>  H        5.4677779981     0.9051535457    -1.4673897341
| 39>  H        4.9011985676     0.8426322720     0.1970133507
| 40>  H        4.2887769719     2.9518992210    -1.9284911698
| 41>  H        5.1477155301     3.1767811763    -0.3954612540
| 42>  H        3.0499771256     3.8399069054    -0.0507200675
| 43> *
| 44>
| 45>                          ****END OF INPUT****
 Total Charge           Charge          ....    1
 Multiplicity           Mult            ....    1
 Number of Electrons    NEL             ....   56
FINAL SINGLE POINT ENERGY      -327.203715796347
FINAL SINGLE POINT ENERGY      -327.203717743322
FINAL SINGLE POINT ENERGY      -327.203719441953

CARTESIAN COORDINATES (ANGSTROEM)
---------------------------------
  N      2.080855    0.001602   -0.399141
  C      0.764414    0.563636   -0.757867
  C      0.067400    0.301179   -2.044712
  C     -0.385253   -0.369396   -0.774594
  C     -1.569999   -0.009345    0.074467
  C     -1.308333   -0.441804    1.507927
  O     -0.005581    0.001355    1.901496
  H      2.047302   -0.196027    0.609900
  H      2.854781    0.640484   -0.594184
  H      2.266399   -0.874885   -0.889411
  H      0.630633    1.519766   -0.271146
  H     -0.494802    1.131261   -2.454886
  H      0.532068   -0.331935   -2.791748
  H     -0.119064   -1.425056   -0.735505
  H     -2.478147   -0.501055   -0.283074
  H     -1.747386    1.069447    0.028497
  H     -1.363428   -1.534753    1.583091
  H     -2.070367   -0.019241    2.168472
  H      0.048116   -0.047598    2.859609

FINAL SINGLE POINT ENERGY      -327.203719984465
                    ***********************HURRAY********************
 Multiplicity           Mult            ....    1
 Number of Electrons    NEL             ....   56
 Basis Dimension        Dim             ....  289
FINAL SINGLE POINT ENERGY      -327.203720335260

VIBRATIONAL FREQUENCIES
-----------------------

   0:         0.00 cm**-1
   1:         0.00 cm**-1
   2:         0.00 cm**-1
   3:         0.00 cm**-1
   4:         0.00 cm**-1
   5:         0.00 cm**-1
   6:        74.58 cm**-1
   7:       111.36 cm**-1
   8:       187.75 cm**-1
   9:       261.01 cm**-1
  10:       302.30 cm**-1
  11:       307.44 cm**-1
  12:       340.75 cm**-1
  13:       395.45 cm**-1
  14:       410.94 cm**-1
  15:       523.93 cm**-1
  16:       790.81 cm**-1
  17:       806.67 cm**-1
  18:       845.19 cm**-1
  19:       903.05 cm**-1
  20:       922.23 cm**-1
  21:       945.46 cm**-1
  22:       990.28 cm**-1
  23:      1023.11 cm**-1
  24:      1068.92 cm**-1
  25:      1090.76 cm**-1
  26:      1095.91 cm**-1
  27:      1114.50 cm**-1
  28:      1173.35 cm**-1
  29:      1197.86 cm**-1
  30:      1205.71 cm**-1
  31:      1223.12 cm**-1
  32:      1264.93 cm**-1
  33:      1270.52 cm**-1
  34:      1318.29 cm**-1
  35:      1346.72 cm**-1
  36:      1403.48 cm**-1
  37:      1444.47 cm**-1
  38:      1451.78 cm**-1
  39:      1479.14 cm**-1
  40:      1486.29 cm**-1
  41:      1512.70 cm**-1
  42:      1525.67 cm**-1
  43:      1648.86 cm**-1
  44:      1661.62 cm**-1
  45:      3030.31 cm**-1
  46:      3064.97 cm**-1
  47:      3095.49 cm**-1
  48:      3115.31 cm**-1
  49:      3130.16 cm**-1
  50:      3156.58 cm**-1
  51:      3222.71 cm**-1
  52:      3244.36 cm**-1
  53:      3366.81 cm**-1
  54:      3467.16 cm**-1
  55:      3509.96 cm**-1
  56:      3867.99 cm**-1

IR SPECTRUM
-----------

 Mode    freq (cm**-1)   T**2         TX         TY         TZ
-------------------------------------------------------------------
   6:        74.58   26.864946  (  3.053394  -0.862799  -4.098452)
   7:       111.36    6.878825  (  1.226935   1.641261  -1.636984)
   8:       187.75    2.930817  (  0.571290   1.606872   0.149689)
   9:       261.01    0.245096  (  0.183061  -0.095292  -0.450005)
  10:       302.30    0.656965  ( -0.739906   0.055600   0.326209)
  11:       307.44    5.542845  ( -2.192171  -0.775960  -0.367584)
  12:       340.75  120.510745  (  2.975497 -10.490340  -1.268831)
  13:       395.45    6.437620  ( -1.601797   0.586844  -1.878159)
  14:       410.94    8.512141  (  2.890924   0.270276  -0.285750)
  15:       523.93    6.887149  (  1.439279   0.668575   2.090127)
  16:       790.81    8.268675  (  1.044723   2.512525   0.929755)
  17:       806.67    1.299645  (  0.930541   0.455003  -0.476141)
  18:       845.19    9.755543  (  0.128703  -1.056907   2.936311)
  19:       903.05   19.997556  ( -4.325908  -1.122003  -0.158709)
  20:       922.23    3.220311  (  1.354275   1.042789  -0.546663)
  21:       945.46   10.058963  ( -0.122506  -1.948797  -2.499229)
  22:       990.28    3.573690  (  0.574890  -1.318246   1.226955)
  23:      1023.11   41.422846  ( -5.170999  -3.815093  -0.358727)
  24:      1068.92    2.457282  ( -0.095838  -0.814487   1.335930)
  25:      1090.76   14.285272  (  3.290669   0.325163   1.830584)
  26:      1095.91   42.232268  ( -5.790207  -1.850734  -2.297946)
  27:      1114.50   11.928609  (  0.006507  -0.109722   3.452032)
  28:      1173.35   11.557698  (  1.105854   0.076454  -3.213867)
  29:      1197.86   10.504181  (  2.564558   0.788750  -1.817992)
  30:      1205.71    6.227332  (  0.062339  -0.646997   2.409324)
  31:      1223.12   24.274505  ( -4.266520  -1.495139  -1.958537)
  32:      1264.93    5.813666  ( -1.547229  -1.837590  -0.207394)
  33:      1270.52    1.784418  (  0.629324  -0.931352   0.721770)
  34:      1318.29   29.589841  ( -5.007471  -2.124785   0.019115)
  35:      1346.72    0.382258  (  0.230213   0.168238  -0.548594)
  36:      1403.48    2.490161  (  1.325156   0.304421   0.800905)
  37:      1444.47    9.795041  ( -0.361555   1.617666  -2.654708)
  38:      1451.78    0.406547  ( -0.219702  -0.557858   0.216961)
  39:      1479.14   21.994462  (  2.935600  -3.002423   2.088581)
  40:      1486.29  139.694426  ( 10.794137  -4.024223   2.643230)
  41:      1512.70    1.900940  (  0.120531  -1.343050   0.287454)
  42:      1525.67   12.686835  ( -1.249569   1.224116   3.102733)
  43:      1648.86   32.087529  (  2.239928  -1.411618  -5.007752)
  44:      1661.62   34.075233  (  2.120195   5.370228   0.860618)
  45:      3030.31   31.277372  ( -3.026862  -4.507752   1.340020)
  46:      3064.97    4.679584  (  0.676059  -1.710337   1.138981)
  47:      3095.49   18.675375  ( -3.145412   2.240123   1.940001)
  48:      3115.31    5.436187  ( -1.832071  -1.427429   0.205300)
  49:      3130.16    8.996008  ( -0.870513   2.869533  -0.063216)
  50:      3156.58    1.054214  ( -0.963070   0.351831  -0.054094)
  51:      3222.71    0.695811  (  0.099298   0.698083   0.445679)
  52:      3244.36    0.296244  (  0.239460  -0.478489  -0.099755)
  53:      3366.81   60.667674  ( -0.462092   1.320798  -7.662221)
  54:      3467.16  109.876293  (  7.269361   1.730625  -7.351028)
  55:      3509.96   78.923041  (  1.325716   8.350193   2.727598)
  56:      3867.99   79.605019  (  2.084323   0.326410   8.669145)

--------------------------
THERMOCHEMISTRY AT 298.15K
--------------------------

Temperature         ... 298.15 K
Pressure            ... 1.00 atm
Total Mass          ... 102.16 AMU

Throughout the following assumptions are being made:
  (1) The electronic state is orbitally nondegenerate
  (2) There are no thermally accessible electronically excited states
  (3) Hindered rotations indicated by low frequency modes) are not
      treated as such but are treated as vibrations and this may
      case some error
  (4) All equations used are the standard statistical mechanics
      equations for an ideal gas
  (5) All vibrations are strinctly harmonic

------------
INNER ENERGY
------------

The inner energy is: U= E(el) + E(ZPE) + E(vib) + E(rot) + E(trans)
    E(el)   - is the total energy from the electronic structure calculation
              = E(kin-el) + E(nuc-el) + E(el-el) + E(nuc-nuc)
    E(ZPE)  - the the zero temperature vibrational energy from the frequency calculation
    E(vib)  - the the finite temperature correction to E(ZPE) due to population
              of excietd vibrational states
    E(rot)  - is the rotational thermal energy
    E(trans)- is the translational thermal energy

Summary of contributions to the inner energy U:
Electronic energy                ...   -327.20372034 Eh
Zero point energy                ...      0.17632731 Eh     110.65 kcal/mol
Thermal vibrational correction   ...      0.00527262 Eh       3.31 kcal/mol
Thermal rotational correction    ...      0.00141627 Eh       0.89 kcal/mol
Thermal translational correction ...      0.00141627 Eh       0.89 kcal/mol
-----------------------------------------------------------------------
Total thermal energy                   -327.01928787 Eh

Summary of corrections to the electronic energy:
(perhaps to be used in another calculation)
Total thermal correction                  0.00810516 Eh       5.09 kcal/mol
Non-thermal (ZPE) correction              0.17632731 Eh     110.65 kcal/mol
-----------------------------------------------------------------------
Total correction                          0.18443247 Eh     115.73 kcal/mol

--------
ENTHALPY
--------

The enthalpy is H = U + kB*T
                kB is Boltzmann's constant
Total free energy                 ...   -327.01928787 Eh
Thermal Enthalpy correction       ...      0.00094421 Eh       0.59 kcal/mol
-----------------------------------------------------------------------
Total Enthalpy                    ...   -327.01834366 Eh

-------
ENTROPY
-------

The entropy contributions are T*S = T*(S(el)+S(vib)+S(rot)+S(trans)
     S(el)   - electronic entropy
     S(vib)  - vibrational entropy
     S(rot)  - rotational entropy
     S(trans)- translational entropy
The entropies will be listed as mutliplied by the temperature to get
units of energy

Electronic entropy                ...      0.00000000 Eh      0.00 kcal/mol
Vibrational entropy               ...      0.00924925 Eh      5.80 kcal/mol
Rotational entropy                ...      0.01212069 Eh      7.61 kcal/mol
Translational entropy             ...      0.01890147 Eh     11.86 kcal/mol
-----------------------------------------------------------------------
Final entropy term                ...      0.04027141 Eh     25.27 kcal/mol

CAUTION: The rotational entropy is not quite correctly treated here
         because it includes a symmetry number that is not yet correctly
         implemented in ORCA!
For a nonlinear molecule the correct rotational entropy is:
    S(rot) = R*(ln(qrot/sn)+1.5)
    R    = 8.31441 J/mol/K = 1.987191683e-3 kcal/mol/K
    qrot = 251668.4006598
    sn is the rotational symmetry number. We have assumed 3 here
       if it is different for your molecule then you should correct
       the printed rotational entropy by manually evaluating the equation
       as given above

For convenience we print out the resulting values for sn=1 - 12:
 sn= 1  qrot/sn=  251668.4007 T*S(rot)=     8.26 kcal/mol T*S(tot)=    25.92 kcal/mol
 sn= 2  qrot/sn=  125834.2003 T*S(rot)=     7.85 kcal/mol T*S(tot)=    25.51 kcal/mol
 sn= 3  qrot/sn=   83889.4669 T*S(rot)=     7.61 kcal/mol T*S(tot)=    25.27 kcal/mol
 sn= 4  qrot/sn=   62917.1002 T*S(rot)=     7.44 kcal/mol T*S(tot)=    25.10 kcal/mol
 sn= 5  qrot/sn=   50333.6801 T*S(rot)=     7.30 kcal/mol T*S(tot)=    24.97 kcal/mol
 sn= 6  qrot/sn=   41944.7334 T*S(rot)=     7.20 kcal/mol T*S(tot)=    24.86 kcal/mol
 sn= 7  qrot/sn=   35952.6287 T*S(rot)=     7.10 kcal/mol T*S(tot)=    24.77 kcal/mol
 sn= 8  qrot/sn=   31458.5501 T*S(rot)=     7.02 kcal/mol T*S(tot)=    24.69 kcal/mol
 sn= 9  qrot/sn=   27963.1556 T*S(rot)=     6.95 kcal/mol T*S(tot)=    24.62 kcal/mol
 sn=10  qrot/sn=   25166.8401 T*S(rot)=     6.89 kcal/mol T*S(tot)=    24.56 kcal/mol
 sn=11  qrot/sn=   22878.9455 T*S(rot)=     6.84 kcal/mol T*S(tot)=    24.50 kcal/mol
 sn=12  qrot/sn=   20972.3667 T*S(rot)=     6.78 kcal/mol T*S(tot)=    24.45 kcal/mol

-------------------
GIBBS FREE ENTHALPY
-------------------

The Gibbs free enthalpy is G = H - T*S

Total enthalpy                    ...   -327.01834366 Eh
Total entropy correction          ...     -0.04027141 Eh    -25.27 kcal/mol
-----------------------------------------------------------------------
Final Gibbs free enthalpy         ...   -327.05861507 Eh

For completeness - the Gibbs free enthalpy minus the electronic energy
G-E(el)                           ...      0.14510526 Eh     91.05 kcal/mol

                             ****ORCA TERMINATED NORMALLY****
TOTAL RUN TIME: 0 days 0 hours 48 minutes 36 seconds 740 msec
