                         Program Version 3.0.3 - RELEASE   -
|  1> ! NORI PBE0 def2-TZVP UseSym TightOPT Freq TightSCF Grid3 FinalGrid5 XYZFile
|  2> % pal
|  3>     nprocs 8
|  4> end
|  5> %method
|  6>     SymThresh 5.0e-2
|  7> end
|  8> % geom
|  9>     MaxIter 10
| 10> end
| 11> % maxcore 2000
| 12> % output
| 13>     printlevel mini
| 14>     print[ P_Basis ] 0
| 15>     print[ P_SCFInfo ] 1
| 16>     print[ P_SCFIterInfo ] 1
| 17>     print[ P_OrbEn ] 0
| 18>     print[ P_Cartesian ] 0
| 19> end
| 20> % elprop
| 21>     Dipole false
| 22> end
| 23> *xyz 1 1
| 24>  N        1.3364128938    -0.1265518625     0.3262269482
| 25>  C        2.7667532912     0.0969115884    -0.0026557370
| 26>  C        3.3120747982    -0.5270174738    -1.2327150807
| 27>  C        3.1171124682     0.9615598882    -1.1788722707
| 28>  C        4.2749890174     1.8758988044    -1.0621621905
| 29>  N        5.4214108966     1.3782248692    -0.8573339710
| 30>  O        6.3877258941     2.3237685294    -0.7265208554
| 31>  H        1.2030098265    -1.0168341332     0.8151888568
| 32>  H        0.7648306118    -0.1558697007    -0.5213847581
| 33>  H        0.9672335993     0.6194854208     0.9222893244
| 34>  H        3.3719416348     0.1585021187     0.8931904761
| 35>  H        4.3263868306    -0.9000596957    -1.1760364916
| 36>  H        2.6442184432    -1.0926943337    -1.8733453381
| 37>  H        2.2842416504     1.3553882972    -1.7548057171
| 38>  H        4.1180305139     2.9518724958    -1.1365686681
| 39>  H        7.2029076300     1.8211751874    -0.6195845274
| 40> *
| 41>
| 42>                          ****END OF INPUT****
 Total Charge           Charge          ....    1
 Multiplicity           Mult            ....    1
 Number of Electrons    NEL             ....   54
FINAL SINGLE POINT ENERGY      -341.969199844349

CARTESIAN COORDINATES (ANGSTROEM)
---------------------------------
  N      0.969052   -0.000240   -2.670105
  C      0.507993    0.366362   -1.307358
  C     -0.931106    0.663527   -1.107153
  C     -0.349012   -0.601467   -0.543619
  C     -0.119664   -0.751060    0.910851
  N     -0.281731    0.259380    1.656932
  O      0.001171   -0.000236    2.959764
  H      1.144677    0.833075   -3.238889
  H      0.265072   -0.559147   -3.157792
  H      1.832315   -0.549205   -2.639310
  H      1.262051    0.932804   -0.775646
  H     -1.167804    1.457612   -0.411129
  H     -1.607848    0.566766   -1.949036
  H     -0.616254   -1.520653   -1.057503
  H      0.197316   -1.715327    1.306949
  H     -0.204685    0.821391    3.419040

FINAL SINGLE POINT ENERGY      -341.969200755315
                    ***********************HURRAY********************
 Multiplicity           Mult            ....    1
 Number of Electrons    NEL             ....   54
 Basis Dimension        Dim             ....  271
FINAL SINGLE POINT ENERGY      -341.969200950365

VIBRATIONAL FREQUENCIES
-----------------------

   0:         0.00 cm**-1
   1:         0.00 cm**-1
   2:         0.00 cm**-1
   3:         0.00 cm**-1
   4:         0.00 cm**-1
   5:         0.00 cm**-1
   6:        32.21 cm**-1
   7:       161.47 cm**-1
   8:       163.01 cm**-1
   9:       200.15 cm**-1
  10:       301.35 cm**-1
  11:       355.07 cm**-1
  12:       410.56 cm**-1
  13:       464.62 cm**-1
  14:       490.27 cm**-1
  15:       644.00 cm**-1
  16:       793.07 cm**-1
  17:       866.24 cm**-1
  18:       883.74 cm**-1
  19:       912.21 cm**-1
  20:       963.27 cm**-1
  21:       969.73 cm**-1
  22:      1056.90 cm**-1
  23:      1078.31 cm**-1
  24:      1096.52 cm**-1
  25:      1106.72 cm**-1
  26:      1155.37 cm**-1
  27:      1174.40 cm**-1
  28:      1182.23 cm**-1
  29:      1251.26 cm**-1
  30:      1299.32 cm**-1
  31:      1364.03 cm**-1
  32:      1426.51 cm**-1
  33:      1461.71 cm**-1
  34:      1491.11 cm**-1
  35:      1515.91 cm**-1
  36:      1651.50 cm**-1
  37:      1659.74 cm**-1
  38:      1738.81 cm**-1
  39:      3142.61 cm**-1
  40:      3155.71 cm**-1
  41:      3165.12 cm**-1
  42:      3214.10 cm**-1
  43:      3255.19 cm**-1
  44:      3406.21 cm**-1
  45:      3480.91 cm**-1
  46:      3495.38 cm**-1
  47:      3835.18 cm**-1

IR SPECTRUM
-----------

 Mode    freq (cm**-1)   T**2         TX         TY         TZ
-------------------------------------------------------------------
   7:       161.47    2.854409  ( -1.161167  -0.432709  -1.148418)
   8:       163.01    6.061273  (  1.557458  -1.906483  -0.030322)
   9:       200.15    0.544197  ( -0.142230  -0.323133  -0.647729)
  10:       301.35   11.808459  (  0.384181   1.901518  -2.836387)
  11:       355.07    4.818875  (  1.981268   0.327717  -0.886597)
  12:       410.56    3.694141  (  0.405645  -1.539168   1.077291)
  13:       464.62    3.412459  ( -0.718993  -1.689282  -0.204534)
  14:       490.27  140.625862  ( 11.213963   3.622345  -1.323446)
  15:       644.00    8.548718  (  0.163348  -0.669533  -2.841436)
  16:       793.07   10.489016  ( -2.113845  -2.025086   1.385532)
  17:       866.24    6.987131  (  1.615967  -0.676074   1.979572)
  18:       883.74    8.078740  (  0.370665   2.342222   1.566954)
  19:       912.21    7.868506  (  2.222363   0.551362   1.620372)
  20:       963.27   27.547697  ( -4.845843  -1.507932   1.338521)
  21:       969.73    6.883977  ( -2.164779  -1.164266  -0.917710)
  22:      1056.90   63.424106  (  0.867232  -1.980667   7.664788)
  23:      1078.31   12.121137  ( -0.274190   1.282332   3.225148)
  24:      1096.52    9.448133  (  1.469863   2.466013  -1.098370)
  25:      1106.72   37.964393  (  1.910497  -2.441016  -5.325020)
  26:      1155.37   68.898911  (  0.067871  -4.135763  -7.196511)
  27:      1174.40   35.612986  (  1.510896  -2.056989   5.394347)
  28:      1182.23    3.759768  (  0.218045   0.045968   1.926165)
  29:      1251.26    6.733711  ( -1.047810   1.488624  -1.849271)
  30:      1299.32   51.380674  ( -0.842531   2.322231  -6.728897)
  31:      1364.03    9.280950  (  2.493690  -0.600556   1.643714)
  32:      1426.51   23.118608  ( -0.820955   2.235109  -4.177191)
  33:      1461.71   37.513740  ( -0.274888   2.051451   5.764523)
  34:      1491.11   34.919495  (  4.205380  -1.577458  -3.840039)
  35:      1515.91  102.279169  (  1.204745  -2.620809  -9.693251)
  36:      1651.50   32.047170  ( -1.838514   5.129530  -1.534588)
  37:      1659.74   48.968326  (  6.053250   2.998025   1.827110)
  38:      1738.81    3.638703  ( -0.092248  -0.664744  -1.785584)
  39:      3142.61    4.622592  ( -0.098588   0.888027  -1.955577)
  40:      3155.71    2.366983  (  0.609138  -0.525694  -1.311328)
  41:      3165.12    5.495811  (  0.727577  -0.883129  -2.046100)
  42:      3214.10    1.616513  (  0.769252   0.753749   0.675742)
  43:      3255.19    4.559112  (  0.171325  -1.288833  -1.693714)
  44:      3406.21   47.221677  (  3.314584  -0.058963  -6.019280)
  45:      3480.91   96.971049  (  2.668960  -9.144632   2.494675)
  46:      3495.38   88.551520  ( -8.477050  -2.934727  -2.842273)
  47:      3835.18  165.031847  ( -1.556564   7.899328  10.010474)

--------------------------
THERMOCHEMISTRY AT 298.15K
--------------------------

Temperature         ... 298.15 K
Pressure            ... 1.00 atm
Total Mass          ... 101.13 AMU

Throughout the following assumptions are being made:
  (1) The electronic state is orbitally nondegenerate
  (2) There are no thermally accessible electronically excited states
  (3) Hindered rotations indicated by low frequency modes) are not
      treated as such but are treated as vibrations and this may
      case some error
  (4) All equations used are the standard statistical mechanics
      equations for an ideal gas
  (5) All vibrations are strinctly harmonic

------------
INNER ENERGY
------------

The inner energy is: U= E(el) + E(ZPE) + E(vib) + E(rot) + E(trans)
    E(el)   - is the total energy from the electronic structure calculation
              = E(kin-el) + E(nuc-el) + E(el-el) + E(nuc-nuc)
    E(ZPE)  - the the zero temperature vibrational energy from the frequency calculation
    E(vib)  - the the finite temperature correction to E(ZPE) due to population
              of excietd vibrational states
    E(rot)  - is the rotational thermal energy
    E(trans)- is the translational thermal energy

Summary of contributions to the inner energy U:
Electronic energy                ...   -341.96920095 Eh
Zero point energy                ...      0.13996956 Eh      87.83 kcal/mol
Thermal vibrational correction   ...      0.00405901 Eh       2.55 kcal/mol
Thermal rotational correction    ...      0.00141627 Eh       0.89 kcal/mol
Thermal translational correction ...      0.00141627 Eh       0.89 kcal/mol
-----------------------------------------------------------------------
Total thermal energy                   -341.82233984 Eh

Summary of corrections to the electronic energy:
(perhaps to be used in another calculation)
Total thermal correction                  0.00689155 Eh       4.32 kcal/mol
Non-thermal (ZPE) correction              0.13996956 Eh      87.83 kcal/mol
-----------------------------------------------------------------------
Total correction                          0.14686111 Eh      92.16 kcal/mol

--------
ENTHALPY
--------

The enthalpy is H = U + kB*T
                kB is Boltzmann's constant
Total free energy                 ...   -341.82233984 Eh
Thermal Enthalpy correction       ...      0.00094421 Eh       0.59 kcal/mol
-----------------------------------------------------------------------
Total Enthalpy                    ...   -341.82139563 Eh

-------
ENTROPY
-------

The entropy contributions are T*S = T*(S(el)+S(vib)+S(rot)+S(trans)
     S(el)   - electronic entropy
     S(vib)  - vibrational entropy
     S(rot)  - rotational entropy
     S(trans)- translational entropy
The entropies will be listed as mutliplied by the temperature to get
units of energy

Electronic entropy                ...      0.00000000 Eh      0.00 kcal/mol
Vibrational entropy               ...      0.00660380 Eh      4.14 kcal/mol
Rotational entropy                ...      0.01211951 Eh      7.61 kcal/mol
Translational entropy             ...      0.01888714 Eh     11.85 kcal/mol
-----------------------------------------------------------------------
Final entropy term                ...      0.03761045 Eh     23.60 kcal/mol

CAUTION: The rotational entropy is not quite correctly treated here
         because it includes a symmetry number that is not yet correctly
         implemented in ORCA!
For a nonlinear molecule the correct rotational entropy is:
    S(rot) = R*(ln(qrot/sn)+1.5)
    R    = 8.31441 J/mol/K = 1.987191683e-3 kcal/mol/K
    qrot = 251354.0575389
    sn is the rotational symmetry number. We have assumed 3 here
       if it is different for your molecule then you should correct
       the printed rotational entropy by manually evaluating the equation
       as given above

For convenience we print out the resulting values for sn=1 - 12:
 sn= 1  qrot/sn=  251354.0575 T*S(rot)=     8.26 kcal/mol T*S(tot)=    24.25 kcal/mol
 sn= 2  qrot/sn=  125677.0288 T*S(rot)=     7.85 kcal/mol T*S(tot)=    23.84 kcal/mol
 sn= 3  qrot/sn=   83784.6858 T*S(rot)=     7.61 kcal/mol T*S(tot)=    23.60 kcal/mol
 sn= 4  qrot/sn=   62838.5144 T*S(rot)=     7.43 kcal/mol T*S(tot)=    23.43 kcal/mol
 sn= 5  qrot/sn=   50270.8115 T*S(rot)=     7.30 kcal/mol T*S(tot)=    23.30 kcal/mol
 sn= 6  qrot/sn=   41892.3429 T*S(rot)=     7.19 kcal/mol T*S(tot)=    23.19 kcal/mol
 sn= 7  qrot/sn=   35907.7225 T*S(rot)=     7.10 kcal/mol T*S(tot)=    23.10 kcal/mol
 sn= 8  qrot/sn=   31419.2572 T*S(rot)=     7.02 kcal/mol T*S(tot)=    23.02 kcal/mol
 sn= 9  qrot/sn=   27928.2286 T*S(rot)=     6.95 kcal/mol T*S(tot)=    22.95 kcal/mol
 sn=10  qrot/sn=   25135.4058 T*S(rot)=     6.89 kcal/mol T*S(tot)=    22.89 kcal/mol
 sn=11  qrot/sn=   22850.3689 T*S(rot)=     6.84 kcal/mol T*S(tot)=    22.83 kcal/mol
 sn=12  qrot/sn=   20946.1715 T*S(rot)=     6.78 kcal/mol T*S(tot)=    22.78 kcal/mol

-------------------
GIBBS FREE ENTHALPY
-------------------

The Gibbs free enthalpy is G = H - T*S

Total enthalpy                    ...   -341.82139563 Eh
Total entropy correction          ...     -0.03761045 Eh    -23.60 kcal/mol
-----------------------------------------------------------------------
Final Gibbs free enthalpy         ...   -341.85900609 Eh

For completeness - the Gibbs free enthalpy minus the electronic energy
G-E(el)                           ...      0.11019486 Eh     69.15 kcal/mol

                             ****ORCA TERMINATED NORMALLY****
TOTAL RUN TIME: 0 days 0 hours 28 minutes 46 seconds 386 msec
