                         Program Version 3.0.3 - RELEASE   -
|  1> ! NORI PBE0 def2-TZVP UseSym TightOPT Freq TightSCF Grid3 FinalGrid5 XYZFile
|  2> % pal
|  3>     nprocs 8
|  4> end
|  5> %method
|  6>     SymThresh 5.0e-2
|  7> end
|  8> % geom
|  9>     MaxIter 10
| 10> end
| 11> % maxcore 2000
| 12> % output
| 13>     printlevel mini
| 14>     print[ P_Basis ] 0
| 15>     print[ P_SCFInfo ] 1
| 16>     print[ P_SCFIterInfo ] 1
| 17>     print[ P_OrbEn ] 0
| 18>     print[ P_Cartesian ] 0
| 19> end
| 20> % elprop
| 21>     Dipole false
| 22> end
| 23> *xyz 1 1
| 24>  N        0.9639952126     0.2634274215    -0.5639591130
| 25>  C        2.2436113938     0.1255402715     0.1690916942
| 26>  C        3.0773945736    -1.0741207524    -0.0501652321
| 27>  C        3.5269715446     0.2712430047    -0.5751139209
| 28>  C        4.6007734398     0.9767285619     0.2182800698
| 29>  N        5.6163863174     1.4912041376    -0.4922683608
| 30>  O        4.5027113781     1.0399612398     1.4248011935
| 31>  H        0.7000914955     1.2469209870    -0.6683511436
| 32>  H        0.2068281693    -0.2130973859    -0.0660023832
| 33>  H        1.0184496980    -0.1449367418    -1.4994758465
| 34>  H        2.2016869380     0.5665113034     1.1579819086
| 35>  H        3.5836694035    -1.4651255503     0.8231604152
| 36>  H        2.7707890623    -1.8115525373    -0.7838593975
| 37>  H        3.4952265936     0.4076203828    -1.6519921551
| 38>  H        6.3767304331     1.9229040545     0.0084906498
| 39>  H        5.7081943468     1.3621816029    -1.4838183785
| 40> *
| 41>
| 42>                          ****END OF INPUT****
 Total Charge           Charge          ....    1
 Multiplicity           Mult            ....    1
 Number of Electrons    NEL             ....   54
FINAL SINGLE POINT ENERGY      -342.057918454750
FINAL SINGLE POINT ENERGY      -342.057919570453
FINAL SINGLE POINT ENERGY      -342.057920190200

CARTESIAN COORDINATES (ANGSTROEM)
---------------------------------
  N      1.754911   -0.001524   -1.902497
  C      1.033463    0.390595   -0.670034
  C     -0.042769    1.399654   -0.751848
  C     -0.379044   -0.049270   -0.483296
  C     -0.710422   -0.407337    0.945619
  N     -1.794309   -1.178285    1.123359
  O     -0.006449    0.008896    1.840374
  H      2.142848   -0.945407   -1.821112
  H      2.530046    0.640801   -2.089960
  H      1.141077    0.013360   -2.720016
  H      1.671656    0.368553    0.205908
  H     -0.108826    2.091275    0.078614
  H     -0.326198    1.799995   -1.718939
  H     -0.868065   -0.591097   -1.287051
  H     -2.073653   -1.396727    2.066558
  H     -2.397751   -1.452623    0.369341

FINAL SINGLE POINT ENERGY      -342.057920459423
                    ***********************HURRAY********************
 Multiplicity           Mult            ....    1
 Number of Electrons    NEL             ....   54
 Basis Dimension        Dim             ....  271
FINAL SINGLE POINT ENERGY      -342.057920557402

VIBRATIONAL FREQUENCIES
-----------------------

   0:         0.00 cm**-1
   1:         0.00 cm**-1
   2:         0.00 cm**-1
   3:         0.00 cm**-1
   4:         0.00 cm**-1
   5:         0.00 cm**-1
   6:        65.94 cm**-1
   7:       169.92 cm**-1
   8:       187.40 cm**-1
   9:       220.23 cm**-1
  10:       330.47 cm**-1
  11:       361.41 cm**-1
  12:       403.72 cm**-1
  13:       422.46 cm**-1
  14:       587.65 cm**-1
  15:       620.10 cm**-1
  16:       742.17 cm**-1
  17:       779.76 cm**-1
  18:       822.51 cm**-1
  19:       907.09 cm**-1
  20:       928.50 cm**-1
  21:       962.95 cm**-1
  22:      1021.91 cm**-1
  23:      1066.37 cm**-1
  24:      1098.88 cm**-1
  25:      1108.77 cm**-1
  26:      1137.13 cm**-1
  27:      1175.89 cm**-1
  28:      1182.95 cm**-1
  29:      1249.61 cm**-1
  30:      1289.08 cm**-1
  31:      1403.38 cm**-1
  32:      1447.46 cm**-1
  33:      1492.51 cm**-1
  34:      1518.87 cm**-1
  35:      1633.55 cm**-1
  36:      1651.95 cm**-1
  37:      1661.05 cm**-1
  38:      1807.87 cm**-1
  39:      3154.28 cm**-1
  40:      3170.86 cm**-1
  41:      3205.28 cm**-1
  42:      3252.29 cm**-1
  43:      3407.83 cm**-1
  44:      3481.01 cm**-1
  45:      3497.19 cm**-1
  46:      3606.71 cm**-1
  47:      3739.18 cm**-1

IR SPECTRUM
-----------

 Mode    freq (cm**-1)   T**2         TX         TY         TZ
-------------------------------------------------------------------
   6:        65.94   10.285710  (  0.693273  -2.952659  -1.042538)
   7:       169.92    5.869429  (  0.627026   1.131425  -2.048449)
   8:       187.40    4.105012  ( -0.280114  -0.096210  -2.004318)
   9:       220.23    9.349306  (  0.153131  -0.456932   3.019449)
  10:       330.47   22.460223  ( -2.380202  -3.492160   2.144687)
  11:       361.41  175.616388  (  6.153108 -11.629650  -1.583316)
  12:       403.72    3.693489  (  0.258044   1.714874  -0.828318)
  13:       422.46    2.161599  (  0.943102   0.586954   0.963142)
  14:       587.65   29.325133  ( -2.642832   4.726423   0.038720)
  15:       620.10   10.209802  ( -1.860628  -0.840735   2.457850)
  16:       742.17    7.619548  ( -2.243942   1.607128  -0.037625)
  17:       779.76    8.679202  (  0.547774  -1.610190   2.405501)
  18:       822.51   12.826851  ( -2.284206  -2.622702   0.854802)
  19:       907.09    1.132342  (  0.175687  -0.798407  -0.681192)
  20:       928.50    8.637614  ( -2.608894   1.080060  -0.815326)
  21:       962.95   20.256572  (  4.434059   0.396456  -0.662203)
  22:      1021.91    3.514414  (  1.218014  -1.150590   0.840832)
  23:      1066.37    7.096722  ( -1.070760  -2.437191  -0.101466)
  24:      1098.88    8.387481  ( -1.503303  -2.452948  -0.332577)
  25:      1108.77   10.159661  (  1.573338  -2.668799   0.749520)
  26:      1137.13    1.016157  ( -0.156773  -0.514680   0.852457)
  27:      1175.89    0.963350  ( -0.441861   0.758527   0.439029)
  28:      1182.95   30.464070  ( -2.297556  -3.963359   3.078489)
  29:      1249.61    5.809245  (  1.311957   1.902821  -0.683583)
  30:      1289.08   30.297798  ( -4.659438  -2.270037   1.853205)
  31:      1403.38   31.518928  (  2.940965   2.906183  -3.797862)
  32:      1447.46  103.692138  (  5.042709   6.787815  -5.673516)
  33:      1492.51  100.397660  (  6.171815  -1.145953  -7.809811)
  34:      1518.87   74.460300  (  3.192587  -2.192638  -7.711033)
  35:      1633.55  128.382527  (  8.285888   5.837734  -5.064331)
  36:      1651.95   30.757438  ( -1.646426  -5.277653   0.439425)
  37:      1661.05   51.550786  (  5.727912  -1.170532   4.167933)
  38:      1807.87  322.182432  ( 13.328441   7.848773   9.106693)
  39:      3154.28    3.848100  ( -0.824427   0.767374   1.606100)
  40:      3170.86    3.671458  (  0.125994  -0.846780  -1.714219)
  41:      3205.28   11.264859  (  0.602767  -0.270585   3.290640)
  42:      3252.29    4.396197  (  0.037852   0.833390   1.923597)
  43:      3407.83   48.371893  (  5.288323  -1.271004  -4.334752)
  44:      3481.01  102.119008  ( -3.061576  -9.579667   0.987795)
  45:      3497.19   88.159934  (  7.164894  -1.862805   5.775308)
  46:      3606.71  104.955501  ( -7.751789  -5.081022   4.364457)
  47:      3739.18   72.063691  (  2.091252   0.568086   8.207779)

--------------------------
THERMOCHEMISTRY AT 298.15K
--------------------------

Temperature         ... 298.15 K
Pressure            ... 1.00 atm
Total Mass          ... 101.13 AMU

Throughout the following assumptions are being made:
  (1) The electronic state is orbitally nondegenerate
  (2) There are no thermally accessible electronically excited states
  (3) Hindered rotations indicated by low frequency modes) are not
      treated as such but are treated as vibrations and this may
      case some error
  (4) All equations used are the standard statistical mechanics
      equations for an ideal gas
  (5) All vibrations are strinctly harmonic

------------
INNER ENERGY
------------

The inner energy is: U= E(el) + E(ZPE) + E(vib) + E(rot) + E(trans)
    E(el)   - is the total energy from the electronic structure calculation
              = E(kin-el) + E(nuc-el) + E(el-el) + E(nuc-nuc)
    E(ZPE)  - the the zero temperature vibrational energy from the frequency calculation
    E(vib)  - the the finite temperature correction to E(ZPE) due to population
              of excietd vibrational states
    E(rot)  - is the rotational thermal energy
    E(trans)- is the translational thermal energy

Summary of contributions to the inner energy U:
Electronic energy                ...   -342.05792056 Eh
Zero point energy                ...      0.14118757 Eh      88.60 kcal/mol
Thermal vibrational correction   ...      0.00478831 Eh       3.00 kcal/mol
Thermal rotational correction    ...      0.00141627 Eh       0.89 kcal/mol
Thermal translational correction ...      0.00141627 Eh       0.89 kcal/mol
-----------------------------------------------------------------------
Total thermal energy                   -341.90911214 Eh

Summary of corrections to the electronic energy:
(perhaps to be used in another calculation)
Total thermal correction                  0.00762085 Eh       4.78 kcal/mol
Non-thermal (ZPE) correction              0.14118757 Eh      88.60 kcal/mol
-----------------------------------------------------------------------
Total correction                          0.14880842 Eh      93.38 kcal/mol

--------
ENTHALPY
--------

The enthalpy is H = U + kB*T
                kB is Boltzmann's constant
Total free energy                 ...   -341.90911214 Eh
Thermal Enthalpy correction       ...      0.00094421 Eh       0.59 kcal/mol
-----------------------------------------------------------------------
Total Enthalpy                    ...   -341.90816793 Eh

-------
ENTROPY
-------

The entropy contributions are T*S = T*(S(el)+S(vib)+S(rot)+S(trans)
     S(el)   - electronic entropy
     S(vib)  - vibrational entropy
     S(rot)  - rotational entropy
     S(trans)- translational entropy
The entropies will be listed as mutliplied by the temperature to get
units of energy

Electronic entropy                ...      0.00000000 Eh      0.00 kcal/mol
Vibrational entropy               ...      0.00837121 Eh      5.25 kcal/mol
Rotational entropy                ...      0.01205478 Eh      7.56 kcal/mol
Translational entropy             ...      0.01888714 Eh     11.85 kcal/mol
-----------------------------------------------------------------------
Final entropy term                ...      0.03931312 Eh     24.67 kcal/mol

CAUTION: The rotational entropy is not quite correctly treated here
         because it includes a symmetry number that is not yet correctly
         implemented in ORCA!
For a nonlinear molecule the correct rotational entropy is:
    S(rot) = R*(ln(qrot/sn)+1.5)
    R    = 8.31441 J/mol/K = 1.987191683e-3 kcal/mol/K
    qrot = 234697.8422527
    sn is the rotational symmetry number. We have assumed 3 here
       if it is different for your molecule then you should correct
       the printed rotational entropy by manually evaluating the equation
       as given above

For convenience we print out the resulting values for sn=1 - 12:
 sn= 1  qrot/sn=  234697.8423 T*S(rot)=     8.22 kcal/mol T*S(tot)=    25.32 kcal/mol
 sn= 2  qrot/sn=  117348.9211 T*S(rot)=     7.80 kcal/mol T*S(tot)=    24.91 kcal/mol
 sn= 3  qrot/sn=   78232.6141 T*S(rot)=     7.56 kcal/mol T*S(tot)=    24.67 kcal/mol
 sn= 4  qrot/sn=   58674.4606 T*S(rot)=     7.39 kcal/mol T*S(tot)=    24.50 kcal/mol
 sn= 5  qrot/sn=   46939.5685 T*S(rot)=     7.26 kcal/mol T*S(tot)=    24.37 kcal/mol
 sn= 6  qrot/sn=   39116.3070 T*S(rot)=     7.15 kcal/mol T*S(tot)=    24.26 kcal/mol
 sn= 7  qrot/sn=   33528.2632 T*S(rot)=     7.06 kcal/mol T*S(tot)=    24.17 kcal/mol
 sn= 8  qrot/sn=   29337.2303 T*S(rot)=     6.98 kcal/mol T*S(tot)=    24.09 kcal/mol
 sn= 9  qrot/sn=   26077.5380 T*S(rot)=     6.91 kcal/mol T*S(tot)=    24.02 kcal/mol
 sn=10  qrot/sn=   23469.7842 T*S(rot)=     6.85 kcal/mol T*S(tot)=    23.96 kcal/mol
 sn=11  qrot/sn=   21336.1675 T*S(rot)=     6.79 kcal/mol T*S(tot)=    23.90 kcal/mol
 sn=12  qrot/sn=   19558.1535 T*S(rot)=     6.74 kcal/mol T*S(tot)=    23.85 kcal/mol

-------------------
GIBBS FREE ENTHALPY
-------------------

The Gibbs free enthalpy is G = H - T*S

Total enthalpy                    ...   -341.90816793 Eh
Total entropy correction          ...     -0.03931312 Eh    -24.67 kcal/mol
-----------------------------------------------------------------------
Final Gibbs free enthalpy         ...   -341.94748105 Eh

For completeness - the Gibbs free enthalpy minus the electronic energy
G-E(el)                           ...      0.11043951 Eh     69.30 kcal/mol

                             ****ORCA TERMINATED NORMALLY****
TOTAL RUN TIME: 0 days 0 hours 32 minutes 54 seconds 417 msec
