                         Program Version 3.0.3 - RELEASE   -
|  1> ! NORI PBE0 def2-TZVP UseSym TightOPT Freq TightSCF Grid3 FinalGrid5 XYZFile
|  2> % pal
|  3>     nprocs 8
|  4> end
|  5> %method
|  6>     SymThresh 5.0e-2
|  7> end
|  8> % geom
|  9>     MaxIter 10
| 10> end
| 11> % maxcore 2000
| 12> % output
| 13>     printlevel mini
| 14>     print[ P_Basis ] 0
| 15>     print[ P_SCFInfo ] 1
| 16>     print[ P_SCFIterInfo ] 1
| 17>     print[ P_OrbEn ] 0
| 18>     print[ P_Cartesian ] 0
| 19> end
| 20> % elprop
| 21>     Dipole false
| 22> end
| 23> *xyz 1 1
| 24>  N        0.9875603450     0.1569483918    -0.5595151605
| 25>  C        2.3446574357     0.0742418005     0.0272716538
| 26>  C        3.2268660714    -1.0513405628    -0.3400324406
| 27>  C        3.5288556337     0.3470355888    -0.8382654979
| 28>  C        4.6363583160     1.0887518301    -0.1332029287
| 29>  O        5.5736365652     1.6457628005    -0.8905786679
| 30>  O        4.6653057801     1.1484081003     1.0594827546
| 31>  H        0.3228803627    -0.3999122810    -0.0141596333
| 32>  H        0.9650664379    -0.1956238905    -1.5191338828
| 33>  H        0.6472222764     1.1228238865    -0.5743436125
| 34>  H        2.3772816393     0.4668227108     1.0365352515
| 35>  H        3.8497687894    -1.4494010123     0.4511421536
| 36>  H        2.8957375481    -1.7725109546    -1.0792179655
| 37>  H        3.3688608195     0.5255994646    -1.8977124502
| 38>  H        5.4454219797     1.4812441271    -1.8316795735
| 39> *
| 40>
| 41>                          ****END OF INPUT****
 Total Charge           Charge          ....    1
 Multiplicity           Mult            ....    1
 Number of Electrons    NEL             ....   54
FINAL SINGLE POINT ENERGY      -361.904576040365
FINAL SINGLE POINT ENERGY      -361.904577145401
FINAL SINGLE POINT ENERGY      -361.904578022662

CARTESIAN COORDINATES (ANGSTROEM)
---------------------------------
  N     -0.925505   -0.952554   -2.243427
  C     -0.062002   -0.211001   -1.295972
  C     -0.366397    1.200797   -0.988090
  C     -0.590168    0.129557    0.058103
  C      0.442428    0.033907    1.152888
  O      0.000791   -0.002909    2.404383
  O      1.607362    0.010621    0.889887
  H     -0.621160   -0.795656   -3.208850
  H     -1.902750   -0.657699   -2.180579
  H     -0.891946   -1.960500   -2.065462
  H      0.972123   -0.531139   -1.350346
  H      0.484803    1.857914   -0.860880
  H     -1.251380    1.661913   -1.412313
  H     -1.623968   -0.110407    0.288418
  H     -0.958508    0.063761    2.468456

FINAL SINGLE POINT ENERGY      -361.904578671608
                    ***********************HURRAY********************
 Multiplicity           Mult            ....    1
 Number of Electrons    NEL             ....   54
 Basis Dimension        Dim             ....  265
FINAL SINGLE POINT ENERGY      -361.904579153479

VIBRATIONAL FREQUENCIES
-----------------------

   0:         0.00 cm**-1
   1:         0.00 cm**-1
   2:         0.00 cm**-1
   3:         0.00 cm**-1
   4:         0.00 cm**-1
   5:         0.00 cm**-1
   6:        59.92 cm**-1
   7:       170.20 cm**-1
   8:       187.95 cm**-1
   9:       219.48 cm**-1
  10:       331.75 cm**-1
  11:       400.16 cm**-1
  12:       443.67 cm**-1
  13:       475.57 cm**-1
  14:       654.30 cm**-1
  15:       727.89 cm**-1
  16:       805.87 cm**-1
  17:       833.24 cm**-1
  18:       907.32 cm**-1
  19:       930.30 cm**-1
  20:       970.44 cm**-1
  21:      1021.13 cm**-1
  22:      1085.93 cm**-1
  23:      1105.27 cm**-1
  24:      1116.98 cm**-1
  25:      1173.79 cm**-1
  26:      1180.15 cm**-1
  27:      1196.59 cm**-1
  28:      1254.30 cm**-1
  29:      1287.96 cm**-1
  30:      1384.15 cm**-1
  31:      1436.55 cm**-1
  32:      1493.09 cm**-1
  33:      1522.86 cm**-1
  34:      1651.66 cm**-1
  35:      1661.20 cm**-1
  36:      1876.02 cm**-1
  37:      3155.20 cm**-1
  38:      3167.03 cm**-1
  39:      3207.85 cm**-1
  40:      3252.68 cm**-1
  41:      3405.26 cm**-1
  42:      3476.96 cm**-1
  43:      3494.15 cm**-1
  44:      3835.99 cm**-1

IR SPECTRUM
-----------

 Mode    freq (cm**-1)   T**2         TX         TY         TZ
-------------------------------------------------------------------
   6:        59.92    5.440757  (  1.099687   2.008639  -0.443638)
   7:       170.20    6.580565  (  1.247541   0.742720   2.114846)
   8:       187.95    2.262745  (  1.060114  -0.093188   1.063118)
   9:       219.48    6.446398  (  1.503029   0.162015   2.039866)
  10:       331.75   19.188970  (  0.221155  -1.343847   4.163428)
  11:       400.16   29.764245  ( -0.528087  -5.220709  -1.493172)
  12:       443.67    4.684603  (  0.277949   1.538601  -1.496681)
  13:       475.57   82.160282  (  0.627562   9.037226   0.308217)
  14:       654.30    5.072480  ( -2.105163  -0.713853  -0.362191)
  15:       727.89    1.971731  ( -0.764026   0.455921   1.086338)
  16:       805.87   17.445930  ( -3.443415   0.976042   2.153176)
  17:       833.24    8.100516  (  1.829125  -1.795465   1.237386)
  18:       907.32    0.691442  ( -0.601447  -0.342519  -0.460851)
  19:       930.30    4.382557  (  0.997835  -1.795127  -0.405463)
  20:       970.44   13.431957  (  0.700274  -2.482457  -2.603648)
  21:      1021.13    6.577494  (  1.558015  -1.897180  -0.742152)
  22:      1085.93   20.725835  (  2.271220   2.894699  -2.681066)
  23:      1105.27    0.941015  (  0.754947  -0.507807  -0.336455)
  24:      1116.98    8.809850  (  1.571704  -2.510333   0.194490)
  25:      1173.79    4.321180  ( -1.072610   0.078477  -1.778912)
  26:      1180.15   24.900584  ( -0.647727   2.250873  -4.406201)
  27:      1196.59   16.029740  (  0.910657   0.475158  -3.869712)
  28:      1254.30   12.727891  (  0.889039   0.962121  -3.318407)
  29:      1287.96  269.123339  (  3.404940  -0.020107 -16.047720)
  30:      1384.15  174.676290  ( -0.018183  -1.597411  13.119613)
  31:      1436.55   87.486558  ( -0.262573  -2.140456   9.101432)
  32:      1493.09   86.237685  ( -2.977221  -4.597607  -7.499056)
  33:      1522.86   83.337894  ( -6.536740  -3.943578  -5.005708)
  34:      1651.66   33.754262  ( -1.612303  -3.671698   4.203971)
  35:      1661.20   50.936656  ( -5.803722   3.902214   1.423443)
  36:      1876.02  232.565018  ( 14.941000  -0.874321  -2.926963)
  37:      3155.20    4.036388  ( -1.054311  -1.494846  -0.830814)
  38:      3167.03    2.610853  ( -1.292574  -0.903879  -0.350870)
  39:      3207.85   11.074560  ( -3.149749   0.595252  -0.894045)
  40:      3252.68    5.757124  ( -2.181986  -0.835154  -0.546422)
  41:      3405.26   53.226491  (  1.913026   4.232779   5.625869)
  42:      3476.96  108.467014  ( -2.482158  -6.869812   7.423718)
  43:      3494.15   92.003336  ( -7.915361   5.078326   1.887063)
  44:      3835.99   90.880731  (  8.085861  -0.339142  -5.038309)

--------------------------
THERMOCHEMISTRY AT 298.15K
--------------------------

Temperature         ... 298.15 K
Pressure            ... 1.00 atm
Total Mass          ... 102.11 AMU

Throughout the following assumptions are being made:
  (1) The electronic state is orbitally nondegenerate
  (2) There are no thermally accessible electronically excited states
  (3) Hindered rotations indicated by low frequency modes) are not
      treated as such but are treated as vibrations and this may
      case some error
  (4) All equations used are the standard statistical mechanics
      equations for an ideal gas
  (5) All vibrations are strinctly harmonic

------------
INNER ENERGY
------------

The inner energy is: U= E(el) + E(ZPE) + E(vib) + E(rot) + E(trans)
    E(el)   - is the total energy from the electronic structure calculation
              = E(kin-el) + E(nuc-el) + E(el-el) + E(nuc-nuc)
    E(ZPE)  - the the zero temperature vibrational energy from the frequency calculation
    E(vib)  - the the finite temperature correction to E(ZPE) due to population
              of excietd vibrational states
    E(rot)  - is the rotational thermal energy
    E(trans)- is the translational thermal energy

Summary of contributions to the inner energy U:
Electronic energy                ...   -361.90457915 Eh
Zero point energy                ...      0.12885495 Eh      80.86 kcal/mol
Thermal vibrational correction   ...      0.00447667 Eh       2.81 kcal/mol
Thermal rotational correction    ...      0.00141627 Eh       0.89 kcal/mol
Thermal translational correction ...      0.00141627 Eh       0.89 kcal/mol
-----------------------------------------------------------------------
Total thermal energy                   -361.76841498 Eh

Summary of corrections to the electronic energy:
(perhaps to be used in another calculation)
Total thermal correction                  0.00730921 Eh       4.59 kcal/mol
Non-thermal (ZPE) correction              0.12885495 Eh      80.86 kcal/mol
-----------------------------------------------------------------------
Total correction                          0.13616417 Eh      85.44 kcal/mol

--------
ENTHALPY
--------

The enthalpy is H = U + kB*T
                kB is Boltzmann's constant
Total free energy                 ...   -361.76841498 Eh
Thermal Enthalpy correction       ...      0.00094421 Eh       0.59 kcal/mol
-----------------------------------------------------------------------
Total Enthalpy                    ...   -361.76747078 Eh

-------
ENTROPY
-------

The entropy contributions are T*S = T*(S(el)+S(vib)+S(rot)+S(trans)
     S(el)   - electronic entropy
     S(vib)  - vibrational entropy
     S(rot)  - rotational entropy
     S(trans)- translational entropy
The entropies will be listed as mutliplied by the temperature to get
units of energy

Electronic entropy                ...      0.00000000 Eh      0.00 kcal/mol
Vibrational entropy               ...      0.00797388 Eh      5.00 kcal/mol
Rotational entropy                ...      0.01205196 Eh      7.56 kcal/mol
Translational entropy             ...      0.01890086 Eh     11.86 kcal/mol
-----------------------------------------------------------------------
Final entropy term                ...      0.03892670 Eh     24.43 kcal/mol

CAUTION: The rotational entropy is not quite correctly treated here
         because it includes a symmetry number that is not yet correctly
         implemented in ORCA!
For a nonlinear molecule the correct rotational entropy is:
    S(rot) = R*(ln(qrot/sn)+1.5)
    R    = 8.31441 J/mol/K = 1.987191683e-3 kcal/mol/K
    qrot = 233999.8828391
    sn is the rotational symmetry number. We have assumed 3 here
       if it is different for your molecule then you should correct
       the printed rotational entropy by manually evaluating the equation
       as given above

For convenience we print out the resulting values for sn=1 - 12:
 sn= 1  qrot/sn=  233999.8828 T*S(rot)=     8.21 kcal/mol T*S(tot)=    25.08 kcal/mol
 sn= 2  qrot/sn=  116999.9414 T*S(rot)=     7.80 kcal/mol T*S(tot)=    24.67 kcal/mol
 sn= 3  qrot/sn=   77999.9609 T*S(rot)=     7.56 kcal/mol T*S(tot)=    24.43 kcal/mol
 sn= 4  qrot/sn=   58499.9707 T*S(rot)=     7.39 kcal/mol T*S(tot)=    24.26 kcal/mol
 sn= 5  qrot/sn=   46799.9766 T*S(rot)=     7.26 kcal/mol T*S(tot)=    24.12 kcal/mol
 sn= 6  qrot/sn=   38999.9805 T*S(rot)=     7.15 kcal/mol T*S(tot)=    24.02 kcal/mol
 sn= 7  qrot/sn=   33428.5547 T*S(rot)=     7.06 kcal/mol T*S(tot)=    23.92 kcal/mol
 sn= 8  qrot/sn=   29249.9854 T*S(rot)=     6.98 kcal/mol T*S(tot)=    23.85 kcal/mol
 sn= 9  qrot/sn=   25999.9870 T*S(rot)=     6.91 kcal/mol T*S(tot)=    23.78 kcal/mol
 sn=10  qrot/sn=   23399.9883 T*S(rot)=     6.85 kcal/mol T*S(tot)=    23.71 kcal/mol
 sn=11  qrot/sn=   21272.7166 T*S(rot)=     6.79 kcal/mol T*S(tot)=    23.66 kcal/mol
 sn=12  qrot/sn=   19499.9902 T*S(rot)=     6.74 kcal/mol T*S(tot)=    23.61 kcal/mol

-------------------
GIBBS FREE ENTHALPY
-------------------

The Gibbs free enthalpy is G = H - T*S

Total enthalpy                    ...   -361.76747078 Eh
Total entropy correction          ...     -0.03892670 Eh    -24.43 kcal/mol
-----------------------------------------------------------------------
Final Gibbs free enthalpy         ...   -361.80639747 Eh

For completeness - the Gibbs free enthalpy minus the electronic energy
G-E(el)                           ...      0.09818168 Eh     61.61 kcal/mol

                             ****ORCA TERMINATED NORMALLY****
TOTAL RUN TIME: 0 days 0 hours 30 minutes 24 seconds 210 msec
