                         Program Version 3.0.3 - RELEASE   -
|  1> ! NORI PBE0 def2-TZVP UseSym TightOPT Freq TightSCF Grid3 FinalGrid5 XYZFile
|  2> % pal
|  3>     nprocs 8
|  4> end
|  5> %method
|  6>     SymThresh 5.0e-2
|  7> end
|  8> % geom
|  9>     MaxIter 10
| 10> end
| 11> % maxcore 2000
| 12> % output
| 13>     printlevel mini
| 14>     print[ P_Basis ] 0
| 15>     print[ P_SCFInfo ] 1
| 16>     print[ P_SCFIterInfo ] 1
| 17>     print[ P_OrbEn ] 0
| 18>     print[ P_Cartesian ] 0
| 19> end
| 20> % elprop
| 21>     Dipole false
| 22> end
| 23> *xyz 1 1
| 24>  N        0.8141242105     0.2586083912    -0.0961514227
| 25>  C        2.2094045485    -0.2091353623     0.0748338834
| 26>  C        2.8242148346    -1.0314851155    -0.9977374158
| 27>  C        3.2763128535     0.3859937603    -0.7975792213
| 28>  N        4.5412050931     0.6251004098    -0.2212254215
| 29>  C        4.7944148408     1.6857633091     0.6159832007
| 30>  O        5.8866894112     2.0112745860     0.9751482593
| 31>  H        0.1434889773    -0.4698950692     0.1659586662
| 32>  H        0.6230602817     0.5123053602    -1.0686404023
| 33>  H        0.6236260620     1.0840939386     0.4794032906
| 34>  H        2.4331881408    -0.4185608146     1.1123696973
| 35>  H        3.4762759302    -1.8315972362    -0.6717054314
| 36>  H        2.2550128671    -1.2480031675    -1.8944494866
| 37>  H        2.9303850270     1.0883667379    -1.5594668157
| 38>  H        5.3520142825     0.1927298536    -0.6426373670
| 39>  H        3.8666026390     2.1988804186     0.9421059866
| 40> *
| 41>
| 42>                          ****END OF INPUT****
 Total Charge           Charge          ....    1
 Multiplicity           Mult            ....    1
 Number of Electrons    NEL             ....   54
FINAL SINGLE POINT ENERGY      -342.026014835719
FINAL SINGLE POINT ENERGY      -342.026015201754
FINAL SINGLE POINT ENERGY      -342.026015509040

CARTESIAN COORDINATES (ANGSTROEM)
---------------------------------
  N      1.347256    0.000303   -2.280096
  C      0.339428    0.510358   -1.321227
  C     -1.097460    0.244876   -1.586451
  C     -0.402773   -0.478114   -0.469452
  N     -0.690370   -0.115231    0.862905
  C      0.251063   -0.132476    1.864523
  O     -0.001009    0.002057    3.024759
  H      1.444567    0.626141   -3.084958
  H      1.084710   -0.920443   -2.640738
  H      2.267820   -0.093532   -1.840930
  H      0.644633    1.454301   -0.889770
  H     -1.784789    1.043014   -1.336104
  H     -1.378950   -0.339555   -2.455105
  H     -0.189173   -1.530297   -0.669065
  H     -1.655254   -0.115363    1.164722
  H      1.281591   -0.264491    1.475118

FINAL SINGLE POINT ENERGY      -342.026015729737
                    ***********************HURRAY********************
 Multiplicity           Mult            ....    1
 Number of Electrons    NEL             ....   54
 Basis Dimension        Dim             ....  271
FINAL SINGLE POINT ENERGY      -342.026015862994

VIBRATIONAL FREQUENCIES
-----------------------

   0:         0.00 cm**-1
   1:         0.00 cm**-1
   2:         0.00 cm**-1
   3:         0.00 cm**-1
   4:         0.00 cm**-1
   5:         0.00 cm**-1
   6:        68.85 cm**-1
   7:       119.48 cm**-1
   8:       146.54 cm**-1
   9:       184.09 cm**-1
  10:       289.79 cm**-1
  11:       349.47 cm**-1
  12:       386.62 cm**-1
  13:       466.84 cm**-1
  14:       595.08 cm**-1
  15:       622.30 cm**-1
  16:       806.05 cm**-1
  17:       850.29 cm**-1
  18:       903.31 cm**-1
  19:       931.14 cm**-1
  20:      1021.52 cm**-1
  21:      1036.22 cm**-1
  22:      1058.77 cm**-1
  23:      1095.44 cm**-1
  24:      1129.36 cm**-1
  25:      1168.26 cm**-1
  26:      1184.88 cm**-1
  27:      1221.66 cm**-1
  28:      1243.77 cm**-1
  29:      1280.31 cm**-1
  30:      1369.48 cm**-1
  31:      1382.29 cm**-1
  32:      1433.19 cm**-1
  33:      1483.47 cm**-1
  34:      1502.00 cm**-1
  35:      1522.44 cm**-1
  36:      1651.61 cm**-1
  37:      1659.33 cm**-1
  38:      1861.54 cm**-1
  39:      2930.46 cm**-1
  40:      3084.00 cm**-1
  41:      3161.05 cm**-1
  42:      3223.73 cm**-1
  43:      3253.55 cm**-1
  44:      3403.54 cm**-1
  45:      3476.38 cm**-1
  46:      3489.01 cm**-1
  47:      3599.51 cm**-1

IR SPECTRUM
-----------

 Mode    freq (cm**-1)   T**2         TX         TY         TZ
-------------------------------------------------------------------
   6:        68.85    2.665844  (  0.368017   0.289844  -1.564096)
   7:       119.48    4.990231  ( -0.133362   0.236893  -2.217279)
   8:       146.54    4.216568  (  0.884779  -0.205414  -1.841614)
   9:       184.09    0.186764  (  0.199306   0.024344  -0.382686)
  10:       289.79    2.916769  (  0.279131  -0.665910   1.547714)
  11:       349.47   15.916710  (  3.912197   0.690361  -0.367183)
  12:       386.62   18.797379  (  1.043650  -1.666717   3.863965)
  13:       466.84    2.197930  ( -0.641077  -0.149743  -1.328355)
  14:       595.08  107.618999  ( -2.015013   9.751014  -2.911435)
  15:       622.30    1.983461  ( -0.754436  -1.186714   0.077447)
  16:       806.05   16.427836  ( -0.053807   3.251164  -2.419685)
  17:       850.29    7.188373  (  2.098645   1.536007   0.651724)
  18:       903.31    1.110409  (  0.856460  -0.283324   0.544621)
  19:       931.14   17.789599  ( -2.998916  -2.900477   0.619141)
  20:      1021.52    6.223015  ( -1.930916  -1.524148  -0.414186)
  21:      1036.22    0.351649  ( -0.543142   0.067545   0.228217)
  22:      1058.77   13.603228  ( -1.615262   2.952688  -1.508573)
  23:      1095.44    5.482836  ( -1.906164  -1.230693   0.578592)
  24:      1129.36   14.741255  ( -0.641999   0.173843  -3.781385)
  25:      1168.26   17.120910  ( -1.571992   1.330522  -3.588797)
  26:      1184.88    4.393244  ( -0.038953  -1.202137  -1.716564)
  27:      1221.66  122.230928  ( -6.542920  -0.276433  -8.907564)
  28:      1243.77   31.268505  ( -2.757977  -0.195587  -4.860434)
  29:      1280.31   62.764077  ( -1.642662   0.370805  -7.741333)
  30:      1369.48   23.705036  ( -2.544830  -0.538222   4.115725)
  31:      1382.29   13.748341  ( -0.161050   0.255827   3.695532)
  32:      1433.19    4.821347  ( -1.492684   1.168297   1.108298)
  33:      1483.47   18.944309  (  0.653783  -1.476044  -4.042051)
  34:      1502.00   57.921652  (  5.726602  -0.426472   4.994578)
  35:      1522.44  148.364146  (  5.896648  -4.502164  -9.660445)
  36:      1651.61   35.184226  (  2.250017  -3.537811   4.195896)
  37:      1659.33   50.513090  ( -4.200014  -5.484433  -1.671518)
  38:      1861.54  423.045562  (  0.956495   1.284934  20.505600)
  39:      2930.46   80.711868  (  7.979453  -1.087793  -3.982072)
  40:      3084.00   31.936160  ( -1.282341   2.471890   4.917471)
  41:      3161.05    3.807036  ( -1.765224   0.801408   0.220829)
  42:      3223.73    3.753887  ( -0.616955  -1.832166  -0.128143)
  43:      3253.55    3.268079  ( -0.730849   1.637348   0.230282)
  44:      3403.54   46.944222  ( -5.267510   0.421078   4.361222)
  45:      3476.38  107.462099  (  4.463670  -4.838794   8.007735)
  46:      3489.01   90.744875  ( -4.712973  -8.072113  -1.836779)
  47:      3599.51   59.179350  ( -7.530286  -0.114686   1.568756)

--------------------------
THERMOCHEMISTRY AT 298.15K
--------------------------

Temperature         ... 298.15 K
Pressure            ... 1.00 atm
Total Mass          ... 101.13 AMU

Throughout the following assumptions are being made:
  (1) The electronic state is orbitally nondegenerate
  (2) There are no thermally accessible electronically excited states
  (3) Hindered rotations indicated by low frequency modes) are not
      treated as such but are treated as vibrations and this may
      case some error
  (4) All equations used are the standard statistical mechanics
      equations for an ideal gas
  (5) All vibrations are strinctly harmonic

------------
INNER ENERGY
------------

The inner energy is: U= E(el) + E(ZPE) + E(vib) + E(rot) + E(trans)
    E(el)   - is the total energy from the electronic structure calculation
              = E(kin-el) + E(nuc-el) + E(el-el) + E(nuc-nuc)
    E(ZPE)  - the the zero temperature vibrational energy from the frequency calculation
    E(vib)  - the the finite temperature correction to E(ZPE) due to population
              of excietd vibrational states
    E(rot)  - is the rotational thermal energy
    E(trans)- is the translational thermal energy

Summary of contributions to the inner energy U:
Electronic energy                ...   -342.02601586 Eh
Zero point energy                ...      0.14044130 Eh      88.13 kcal/mol
Thermal vibrational correction   ...      0.00491581 Eh       3.08 kcal/mol
Thermal rotational correction    ...      0.00141627 Eh       0.89 kcal/mol
Thermal translational correction ...      0.00141627 Eh       0.89 kcal/mol
-----------------------------------------------------------------------
Total thermal energy                   -341.87782621 Eh

Summary of corrections to the electronic energy:
(perhaps to be used in another calculation)
Total thermal correction                  0.00774836 Eh       4.86 kcal/mol
Non-thermal (ZPE) correction              0.14044130 Eh      88.13 kcal/mol
-----------------------------------------------------------------------
Total correction                          0.14818966 Eh      92.99 kcal/mol

--------
ENTHALPY
--------

The enthalpy is H = U + kB*T
                kB is Boltzmann's constant
Total free energy                 ...   -341.87782621 Eh
Thermal Enthalpy correction       ...      0.00094421 Eh       0.59 kcal/mol
-----------------------------------------------------------------------
Total Enthalpy                    ...   -341.87688200 Eh

-------
ENTROPY
-------

The entropy contributions are T*S = T*(S(el)+S(vib)+S(rot)+S(trans)
     S(el)   - electronic entropy
     S(vib)  - vibrational entropy
     S(rot)  - rotational entropy
     S(trans)- translational entropy
The entropies will be listed as mutliplied by the temperature to get
units of energy

Electronic entropy                ...      0.00000000 Eh      0.00 kcal/mol
Vibrational entropy               ...      0.00896273 Eh      5.62 kcal/mol
Rotational entropy                ...      0.01219208 Eh      7.65 kcal/mol
Translational entropy             ...      0.01888714 Eh     11.85 kcal/mol
-----------------------------------------------------------------------
Final entropy term                ...      0.04004195 Eh     25.13 kcal/mol

CAUTION: The rotational entropy is not quite correctly treated here
         because it includes a symmetry number that is not yet correctly
         implemented in ORCA!
For a nonlinear molecule the correct rotational entropy is:
    S(rot) = R*(ln(qrot/sn)+1.5)
    R    = 8.31441 J/mol/K = 1.987191683e-3 kcal/mol/K
    qrot = 271433.5471790
    sn is the rotational symmetry number. We have assumed 3 here
       if it is different for your molecule then you should correct
       the printed rotational entropy by manually evaluating the equation
       as given above

For convenience we print out the resulting values for sn=1 - 12:
 sn= 1  qrot/sn=  271433.5472 T*S(rot)=     8.30 kcal/mol T*S(tot)=    25.78 kcal/mol
 sn= 2  qrot/sn=  135716.7736 T*S(rot)=     7.89 kcal/mol T*S(tot)=    25.37 kcal/mol
 sn= 3  qrot/sn=   90477.8491 T*S(rot)=     7.65 kcal/mol T*S(tot)=    25.13 kcal/mol
 sn= 4  qrot/sn=   67858.3868 T*S(rot)=     7.48 kcal/mol T*S(tot)=    24.96 kcal/mol
 sn= 5  qrot/sn=   54286.7094 T*S(rot)=     7.35 kcal/mol T*S(tot)=    24.82 kcal/mol
 sn= 6  qrot/sn=   45238.9245 T*S(rot)=     7.24 kcal/mol T*S(tot)=    24.72 kcal/mol
 sn= 7  qrot/sn=   38776.2210 T*S(rot)=     7.15 kcal/mol T*S(tot)=    24.62 kcal/mol
 sn= 8  qrot/sn=   33929.1934 T*S(rot)=     7.07 kcal/mol T*S(tot)=    24.55 kcal/mol
 sn= 9  qrot/sn=   30159.2830 T*S(rot)=     7.00 kcal/mol T*S(tot)=    24.48 kcal/mol
 sn=10  qrot/sn=   27143.3547 T*S(rot)=     6.94 kcal/mol T*S(tot)=    24.41 kcal/mol
 sn=11  qrot/sn=   24675.7770 T*S(rot)=     6.88 kcal/mol T*S(tot)=    24.36 kcal/mol
 sn=12  qrot/sn=   22619.4623 T*S(rot)=     6.83 kcal/mol T*S(tot)=    24.31 kcal/mol

-------------------
GIBBS FREE ENTHALPY
-------------------

The Gibbs free enthalpy is G = H - T*S

Total enthalpy                    ...   -341.87688200 Eh
Total entropy correction          ...     -0.04004195 Eh    -25.13 kcal/mol
-----------------------------------------------------------------------
Final Gibbs free enthalpy         ...   -341.91692395 Eh

For completeness - the Gibbs free enthalpy minus the electronic energy
G-E(el)                           ...      0.10909192 Eh     68.46 kcal/mol

                             ****ORCA TERMINATED NORMALLY****
TOTAL RUN TIME: 0 days 0 hours 31 minutes 26 seconds 554 msec
