                         Program Version 3.0.3 - RELEASE   -
|  1> ! NORI PBE0 def2-TZVP UseSym TightOPT Freq TightSCF Grid3 FinalGrid5 XYZFile
|  2> % pal
|  3>     nprocs 8
|  4> end
|  5> %method
|  6>     SymThresh 5.0e-2
|  7> end
|  8> % geom
|  9>     MaxIter 10
| 10> end
| 11> % maxcore 2000
| 12> % output
| 13>     printlevel mini
| 14>     print[ P_Basis ] 0
| 15>     print[ P_SCFInfo ] 1
| 16>     print[ P_SCFIterInfo ] 1
| 17>     print[ P_OrbEn ] 0
| 18>     print[ P_Cartesian ] 0
| 19> end
| 20> % elprop
| 21>     Dipole false
| 22> end
| 23> *xyz 1 1
| 24>  N        0.4404749470     0.2480042244    -0.2255586329
| 25>  C        1.6708789244    -0.5512723480    -0.0135506452
| 26>  C        2.2532465797    -1.3067097707    -1.1644190011
| 27>  C        2.9672581963    -0.1140440485    -0.6364768155
| 28>  O        4.1124894164    -0.3392230466     0.0754714456
| 29>  C        4.5445819369     0.7190886842     0.8449317013
| 30>  C        5.2415651116     0.5278050306     1.9477047750
| 31>  H       -0.3978536790    -0.3406113880    -0.2103459373
| 32>  H        0.4592465999     0.7239116924    -1.1306132915
| 33>  H        0.3346251957     0.9659759046     0.4965147640
| 34>  H        1.6971903679    -0.9846965246     0.9774689069
| 35>  H        2.6585871983    -2.2840372656    -0.9346532884
| 36>  H        1.7949785030    -1.2233706609    -2.1437636445
| 37>  H        2.9566563233     0.7891424511    -1.2499056278
| 38>  H        4.3165743495     1.7024024791     0.4393966693
| 39>  H        5.4709200447    -0.4664243687     2.3097956492
| 40>  H        5.6254999844     1.3799189551     2.4908229728
| 41> *
| 42>
| 43>                          ****END OF INPUT****
 Total Charge           Charge          ....    1
 Multiplicity           Mult            ....    1
 Number of Electrons    NEL             ....   54
FINAL SINGLE POINT ENERGY      -325.946491649454

CARTESIAN COORDINATES (ANGSTROEM)
---------------------------------
  N      0.438119   -0.000505   -2.538361
  C      0.408324   -0.589406   -1.177991
  C      1.690057   -0.737914   -0.423066
  C      0.693136    0.272232    0.020513
  O     -0.000174   -0.000110    1.167003
  C     -1.142258    0.747467    1.355846
  C     -2.164405    0.279152    2.044727
  H      0.723493   -0.689853   -3.240399
  H      1.100552    0.776836   -2.591296
  H     -0.481205    0.360960   -2.806971
  H     -0.353061   -1.353590   -1.092274
  H      1.793238   -1.641491    0.164570
  H      2.612431   -0.372469   -0.860949
  H      0.932257    1.323150   -0.154376
  H     -1.102004    1.754965    0.947445
  H     -2.160769   -0.721815    2.457581
  H     -3.016672    0.916358    2.234738

FINAL SINGLE POINT ENERGY      -325.946492329493
                    ***********************HURRAY********************
 Multiplicity           Mult            ....    1
 Number of Electrons    NEL             ....   54
 Basis Dimension        Dim             ....  277
FINAL SINGLE POINT ENERGY      -325.946493035828

VIBRATIONAL FREQUENCIES
-----------------------

   0:         0.00 cm**-1
   1:         0.00 cm**-1
   2:         0.00 cm**-1
   3:         0.00 cm**-1
   4:         0.00 cm**-1
   5:         0.00 cm**-1
   6:        55.45 cm**-1
   7:        88.94 cm**-1
   8:       153.59 cm**-1
   9:       181.70 cm**-1
  10:       276.48 cm**-1
  11:       335.14 cm**-1
  12:       403.99 cm**-1
  13:       467.79 cm**-1
  14:       503.03 cm**-1
  15:       728.59 cm**-1
  16:       797.26 cm**-1
  17:       820.80 cm**-1
  18:       894.59 cm**-1
  19:       911.92 cm**-1
  20:       930.48 cm**-1
  21:       953.36 cm**-1
  22:       969.43 cm**-1
  23:      1022.89 cm**-1
  24:      1052.67 cm**-1
  25:      1083.67 cm**-1
  26:      1115.70 cm**-1
  27:      1163.77 cm**-1
  28:      1173.22 cm**-1
  29:      1187.25 cm**-1
  30:      1245.63 cm**-1
  31:      1266.19 cm**-1
  32:      1339.02 cm**-1
  33:      1368.38 cm**-1
  34:      1419.39 cm**-1
  35:      1431.09 cm**-1
  36:      1494.80 cm**-1
  37:      1517.82 cm**-1
  38:      1651.85 cm**-1
  39:      1660.84 cm**-1
  40:      1731.73 cm**-1
  41:      3098.81 cm**-1
  42:      3157.13 cm**-1
  43:      3160.20 cm**-1
  44:      3188.33 cm**-1
  45:      3220.64 cm**-1
  46:      3250.96 cm**-1
  47:      3285.63 cm**-1
  48:      3403.39 cm**-1
  49:      3475.71 cm**-1
  50:      3493.58 cm**-1

IR SPECTRUM
-----------

 Mode    freq (cm**-1)   T**2         TX         TY         TZ
-------------------------------------------------------------------
   6:        55.45    7.154344  ( -2.524260  -0.425493   0.775506)
   7:        88.94    0.511363  ( -0.344129  -0.557287  -0.287000)
   8:       153.59    5.142568  (  1.831351  -1.196186  -0.598215)
   9:       181.70    0.203440  (  0.280451   0.169338  -0.310020)
  10:       276.48    4.070385  (  0.883690  -0.488123  -1.746772)
  11:       335.14    1.340392  ( -0.524648   0.906518   0.493318)
  12:       403.99   15.117577  (  0.812512   1.800317   3.349068)
  13:       467.79    3.084532  ( -1.031710   0.416361  -1.358952)
  14:       503.03    0.510286  (  0.454514   0.350015  -0.425667)
  15:       728.59    7.396750  ( -0.924965   0.153578  -2.552960)
  16:       797.26   18.724532  ( -0.485076  -3.147005  -2.930118)
  17:       820.80    4.923563  ( -1.738847   1.361039  -0.218052)
  18:       894.59    0.989219  ( -0.036710  -0.727871  -0.676813)
  19:       911.92   19.624313  (  3.737971   0.090156   2.375659)
  20:       930.48   50.639645  (  4.656638   2.096354   4.955872)
  21:       953.36   13.595131  ( -2.550355   2.260657   1.407213)
  22:       969.43   45.161789  (  0.097639   2.773766   6.120333)
  23:      1022.89    7.193933  (  1.690639   1.916507  -0.814048)
  24:      1052.67    7.095321  ( -0.518597   2.573674  -0.450090)
  25:      1083.67   10.366768  ( -3.097084  -0.878016   0.062654)
  26:      1115.70   18.624958  ( -1.567951   1.065396   3.877038)
  27:      1163.77   57.458930  (  6.386059  -2.831899  -2.942368)
  28:      1173.22   11.183228  (  2.883266   0.001091  -1.694108)
  29:      1187.25   82.355439  (  7.707748  -3.247275  -3.521542)
  30:      1245.63   30.759363  ( -4.020839  -0.165781   3.816378)
  31:      1266.19  136.999853  (  7.541529  -0.930856  -8.902736)
  32:      1339.02   12.766536  ( -1.201491  -1.024407   3.205237)
  33:      1368.38   59.646530  ( -3.575763   2.754132   6.266994)
  34:      1419.39   11.908719  ( -2.569534   0.941016   2.102547)
  35:      1431.09    6.846285  ( -0.484362  -1.180153   2.284495)
  36:      1494.80   60.375844  (  6.617464  -4.072458   0.010154)
  37:      1517.82  143.353962  ( -3.674176  -3.611160  10.808049)
  38:      1651.85   35.918855  (  3.114905  -4.778813  -1.838249)
  39:      1660.84   48.714776  (  5.686590   3.777040   1.453078)
  40:      1731.73   91.717170  (  8.316142   0.134610  -4.747718)
  41:      3098.81   18.507478  ( -2.471593  -2.040964   2.869350)
  42:      3157.13    4.089679  ( -0.696924   1.210965  -1.462032)
  43:      3160.20    9.429658  (  1.199716  -2.826597   0.026250)
  44:      3188.33    3.874831  ( -1.488867  -0.698308   1.081883)
  45:      3220.64    3.205220  ( -0.959474  -1.451330  -0.422222)
  46:      3250.96    4.120227  (  0.048151  -1.833912   0.868721)
  47:      3285.63    0.194830  (  0.366610  -0.229274  -0.088663)
  48:      3403.39   41.050406  ( -0.489313   0.382685  -6.376875)
  49:      3475.71   93.357164  (  5.253096  -7.852273  -2.025820)
  50:      3493.58   88.106708  (  8.089087   4.595585   1.246586)

--------------------------
THERMOCHEMISTRY AT 298.15K
--------------------------

Temperature         ... 298.15 K
Pressure            ... 1.00 atm
Total Mass          ... 100.14 AMU

Throughout the following assumptions are being made:
  (1) The electronic state is orbitally nondegenerate
  (2) There are no thermally accessible electronically excited states
  (3) Hindered rotations indicated by low frequency modes) are not
      treated as such but are treated as vibrations and this may
      case some error
  (4) All equations used are the standard statistical mechanics
      equations for an ideal gas
  (5) All vibrations are strinctly harmonic

------------
INNER ENERGY
------------

The inner energy is: U= E(el) + E(ZPE) + E(vib) + E(rot) + E(trans)
    E(el)   - is the total energy from the electronic structure calculation
              = E(kin-el) + E(nuc-el) + E(el-el) + E(nuc-nuc)
    E(ZPE)  - the the zero temperature vibrational energy from the frequency calculation
    E(vib)  - the the finite temperature correction to E(ZPE) due to population
              of excietd vibrational states
    E(rot)  - is the rotational thermal energy
    E(trans)- is the translational thermal energy

Summary of contributions to the inner energy U:
Electronic energy                ...   -325.94649304 Eh
Zero point energy                ...      0.15066172 Eh      94.54 kcal/mol
Thermal vibrational correction   ...      0.00514972 Eh       3.23 kcal/mol
Thermal rotational correction    ...      0.00141627 Eh       0.89 kcal/mol
Thermal translational correction ...      0.00141627 Eh       0.89 kcal/mol
-----------------------------------------------------------------------
Total thermal energy                   -325.78784906 Eh

Summary of corrections to the electronic energy:
(perhaps to be used in another calculation)
Total thermal correction                  0.00798226 Eh       5.01 kcal/mol
Non-thermal (ZPE) correction              0.15066172 Eh      94.54 kcal/mol
-----------------------------------------------------------------------
Total correction                          0.15864398 Eh      99.55 kcal/mol

--------
ENTHALPY
--------

The enthalpy is H = U + kB*T
                kB is Boltzmann's constant
Total free energy                 ...   -325.78784906 Eh
Thermal Enthalpy correction       ...      0.00094421 Eh       0.59 kcal/mol
-----------------------------------------------------------------------
Total Enthalpy                    ...   -325.78690485 Eh

-------
ENTROPY
-------

The entropy contributions are T*S = T*(S(el)+S(vib)+S(rot)+S(trans)
     S(el)   - electronic entropy
     S(vib)  - vibrational entropy
     S(rot)  - rotational entropy
     S(trans)- translational entropy
The entropies will be listed as mutliplied by the temperature to get
units of energy

Electronic entropy                ...      0.00000000 Eh      0.00 kcal/mol
Vibrational entropy               ...      0.00962866 Eh      6.04 kcal/mol
Rotational entropy                ...      0.01217688 Eh      7.64 kcal/mol
Translational entropy             ...      0.01887324 Eh     11.84 kcal/mol
-----------------------------------------------------------------------
Final entropy term                ...      0.04067878 Eh     25.53 kcal/mol

CAUTION: The rotational entropy is not quite correctly treated here
         because it includes a symmetry number that is not yet correctly
         implemented in ORCA!
For a nonlinear molecule the correct rotational entropy is:
    S(rot) = R*(ln(qrot/sn)+1.5)
    R    = 8.31441 J/mol/K = 1.987191683e-3 kcal/mol/K
    qrot = 267099.7503483
    sn is the rotational symmetry number. We have assumed 3 here
       if it is different for your molecule then you should correct
       the printed rotational entropy by manually evaluating the equation
       as given above

For convenience we print out the resulting values for sn=1 - 12:
 sn= 1  qrot/sn=  267099.7503 T*S(rot)=     8.29 kcal/mol T*S(tot)=    26.18 kcal/mol
 sn= 2  qrot/sn=  133549.8752 T*S(rot)=     7.88 kcal/mol T*S(tot)=    25.77 kcal/mol
 sn= 3  qrot/sn=   89033.2501 T*S(rot)=     7.64 kcal/mol T*S(tot)=    25.53 kcal/mol
 sn= 4  qrot/sn=   66774.9376 T*S(rot)=     7.47 kcal/mol T*S(tot)=    25.36 kcal/mol
 sn= 5  qrot/sn=   53419.9501 T*S(rot)=     7.34 kcal/mol T*S(tot)=    25.22 kcal/mol
 sn= 6  qrot/sn=   44516.6251 T*S(rot)=     7.23 kcal/mol T*S(tot)=    25.12 kcal/mol
 sn= 7  qrot/sn=   38157.1072 T*S(rot)=     7.14 kcal/mol T*S(tot)=    25.02 kcal/mol
 sn= 8  qrot/sn=   33387.4688 T*S(rot)=     7.06 kcal/mol T*S(tot)=    24.95 kcal/mol
 sn= 9  qrot/sn=   29677.7500 T*S(rot)=     6.99 kcal/mol T*S(tot)=    24.88 kcal/mol
 sn=10  qrot/sn=   26709.9750 T*S(rot)=     6.93 kcal/mol T*S(tot)=    24.81 kcal/mol
 sn=11  qrot/sn=   24281.7955 T*S(rot)=     6.87 kcal/mol T*S(tot)=    24.76 kcal/mol
 sn=12  qrot/sn=   22258.3125 T*S(rot)=     6.82 kcal/mol T*S(tot)=    24.70 kcal/mol

-------------------
GIBBS FREE ENTHALPY
-------------------

The Gibbs free enthalpy is G = H - T*S

Total enthalpy                    ...   -325.78690485 Eh
Total entropy correction          ...     -0.04067878 Eh    -25.53 kcal/mol
-----------------------------------------------------------------------
Final Gibbs free enthalpy         ...   -325.82758363 Eh

For completeness - the Gibbs free enthalpy minus the electronic energy
G-E(el)                           ...      0.11890940 Eh     74.62 kcal/mol

                             ****ORCA TERMINATED NORMALLY****
TOTAL RUN TIME: 0 days 0 hours 34 minutes 52 seconds 491 msec
