                         Program Version 3.0.3 - RELEASE   -
|  1> ! NORI PBE0 def2-TZVP UseSym TightOPT Freq TightSCF Grid3 FinalGrid5 XYZFile
|  2> % pal
|  3>     nprocs 8
|  4> end
|  5> %method
|  6>     SymThresh 5.0e-2
|  7> end
|  8> % geom
|  9>     MaxIter 10
| 10> end
| 11> % maxcore 2000
| 12> % output
| 13>     printlevel mini
| 14>     print[ P_Basis ] 0
| 15>     print[ P_SCFInfo ] 1
| 16>     print[ P_SCFIterInfo ] 1
| 17>     print[ P_OrbEn ] 0
| 18>     print[ P_Cartesian ] 0
| 19> end
| 20> % elprop
| 21>     Dipole false
| 22> end
| 23> *xyz 1 1
| 24>  N        0.9935088865     0.0696207466    -0.5296334617
| 25>  C        2.4239551133    -0.0750914957    -0.2070228969
| 26>  C        3.2726951518    -0.9039762374    -1.1203986394
| 27>  C        3.3297843354     0.5918104511    -1.1942665934
| 28>  O        2.5852058523     1.1808390395    -2.2230010010
| 29>  C        4.4845967276     1.4031691293    -0.6729366016
| 30>  O        4.0390311078     2.5765922159    -0.0529705620
| 31>  H        0.5431201315     0.7394741096     0.0973677878
| 32>  H        0.4765384579    -0.8101427297    -0.4901791932
| 33>  H        0.9571473431     0.4623990392    -1.4871704858
| 34>  H        2.6283160041    -0.0260601341     0.8537536939
| 35>  H        4.0879308012    -1.4472732097    -0.6589553348
| 36>  H        2.7940419262    -1.4201172982    -1.9460769529
| 37>  H        3.0271848604     1.0542388663    -3.0699390931
| 38>  H        5.1901763673     1.6009858051    -1.4895364400
| 39>  H        5.0214777128     0.8180532895     0.0791318971
| 40>  H        3.9172592208     3.2666784130    -0.7102561227
| 41> *
| 42>
| 43>                          ****END OF INPUT****
 Total Charge           Charge          ....    1
 Multiplicity           Mult            ....    1
 Number of Electrons    NEL             ....   56
FINAL SINGLE POINT ENERGY      -363.098582246731

CARTESIAN COORDINATES (ANGSTROEM)
---------------------------------
  N     -1.373541   -1.632015    0.027921
  C     -0.856504   -0.460074   -0.700214
  C     -1.397907    0.888716   -0.340957
  C     -0.048008    0.465612    0.153911
  O      0.000107   -0.000470    1.473125
  C      1.242899    1.005971   -0.398799
  O      2.211521    0.000043   -0.496126
  H     -0.856760   -2.476711   -0.224773
  H     -2.368376   -1.801432   -0.128095
  H     -1.196567   -1.443997    1.030732
  H     -0.551854   -0.687997   -1.712282
  H     -1.469880    1.608566   -1.146658
  H     -2.194979    0.948289    0.392414
  H     -0.068540    0.736356    2.090358
  H      1.576388    1.852966    0.213554
  H      1.066186    1.390423   -1.407315
  H      2.670266   -0.093063    0.342823

FINAL SINGLE POINT ENERGY      -363.098583214536
                    ***********************HURRAY********************
 Multiplicity           Mult            ....    1
 Number of Electrons    NEL             ....   56
 Basis Dimension        Dim             ....  277
FINAL SINGLE POINT ENERGY      -363.098584065262

VIBRATIONAL FREQUENCIES
-----------------------

   0:         0.00 cm**-1
   1:         0.00 cm**-1
   2:         0.00 cm**-1
   3:         0.00 cm**-1
   4:         0.00 cm**-1
   5:         0.00 cm**-1
   6:       103.35 cm**-1
   7:       146.93 cm**-1
   8:       234.86 cm**-1
   9:       242.74 cm**-1
  10:       282.22 cm**-1
  11:       305.92 cm**-1
  12:       357.25 cm**-1
  13:       388.20 cm**-1
  14:       441.77 cm**-1
  15:       548.60 cm**-1
  16:       572.95 cm**-1
  17:       760.10 cm**-1
  18:       820.73 cm**-1
  19:       892.61 cm**-1
  20:       909.84 cm**-1
  21:       957.70 cm**-1
  22:       975.12 cm**-1
  23:      1035.19 cm**-1
  24:      1070.49 cm**-1
  25:      1104.37 cm**-1
  26:      1119.61 cm**-1
  27:      1163.87 cm**-1
  28:      1194.42 cm**-1
  29:      1201.38 cm**-1
  30:      1257.06 cm**-1
  31:      1300.13 cm**-1
  32:      1346.37 cm**-1
  33:      1395.46 cm**-1
  34:      1401.97 cm**-1
  35:      1430.11 cm**-1
  36:      1480.22 cm**-1
  37:      1487.28 cm**-1
  38:      1501.05 cm**-1
  39:      1642.35 cm**-1
  40:      1663.24 cm**-1
  41:      3039.64 cm**-1
  42:      3101.12 cm**-1
  43:      3154.36 cm**-1
  44:      3227.19 cm**-1
  45:      3247.45 cm**-1
  46:      3269.33 cm**-1
  47:      3459.33 cm**-1
  48:      3510.28 cm**-1
  49:      3830.54 cm**-1
  50:      3871.67 cm**-1

IR SPECTRUM
-----------

 Mode    freq (cm**-1)   T**2         TX         TY         TZ
-------------------------------------------------------------------
   6:       103.35   21.780780  ( -4.660093  -0.157675   0.198633)
   7:       146.93    1.740009  ( -0.797579  -0.154290   1.039265)
   8:       234.86  119.567197  (  8.220229   6.863824  -2.209742)
   9:       242.74    9.684853  (  0.844112   2.083227   2.152322)
  10:       282.22   37.815711  ( -5.116012  -2.122193  -2.671785)
  11:       305.92   11.873982  (  1.847767   2.840072   0.627481)
  12:       357.25    6.609855  (  1.373814  -0.949782  -1.954585)
  13:       388.20   91.920258  (  9.503734  -1.165920   0.489835)
  14:       441.77   14.516006  (  2.895944   2.411434   0.560804)
  15:       548.60    1.847819  (  1.202990   0.561705   0.291755)
  16:       572.95   13.836058  ( -3.054776  -1.818469   1.094337)
  17:       760.10   20.186854  (  2.469346   2.785278  -2.516229)
  18:       820.73   13.879464  (  1.884999   1.112648   3.014674)
  19:       892.61   14.156941  ( -1.127079   0.142643   3.586961)
  20:       909.84    7.623052  ( -0.140921  -1.622739   2.229329)
  21:       957.70   17.185017  ( -1.867894   3.609852  -0.815449)
  22:       975.12   30.450050  (  1.687418  -3.065847  -4.266527)
  23:      1035.19   56.397405  ( -6.404947  -1.058891  -3.775289)
  24:      1070.49    2.546619  ( -0.806298   0.291657  -1.345897)
  25:      1104.37   31.005932  ( -1.636840   3.681667   3.843438)
  26:      1119.61   90.648948  ( -8.449788   4.387429   0.022420)
  27:      1163.87   16.211665  ( -3.714382   0.005083  -1.554029)
  28:      1194.42   36.734731  ( -1.789943   0.915171   5.717805)
  29:      1201.38    4.849528  (  0.307782  -1.871403   1.119218)
  30:      1257.06   82.173227  (  2.545355  -4.552341   7.414215)
  31:      1300.13   21.133052  (  0.893039   3.331241  -3.039468)
  32:      1346.37    5.480515  (  1.575679  -1.031511   1.390588)
  33:      1395.46   24.378932  ( -3.169961   3.016839   2.286692)
  34:      1401.97    1.287003  ( -0.741517  -0.236550  -0.825348)
  35:      1430.11   18.402549  (  2.961029  -2.785291   1.370040)
  36:      1480.22    1.430148  (  1.043428   0.191286  -0.552100)
  37:      1487.28  168.467047  ( -5.162455 -10.567346   5.490655)
  38:      1501.05   12.415979  ( -3.221498   0.408589   1.367838)
  39:      1642.35   26.506874  (  0.419231  -3.732874  -3.520905)
  40:      1663.24   32.288877  (  5.113335  -0.969015   2.281160)
  41:      3039.64   19.568407  (  0.780885  -4.270450  -0.849634)
  42:      3101.12    9.436574  ( -1.685766   0.109720  -2.565683)
  43:      3154.36    1.829731  (  0.284178  -1.140348   0.669761)
  44:      3227.19    0.961795  ( -0.925990  -0.216194  -0.239994)
  45:      3247.45    1.084135  ( -0.521393  -0.640419   0.634151)
  46:      3269.33  125.374420  ( -3.504640  -3.701910  -9.969342)
  47:      3459.33  104.569857  ( -3.608226  -8.325530  -4.715518)
  48:      3510.28   98.568861  (  9.006908  -4.160413  -0.368021)
  49:      3830.54  104.500352  ( -0.108395   5.758575   8.445556)
  50:      3871.67   78.824993  ( -6.579356   1.904110  -5.649021)

--------------------------
THERMOCHEMISTRY AT 298.15K
--------------------------

Temperature         ... 298.15 K
Pressure            ... 1.00 atm
Total Mass          ... 104.13 AMU

Throughout the following assumptions are being made:
  (1) The electronic state is orbitally nondegenerate
  (2) There are no thermally accessible electronically excited states
  (3) Hindered rotations indicated by low frequency modes) are not
      treated as such but are treated as vibrations and this may
      case some error
  (4) All equations used are the standard statistical mechanics
      equations for an ideal gas
  (5) All vibrations are strinctly harmonic

------------
INNER ENERGY
------------

The inner energy is: U= E(el) + E(ZPE) + E(vib) + E(rot) + E(trans)
    E(el)   - is the total energy from the electronic structure calculation
              = E(kin-el) + E(nuc-el) + E(el-el) + E(nuc-nuc)
    E(ZPE)  - the the zero temperature vibrational energy from the frequency calculation
    E(vib)  - the the finite temperature correction to E(ZPE) due to population
              of excietd vibrational states
    E(rot)  - is the rotational thermal energy
    E(trans)- is the translational thermal energy

Summary of contributions to the inner energy U:
Electronic energy                ...   -363.09858407 Eh
Zero point energy                ...      0.15137600 Eh      94.99 kcal/mol
Thermal vibrational correction   ...      0.00514060 Eh       3.23 kcal/mol
Thermal rotational correction    ...      0.00141627 Eh       0.89 kcal/mol
Thermal translational correction ...      0.00141627 Eh       0.89 kcal/mol
-----------------------------------------------------------------------
Total thermal energy                   -362.93923493 Eh

Summary of corrections to the electronic energy:
(perhaps to be used in another calculation)
Total thermal correction                  0.00797314 Eh       5.00 kcal/mol
Non-thermal (ZPE) correction              0.15137600 Eh      94.99 kcal/mol
-----------------------------------------------------------------------
Total correction                          0.15934914 Eh      99.99 kcal/mol

--------
ENTHALPY
--------

The enthalpy is H = U + kB*T
                kB is Boltzmann's constant
Total free energy                 ...   -362.93923493 Eh
Thermal Enthalpy correction       ...      0.00094421 Eh       0.59 kcal/mol
-----------------------------------------------------------------------
Total Enthalpy                    ...   -362.93829072 Eh

-------
ENTROPY
-------

The entropy contributions are T*S = T*(S(el)+S(vib)+S(rot)+S(trans)
     S(el)   - electronic entropy
     S(vib)  - vibrational entropy
     S(rot)  - rotational entropy
     S(trans)- translational entropy
The entropies will be listed as mutliplied by the temperature to get
units of energy

Electronic entropy                ...      0.00000000 Eh      0.00 kcal/mol
Vibrational entropy               ...      0.00862362 Eh      5.41 kcal/mol
Rotational entropy                ...      0.01202543 Eh      7.55 kcal/mol
Translational entropy             ...      0.01892854 Eh     11.88 kcal/mol
-----------------------------------------------------------------------
Final entropy term                ...      0.03957760 Eh     24.84 kcal/mol

CAUTION: The rotational entropy is not quite correctly treated here
         because it includes a symmetry number that is not yet correctly
         implemented in ORCA!
For a nonlinear molecule the correct rotational entropy is:
    S(rot) = R*(ln(qrot/sn)+1.5)
    R    = 8.31441 J/mol/K = 1.987191683e-3 kcal/mol/K
    qrot = 227515.8876708
    sn is the rotational symmetry number. We have assumed 3 here
       if it is different for your molecule then you should correct
       the printed rotational entropy by manually evaluating the equation
       as given above

For convenience we print out the resulting values for sn=1 - 12:
 sn= 1  qrot/sn=  227515.8877 T*S(rot)=     8.20 kcal/mol T*S(tot)=    25.49 kcal/mol
 sn= 2  qrot/sn=  113757.9438 T*S(rot)=     7.79 kcal/mol T*S(tot)=    25.08 kcal/mol
 sn= 3  qrot/sn=   75838.6292 T*S(rot)=     7.55 kcal/mol T*S(tot)=    24.84 kcal/mol
 sn= 4  qrot/sn=   56878.9719 T*S(rot)=     7.38 kcal/mol T*S(tot)=    24.66 kcal/mol
 sn= 5  qrot/sn=   45503.1775 T*S(rot)=     7.24 kcal/mol T*S(tot)=    24.53 kcal/mol
 sn= 6  qrot/sn=   37919.3146 T*S(rot)=     7.14 kcal/mol T*S(tot)=    24.42 kcal/mol
 sn= 7  qrot/sn=   32502.2697 T*S(rot)=     7.04 kcal/mol T*S(tot)=    24.33 kcal/mol
 sn= 8  qrot/sn=   28439.4860 T*S(rot)=     6.96 kcal/mol T*S(tot)=    24.25 kcal/mol
 sn= 9  qrot/sn=   25279.5431 T*S(rot)=     6.90 kcal/mol T*S(tot)=    24.18 kcal/mol
 sn=10  qrot/sn=   22751.5888 T*S(rot)=     6.83 kcal/mol T*S(tot)=    24.12 kcal/mol
 sn=11  qrot/sn=   20683.2625 T*S(rot)=     6.78 kcal/mol T*S(tot)=    24.07 kcal/mol
 sn=12  qrot/sn=   18959.6573 T*S(rot)=     6.72 kcal/mol T*S(tot)=    24.01 kcal/mol

-------------------
GIBBS FREE ENTHALPY
-------------------

The Gibbs free enthalpy is G = H - T*S

Total enthalpy                    ...   -362.93829072 Eh
Total entropy correction          ...     -0.03957760 Eh    -24.84 kcal/mol
-----------------------------------------------------------------------
Final Gibbs free enthalpy         ...   -362.97786832 Eh

For completeness - the Gibbs free enthalpy minus the electronic energy
G-E(el)                           ...      0.12071575 Eh     75.75 kcal/mol

                             ****ORCA TERMINATED NORMALLY****
TOTAL RUN TIME: 0 days 0 hours 35 minutes 14 seconds 210 msec
