                         Program Version 3.0.3 - RELEASE   -
|  1> ! NORI PBE0 def2-TZVP UseSym TightOPT Freq TightSCF Grid3 FinalGrid5 XYZFile
|  2> % pal
|  3>     nprocs 8
|  4> end
|  5> %method
|  6>     SymThresh 5.0e-2
|  7> end
|  8> % geom
|  9>     MaxIter 10
| 10> end
| 11> % maxcore 2000
| 12> % output
| 13>     printlevel mini
| 14>     print[ P_Basis ] 0
| 15>     print[ P_SCFInfo ] 1
| 16>     print[ P_SCFIterInfo ] 1
| 17>     print[ P_OrbEn ] 0
| 18>     print[ P_Cartesian ] 0
| 19> end
| 20> % elprop
| 21>     Dipole false
| 22> end
| 23> *xyz 1 1
| 24>  N        0.8828802799    -0.0377090457     0.2159215786
| 25>  C        2.3474190998    -0.1201503704     0.0060357850
| 26>  C        2.8819146999    -0.8939547663    -1.1539348756
| 27>  C        2.9450989342     0.6028779366    -1.1450808444
| 28>  O        4.1214123164     1.2505622623    -0.8513831299
| 29>  N        4.9001994888     1.2992195213    -2.0231643511
| 30>  C        5.9793545750     1.9188039038    -1.8193770501
| 31>  H        0.6298348448     0.7952112711     0.7554432967
| 32>  H        0.5327825517    -0.8593847501     0.7169189177
| 33>  H        0.3848239021     0.0103096267    -0.6757410100
| 34>  H        2.8824431659    -0.1300591321     0.9467661272
| 35>  H        3.7936579150    -1.4486181982    -0.9734599529
| 36>  H        2.1925460677    -1.3588265469    -1.8505862321
| 37>  H        2.2827142652     1.1255794095    -1.8355009192
| 38>  H        6.6436112177     2.0068185401    -2.6713518543
| 39>  H        6.2499366762     2.3491603384    -0.8572454856
| 40> *
| 41>
| 42>                          ****END OF INPUT****
 Total Charge           Charge          ....    1
 Multiplicity           Mult            ....    1
 Number of Electrons    NEL             ....   54
FINAL SINGLE POINT ENERGY      -341.948769747509

CARTESIAN COORDINATES (ANGSTROEM)
---------------------------------
  N      1.833054   -0.000031   -2.151340
  C      0.898958    0.570168   -1.152345
  C     -0.573328    0.475425   -1.383407
  C      0.084943   -0.356881   -0.325919
  O     -0.000782    0.000792    0.998598
  N     -1.229658   -0.467376    1.501575
  C     -1.343291   -0.200216    2.728652
  H      2.735845   -0.232324   -1.727632
  H      2.001772    0.656349   -2.918846
  H      1.456106   -0.857625   -2.561383
  H      1.310489    1.455609   -0.685683
  H     -1.157207    1.332699   -1.074249
  H     -0.945142   -0.039848   -2.262320
  H      0.155132   -1.427586   -0.518041
  H     -2.262092   -0.526383    3.201683
  H     -0.579721    0.323621    3.300398

FINAL SINGLE POINT ENERGY      -341.948770095719
                    ***********************HURRAY********************
 Multiplicity           Mult            ....    1
 Number of Electrons    NEL             ....   54
 Basis Dimension        Dim             ....  271
FINAL SINGLE POINT ENERGY      -341.948770164071

VIBRATIONAL FREQUENCIES
-----------------------

   0:         0.00 cm**-1
   1:         0.00 cm**-1
   2:         0.00 cm**-1
   3:         0.00 cm**-1
   4:         0.00 cm**-1
   5:         0.00 cm**-1
   6:        59.13 cm**-1
   7:        98.60 cm**-1
   8:       145.81 cm**-1
   9:       191.29 cm**-1
  10:       269.08 cm**-1
  11:       349.71 cm**-1
  12:       383.86 cm**-1
  13:       459.28 cm**-1
  14:       562.42 cm**-1
  15:       791.88 cm**-1
  16:       807.85 cm**-1
  17:       846.66 cm**-1
  18:       906.65 cm**-1
  19:       914.72 cm**-1
  20:       947.79 cm**-1
  21:      1007.02 cm**-1
  22:      1029.80 cm**-1
  23:      1051.30 cm**-1
  24:      1075.06 cm**-1
  25:      1110.00 cm**-1
  26:      1162.14 cm**-1
  27:      1182.88 cm**-1
  28:      1186.31 cm**-1
  29:      1245.46 cm**-1
  30:      1263.28 cm**-1
  31:      1359.09 cm**-1
  32:      1424.56 cm**-1
  33:      1432.13 cm**-1
  34:      1500.72 cm**-1
  35:      1520.31 cm**-1
  36:      1653.52 cm**-1
  37:      1658.97 cm**-1
  38:      1735.02 cm**-1
  39:      3119.59 cm**-1
  40:      3127.69 cm**-1
  41:      3158.04 cm**-1
  42:      3220.34 cm**-1
  43:      3254.75 cm**-1
  44:      3254.96 cm**-1
  45:      3406.40 cm**-1
  46:      3480.84 cm**-1
  47:      3494.35 cm**-1

IR SPECTRUM
-----------

 Mode    freq (cm**-1)   T**2         TX         TY         TZ
-------------------------------------------------------------------
   6:        59.13    1.291587  (  0.212215  -0.937328   0.606603)
   7:        98.60   22.115390  (  2.191796  -3.867623   1.533922)
   8:       145.81   12.493908  ( -2.772093  -2.041234  -0.801731)
   9:       191.29    1.615179  ( -0.855771  -0.870674  -0.353216)
  10:       269.08    7.804121  (  0.837639   0.516474  -2.614524)
  11:       349.71    5.230796  ( -0.458420  -0.350781   2.213052)
  12:       383.86    6.040218  (  0.145282  -1.859240   1.600730)
  13:       459.28    7.359837  (  2.708609  -0.151127   0.020837)
  14:       562.42    2.363675  ( -0.749683   1.110164   0.754444)
  15:       791.88    5.827595  (  1.278477   2.018013   0.347440)
  16:       807.85    0.526965  ( -0.278643   0.355069  -0.568550)
  17:       846.66   47.944006  ( -1.960264  -2.468282   6.165140)
  18:       906.65   89.486234  (  5.400237   1.735722  -7.570399)
  19:       914.72    8.290391  (  2.645267  -0.486036  -1.027970)
  20:       947.79   31.139504  (  5.290722   1.685934  -0.552627)
  21:      1007.02    7.949677  ( -0.925832   2.406937   1.139809)
  22:      1029.80   33.281342  ( -2.499567   5.059861  -1.196377)
  23:      1051.30   22.431463  ( -1.876895   2.363262   3.650167)
  24:      1075.06   13.724578  (  3.085721   0.627792  -1.951610)
  25:      1110.00   15.045540  (  0.452375   0.923996  -3.739937)
  26:      1162.14   95.059351  (  2.064363   0.472609  -9.517058)
  27:      1182.88    9.144574  ( -2.328042   1.786170   0.731019)
  28:      1186.31    3.304480  (  1.072999   0.240124   1.447582)
  29:      1245.46    0.545972  ( -0.568841  -0.314467   0.351429)
  30:      1263.28   47.337300  ( -1.445048  -0.021357   6.726714)
  31:      1359.09   50.994809  ( -3.941256  -1.633407   5.726542)
  32:      1424.56    5.630132  (  1.426445   0.951010   1.640417)
  33:      1432.13   10.012392  ( -1.803692   1.607485   2.043301)
  34:      1500.72   32.471456  (  4.354699  -2.614008   2.583605)
  35:      1520.31  140.140409  ( -5.335563   4.098593   9.740314)
  36:      1653.52   36.277470  ( -1.547103   4.291710  -3.932577)
  37:      1658.97   48.314016  ( -4.606618  -4.700999  -2.234658)
  38:      1735.02    4.085306  (  1.746813   0.651366  -0.780815)
  39:      3119.59   24.510124  ( -2.240815   1.863664   4.001953)
  40:      3127.69    1.181250  (  0.928115   0.518354   0.226189)
  41:      3158.04    4.980909  ( -1.820249   1.202551   0.470611)
  42:      3220.34    3.362650  (  0.838544   1.592244   0.352494)
  43:      3254.75    1.868066  ( -0.665593  -0.244161   1.168519)
  44:      3254.96    3.415107  (  0.721604  -1.668394  -0.332952)
  45:      3406.40   48.526824  (  5.464598  -0.806036  -4.244443)
  46:      3480.84  102.647107  ( -4.259782   5.777130  -7.150254)
  47:      3494.35   90.972243  (  5.612213   7.253339   2.619997)

--------------------------
THERMOCHEMISTRY AT 298.15K
--------------------------

Temperature         ... 298.15 K
Pressure            ... 1.00 atm
Total Mass          ... 101.13 AMU

Throughout the following assumptions are being made:
  (1) The electronic state is orbitally nondegenerate
  (2) There are no thermally accessible electronically excited states
  (3) Hindered rotations indicated by low frequency modes) are not
      treated as such but are treated as vibrations and this may
      case some error
  (4) All equations used are the standard statistical mechanics
      equations for an ideal gas
  (5) All vibrations are strinctly harmonic

------------
INNER ENERGY
------------

The inner energy is: U= E(el) + E(ZPE) + E(vib) + E(rot) + E(trans)
    E(el)   - is the total energy from the electronic structure calculation
              = E(kin-el) + E(nuc-el) + E(el-el) + E(nuc-nuc)
    E(ZPE)  - the the zero temperature vibrational energy from the frequency calculation
    E(vib)  - the the finite temperature correction to E(ZPE) due to population
              of excietd vibrational states
    E(rot)  - is the rotational thermal energy
    E(trans)- is the translational thermal energy

Summary of contributions to the inner energy U:
Electronic energy                ...   -341.94877016 Eh
Zero point energy                ...      0.13862482 Eh      86.99 kcal/mol
Thermal vibrational correction   ...      0.00500619 Eh       3.14 kcal/mol
Thermal rotational correction    ...      0.00141627 Eh       0.89 kcal/mol
Thermal translational correction ...      0.00141627 Eh       0.89 kcal/mol
-----------------------------------------------------------------------
Total thermal energy                   -341.80230661 Eh

Summary of corrections to the electronic energy:
(perhaps to be used in another calculation)
Total thermal correction                  0.00783873 Eh       4.92 kcal/mol
Non-thermal (ZPE) correction              0.13862482 Eh      86.99 kcal/mol
-----------------------------------------------------------------------
Total correction                          0.14646355 Eh      91.91 kcal/mol

--------
ENTHALPY
--------

The enthalpy is H = U + kB*T
                kB is Boltzmann's constant
Total free energy                 ...   -341.80230661 Eh
Thermal Enthalpy correction       ...      0.00094421 Eh       0.59 kcal/mol
-----------------------------------------------------------------------
Total Enthalpy                    ...   -341.80136240 Eh

-------
ENTROPY
-------

The entropy contributions are T*S = T*(S(el)+S(vib)+S(rot)+S(trans)
     S(el)   - electronic entropy
     S(vib)  - vibrational entropy
     S(rot)  - rotational entropy
     S(trans)- translational entropy
The entropies will be listed as mutliplied by the temperature to get
units of energy

Electronic entropy                ...      0.00000000 Eh      0.00 kcal/mol
Vibrational entropy               ...      0.00932895 Eh      5.85 kcal/mol
Rotational entropy                ...      0.01202746 Eh      7.55 kcal/mol
Translational entropy             ...      0.01888714 Eh     11.85 kcal/mol
-----------------------------------------------------------------------
Final entropy term                ...      0.04024355 Eh     25.25 kcal/mol

CAUTION: The rotational entropy is not quite correctly treated here
         because it includes a symmetry number that is not yet correctly
         implemented in ORCA!
For a nonlinear molecule the correct rotational entropy is:
    S(rot) = R*(ln(qrot/sn)+1.5)
    R    = 8.31441 J/mol/K = 1.987191683e-3 kcal/mol/K
    qrot = 228004.0435946
    sn is the rotational symmetry number. We have assumed 3 here
       if it is different for your molecule then you should correct
       the printed rotational entropy by manually evaluating the equation
       as given above

For convenience we print out the resulting values for sn=1 - 12:
 sn= 1  qrot/sn=  228004.0436 T*S(rot)=     8.20 kcal/mol T*S(tot)=    25.90 kcal/mol
 sn= 2  qrot/sn=  114002.0218 T*S(rot)=     7.79 kcal/mol T*S(tot)=    25.49 kcal/mol
 sn= 3  qrot/sn=   76001.3479 T*S(rot)=     7.55 kcal/mol T*S(tot)=    25.25 kcal/mol
 sn= 4  qrot/sn=   57001.0109 T*S(rot)=     7.38 kcal/mol T*S(tot)=    25.08 kcal/mol
 sn= 5  qrot/sn=   45600.8087 T*S(rot)=     7.24 kcal/mol T*S(tot)=    24.95 kcal/mol
 sn= 6  qrot/sn=   38000.6739 T*S(rot)=     7.14 kcal/mol T*S(tot)=    24.84 kcal/mol
 sn= 7  qrot/sn=   32572.0062 T*S(rot)=     7.05 kcal/mol T*S(tot)=    24.75 kcal/mol
 sn= 8  qrot/sn=   28500.5054 T*S(rot)=     6.97 kcal/mol T*S(tot)=    24.67 kcal/mol
 sn= 9  qrot/sn=   25333.7826 T*S(rot)=     6.90 kcal/mol T*S(tot)=    24.60 kcal/mol
 sn=10  qrot/sn=   22800.4044 T*S(rot)=     6.83 kcal/mol T*S(tot)=    24.54 kcal/mol
 sn=11  qrot/sn=   20727.6403 T*S(rot)=     6.78 kcal/mol T*S(tot)=    24.48 kcal/mol
 sn=12  qrot/sn=   19000.3370 T*S(rot)=     6.73 kcal/mol T*S(tot)=    24.43 kcal/mol

-------------------
GIBBS FREE ENTHALPY
-------------------

The Gibbs free enthalpy is G = H - T*S

Total enthalpy                    ...   -341.80136240 Eh
Total entropy correction          ...     -0.04024355 Eh    -25.25 kcal/mol
-----------------------------------------------------------------------
Final Gibbs free enthalpy         ...   -341.84160595 Eh

For completeness - the Gibbs free enthalpy minus the electronic energy
G-E(el)                           ...      0.10716421 Eh     67.25 kcal/mol

                             ****ORCA TERMINATED NORMALLY****
TOTAL RUN TIME: 0 days 0 hours 28 minutes 4 seconds 15 msec
