                         Program Version 3.0.3 - RELEASE   -
|  1> ! NORI PBE0 def2-TZVP UseSym TightOPT Freq TightSCF Grid3 FinalGrid5 XYZFile
|  2> % pal
|  3>     nprocs 8
|  4> end
|  5> %method
|  6>     SymThresh 5.0e-2
|  7> end
|  8> % geom
|  9>     MaxIter 10
| 10> end
| 11> % maxcore 2000
| 12> % output
| 13>     printlevel mini
| 14>     print[ P_Basis ] 0
| 15>     print[ P_SCFInfo ] 1
| 16>     print[ P_SCFIterInfo ] 1
| 17>     print[ P_OrbEn ] 0
| 18>     print[ P_Cartesian ] 0
| 19> end
| 20> % elprop
| 21>     Dipole false
| 22> end
| 23> *xyz 1 1
| 24>  N        1.0603738174    -0.0297024977     0.1435355337
| 25>  C        2.5482205753    -0.0976160774    -0.0564504310
| 26>  C        3.1308203051    -1.2405083147     0.8011041353
| 27>  C        3.7951283336    -0.3518658594     1.8582766872
| 28>  C        4.5805710052     0.6569532880     1.0149031009
| 29>  C        3.1470208762     1.0864092257     0.7243821758
| 30>  O        2.7706739084     0.6808352676     2.0614867694
| 31>  H        0.6276136567     0.7277848216    -0.3883440710
| 32>  H        0.9328710741     0.1526947683     1.1515849908
| 33>  H        0.5912928287    -0.9029935096    -0.1000677594
| 34>  H        2.7523461520    -0.1354310557    -1.1251245012
| 35>  H        3.8385475815    -1.8588964121     0.2499215887
| 36>  H        2.3656470350    -1.8940210736     1.2266770123
| 37>  H        4.1663294273    -0.8026963664     2.7739077750
| 38>  H        5.0924687118     1.3978979146     1.6247158956
| 39>  H        5.2117162492     0.2943205707     0.2033941872
| 40>  H        2.8550784625     2.0996653101     0.4481469107
| 41> *
| 42>
| 43>                          ****END OF INPUT****
 Total Charge           Charge          ....    1
 Multiplicity           Mult            ....    1
 Number of Electrons    NEL             ....   54
FINAL SINGLE POINT ENERGY      -325.985952092492

CARTESIAN COORDINATES (ANGSTROEM)
---------------------------------
  N      1.979197   -0.000204   -0.505099
  C      0.546734   -0.207503   -0.909513
  C     -0.230788    1.115517   -0.746982
  C     -1.023341    0.706613    0.499450
  C     -1.600734   -0.656922    0.107390
  C     -0.119245   -0.992691    0.235150
  O      0.000059    0.000184    1.281064
  H      2.533879   -0.855500   -0.575411
  H      1.939625    0.293623    0.483811
  H      2.439859    0.728149   -1.052076
  H      0.528733   -0.666680   -1.896201
  H     -0.862124    1.338631   -1.606417
  H      0.416141    1.977292   -0.565891
  H     -1.568870    1.464346    1.054310
  H     -2.173237   -1.111655    0.912574
  H     -2.099052   -0.766108   -0.855681
  H      0.265474   -1.980828    0.488120

FINAL SINGLE POINT ENERGY      -325.985952445497
                    ***********************HURRAY********************
 Multiplicity           Mult            ....    1
 Number of Electrons    NEL             ....   54
 Basis Dimension        Dim             ....  277
FINAL SINGLE POINT ENERGY      -325.985952546644

VIBRATIONAL FREQUENCIES
-----------------------

   0:         0.00 cm**-1
   1:         0.00 cm**-1
   2:         0.00 cm**-1
   3:         0.00 cm**-1
   4:         0.00 cm**-1
   5:         0.00 cm**-1
   6:       186.83 cm**-1
   7:       316.91 cm**-1
   8:       329.47 cm**-1
   9:       440.72 cm**-1
  10:       452.36 cm**-1
  11:       594.87 cm**-1
  12:       726.55 cm**-1
  13:       807.17 cm**-1
  14:       852.58 cm**-1
  15:       859.17 cm**-1
  16:       874.23 cm**-1
  17:       914.57 cm**-1
  18:       933.52 cm**-1
  19:       961.35 cm**-1
  20:       969.50 cm**-1
  21:      1011.63 cm**-1
  22:      1017.29 cm**-1
  23:      1052.94 cm**-1
  24:      1088.05 cm**-1
  25:      1109.65 cm**-1
  26:      1117.84 cm**-1
  27:      1204.78 cm**-1
  28:      1235.62 cm**-1
  29:      1243.20 cm**-1
  30:      1245.52 cm**-1
  31:      1277.06 cm**-1
  32:      1314.36 cm**-1
  33:      1324.09 cm**-1
  34:      1337.77 cm**-1
  35:      1392.97 cm**-1
  36:      1464.72 cm**-1
  37:      1479.22 cm**-1
  38:      1494.12 cm**-1
  39:      1645.25 cm**-1
  40:      1668.55 cm**-1
  41:      3086.84 cm**-1
  42:      3111.48 cm**-1
  43:      3139.68 cm**-1
  44:      3150.88 cm**-1
  45:      3158.55 cm**-1
  46:      3187.06 cm**-1
  47:      3190.82 cm**-1
  48:      3314.83 cm**-1
  49:      3467.71 cm**-1
  50:      3519.40 cm**-1

IR SPECTRUM
-----------

 Mode    freq (cm**-1)   T**2         TX         TY         TZ
-------------------------------------------------------------------
   6:       186.83   26.453147  ( -3.756138   1.275832   3.273657)
   7:       316.91    3.825679  (  0.426152   1.535151  -1.134630)
   8:       329.47    9.276896  (  0.984426   2.419896  -1.565855)
   9:       440.72    6.790146  ( -2.112624   0.932230   1.207441)
  10:       452.36   19.769545  (  4.341713   0.855135  -0.433378)
  11:       594.87    6.434475  (  1.239364   1.091240  -1.925525)
  12:       726.55    0.762894  (  0.054802   0.792896  -0.362225)
  13:       807.17    7.386021  (  1.885950  -0.996686  -1.683992)
  14:       852.58   10.100505  ( -2.593606   1.805703  -0.336377)
  15:       859.17   20.553489  (  2.465039  -1.553835   3.473135)
  16:       874.23    0.991210  ( -0.094682   0.824573  -0.549840)
  17:       914.57   23.513691  ( -3.676455  -0.566980  -3.110611)
  18:       933.52   38.819243  ( -3.235544   4.005072   3.508546)
  19:       961.35    3.469023  ( -0.608237   1.548578   0.837244)
  20:       969.50    7.832047  ( -0.845632   1.280908  -2.340134)
  21:      1011.63   11.596999  (  3.359661   0.505402  -0.232911)
  22:      1017.29   22.229351  ( -1.584693  -3.543025   2.676765)
  23:      1052.94   11.146436  (  0.862641   2.055241  -2.485613)
  24:      1088.05    8.134775  ( -1.195345  -1.388217  -2.186042)
  25:      1109.65    4.726747  ( -0.170379  -2.033265   0.750701)
  26:      1117.84    5.313037  (  0.442774  -1.751555   1.431448)
  27:      1204.78   14.665234  (  1.366484  -3.048470  -1.872106)
  28:      1235.62    1.903775  ( -0.710870  -0.405806   1.110747)
  29:      1243.20   10.625175  ( -1.847939   2.328471   1.337355)
  30:      1245.52    8.068759  (  1.350553   1.569422  -1.944655)
  31:      1277.06    1.033911  (  0.271913  -0.382053  -0.902225)
  32:      1314.36    6.267016  ( -2.025669   1.325785   0.637163)
  33:      1324.09    3.280246  ( -0.505237   1.306865   1.147643)
  34:      1337.77    3.141324  (  0.240127   0.659895   1.627330)
  35:      1392.97   19.108141  ( -3.188134   1.157575   2.757529)
  36:      1464.72  178.591676  ( 12.617404   1.739372   4.045662)
  37:      1479.22   30.025237  (  4.130645   3.598280   0.124064)
  38:      1494.12    5.286488  (  1.615385  -1.023625   1.276405)
  39:      1645.25   38.747895  (  3.245874  -1.303779  -5.149015)
  40:      1668.55   29.493593  (  0.224654  -4.935848   2.254002)
  41:      3086.84    7.901763  ( -1.982583  -1.932998   0.484405)
  42:      3111.48    5.027336  (  1.545976   0.208704   1.610508)
  43:      3139.68    8.426184  (  1.385057  -2.548864  -0.105330)
  44:      3150.88    2.255154  ( -1.408636   0.429695   0.293701)
  45:      3158.55    2.354938  (  0.224746  -1.119653  -1.025087)
  46:      3187.06    3.287868  (  1.284746  -1.273757   0.121820)
  47:      3190.82    1.425200  ( -0.269263  -0.721033  -0.912583)
  48:      3314.83   68.404717  ( -1.140965   1.626110   8.028617)
  49:      3467.71  104.025846  (  7.909337  -2.278527  -6.023002)
  50:      3519.40   87.145070  ( -0.702706  -8.661243   3.410887)

--------------------------
THERMOCHEMISTRY AT 298.15K
--------------------------

Temperature         ... 298.15 K
Pressure            ... 1.00 atm
Total Mass          ... 100.14 AMU

Throughout the following assumptions are being made:
  (1) The electronic state is orbitally nondegenerate
  (2) There are no thermally accessible electronically excited states
  (3) Hindered rotations indicated by low frequency modes) are not
      treated as such but are treated as vibrations and this may
      case some error
  (4) All equations used are the standard statistical mechanics
      equations for an ideal gas
  (5) All vibrations are strinctly harmonic

------------
INNER ENERGY
------------

The inner energy is: U= E(el) + E(ZPE) + E(vib) + E(rot) + E(trans)
    E(el)   - is the total energy from the electronic structure calculation
              = E(kin-el) + E(nuc-el) + E(el-el) + E(nuc-nuc)
    E(ZPE)  - the the zero temperature vibrational energy from the frequency calculation
    E(vib)  - the the finite temperature correction to E(ZPE) due to population
              of excietd vibrational states
    E(rot)  - is the rotational thermal energy
    E(trans)- is the translational thermal energy

Summary of contributions to the inner energy U:
Electronic energy                ...   -325.98595255 Eh
Zero point energy                ...      0.15553430 Eh      97.60 kcal/mol
Thermal vibrational correction   ...      0.00291440 Eh       1.83 kcal/mol
Thermal rotational correction    ...      0.00141627 Eh       0.89 kcal/mol
Thermal translational correction ...      0.00141627 Eh       0.89 kcal/mol
-----------------------------------------------------------------------
Total thermal energy                   -325.82467130 Eh

Summary of corrections to the electronic energy:
(perhaps to be used in another calculation)
Total thermal correction                  0.00574695 Eh       3.61 kcal/mol
Non-thermal (ZPE) correction              0.15553430 Eh      97.60 kcal/mol
-----------------------------------------------------------------------
Total correction                          0.16128124 Eh     101.21 kcal/mol

--------
ENTHALPY
--------

The enthalpy is H = U + kB*T
                kB is Boltzmann's constant
Total free energy                 ...   -325.82467130 Eh
Thermal Enthalpy correction       ...      0.00094421 Eh       0.59 kcal/mol
-----------------------------------------------------------------------
Total Enthalpy                    ...   -325.82372709 Eh

-------
ENTROPY
-------

The entropy contributions are T*S = T*(S(el)+S(vib)+S(rot)+S(trans)
     S(el)   - electronic entropy
     S(vib)  - vibrational entropy
     S(rot)  - rotational entropy
     S(trans)- translational entropy
The entropies will be listed as mutliplied by the temperature to get
units of energy

Electronic entropy                ...      0.00000000 Eh      0.00 kcal/mol
Vibrational entropy               ...      0.00432712 Eh      2.72 kcal/mol
Rotational entropy                ...      0.01164331 Eh      7.31 kcal/mol
Translational entropy             ...      0.01887324 Eh     11.84 kcal/mol
-----------------------------------------------------------------------
Final entropy term                ...      0.03484366 Eh     21.86 kcal/mol

CAUTION: The rotational entropy is not quite correctly treated here
         because it includes a symmetry number that is not yet correctly
         implemented in ORCA!
For a nonlinear molecule the correct rotational entropy is:
    S(rot) = R*(ln(qrot/sn)+1.5)
    R    = 8.31441 J/mol/K = 1.987191683e-3 kcal/mol/K
    qrot = 151791.4132125
    sn is the rotational symmetry number. We have assumed 3 here
       if it is different for your molecule then you should correct
       the printed rotational entropy by manually evaluating the equation
       as given above

For convenience we print out the resulting values for sn=1 - 12:
 sn= 1  qrot/sn=  151791.4132 T*S(rot)=     7.96 kcal/mol T*S(tot)=    22.52 kcal/mol
 sn= 2  qrot/sn=   75895.7066 T*S(rot)=     7.55 kcal/mol T*S(tot)=    22.10 kcal/mol
 sn= 3  qrot/sn=   50597.1377 T*S(rot)=     7.31 kcal/mol T*S(tot)=    21.86 kcal/mol
 sn= 4  qrot/sn=   37947.8533 T*S(rot)=     7.14 kcal/mol T*S(tot)=    21.69 kcal/mol
 sn= 5  qrot/sn=   30358.2826 T*S(rot)=     7.00 kcal/mol T*S(tot)=    21.56 kcal/mol
 sn= 6  qrot/sn=   25298.5689 T*S(rot)=     6.90 kcal/mol T*S(tot)=    21.45 kcal/mol
 sn= 7  qrot/sn=   21684.4876 T*S(rot)=     6.80 kcal/mol T*S(tot)=    21.36 kcal/mol
 sn= 8  qrot/sn=   18973.9267 T*S(rot)=     6.73 kcal/mol T*S(tot)=    21.28 kcal/mol
 sn= 9  qrot/sn=   16865.7126 T*S(rot)=     6.66 kcal/mol T*S(tot)=    21.21 kcal/mol
 sn=10  qrot/sn=   15179.1413 T*S(rot)=     6.59 kcal/mol T*S(tot)=    21.15 kcal/mol
 sn=11  qrot/sn=   13799.2194 T*S(rot)=     6.54 kcal/mol T*S(tot)=    21.09 kcal/mol
 sn=12  qrot/sn=   12649.2844 T*S(rot)=     6.48 kcal/mol T*S(tot)=    21.04 kcal/mol

-------------------
GIBBS FREE ENTHALPY
-------------------

The Gibbs free enthalpy is G = H - T*S

Total enthalpy                    ...   -325.82372709 Eh
Total entropy correction          ...     -0.03484366 Eh    -21.86 kcal/mol
-----------------------------------------------------------------------
Final Gibbs free enthalpy         ...   -325.85857076 Eh

For completeness - the Gibbs free enthalpy minus the electronic energy
G-E(el)                           ...      0.12738179 Eh     79.93 kcal/mol

                             ****ORCA TERMINATED NORMALLY****
TOTAL RUN TIME: 0 days 0 hours 40 minutes 34 seconds 131 msec
