                         Program Version 3.0.3 - RELEASE   -
|  1> ! NORI PBE0 def2-TZVP UseSym TightOPT Freq TightSCF Grid3 FinalGrid5 XYZFile
|  2> % pal
|  3>     nprocs 8
|  4> end
|  5> %method
|  6>     SymThresh 5.0e-2
|  7> end
|  8> % geom
|  9>     MaxIter 10
| 10> end
| 11> % maxcore 2000
| 12> % output
| 13>     printlevel mini
| 14>     print[ P_Basis ] 0
| 15>     print[ P_SCFInfo ] 1
| 16>     print[ P_SCFIterInfo ] 1
| 17>     print[ P_OrbEn ] 0
| 18>     print[ P_Cartesian ] 0
| 19> end
| 20> % elprop
| 21>     Dipole false
| 22> end
| 23> *xyz 1 1
| 24>  N        1.5572960003     0.1741201285     1.0201611623
| 25>  C        2.5796311091    -0.1056026126    -0.0491926728
| 26>  C        2.4252010349    -1.5116731129    -0.6335049542
| 27>  C        3.0159641858    -1.3452300462    -2.0114918090
| 28>  O        4.2294551859    -0.6096970038    -1.9958815612
| 29>  C        3.0400690061     0.0735835505    -2.3587048860
| 30>  C        2.4646733695     0.8755847588    -1.2179625117
| 31>  H        1.6677185252     1.1168604195     1.4008417179
| 32>  H        1.6418587907    -0.4867395780     1.7960009270
| 33>  H        0.6072192090     0.0984744238     0.6498884295
| 34>  H        3.5462475901    -0.0015759966     0.4421240029
| 35>  H        2.9326932248    -2.2733639403    -0.0380325577
| 36>  H        1.3700441836    -1.7961714919    -0.7287154271
| 37>  H        2.9421272080    -2.1419741480    -2.7430244183
| 38>  H        2.9858886260     0.4444192747    -3.3758370565
| 39>  H        1.4182865852     1.1159277410    -1.4419824287
| 40>  H        2.9993561659     1.8106176334    -1.0371459564
| 41> *
| 42>
| 43>                          ****END OF INPUT****
 Total Charge           Charge          ....    1
 Multiplicity           Mult            ....    1
 Number of Electrons    NEL             ....   54
FINAL SINGLE POINT ENERGY      -325.994362204414

CARTESIAN COORDINATES (ANGSTROEM)
---------------------------------
  N     -2.155111    1.004921    0.000000
  C     -0.682102    0.691593   -0.000000
  C     -0.272173   -0.123122    1.228970
  C      0.953243   -0.848148    0.730332
  O      1.825580   -0.000123   -0.000000
  C      0.953243   -0.848148   -0.730332
  C     -0.272173   -0.123122   -1.228970
  H     -2.418736    1.547299   -0.825874
  H     -2.418736    1.547299    0.825874
  H     -2.713536    0.148264    0.000000
  H     -0.181525    1.658856   -0.000000
  H     -0.075899    0.502248    2.102551
  H     -1.038620   -0.860058    1.499200
  H      1.419734   -1.620335    1.331347
  H      1.419734   -1.620335   -1.331347
  H     -1.038620   -0.860058   -1.499200
  H     -0.075899    0.502248   -2.102551

FINAL SINGLE POINT ENERGY      -325.994362631560
                    ***********************HURRAY********************
 Multiplicity           Mult            ....    1
 Number of Electrons    NEL             ....   54
 Basis Dimension        Dim             ....  277
FINAL SINGLE POINT ENERGY      -325.994362720201

VIBRATIONAL FREQUENCIES
-----------------------

   0:         0.00 cm**-1
   1:         0.00 cm**-1
   2:         0.00 cm**-1
   3:         0.00 cm**-1
   4:         0.00 cm**-1
   5:         0.00 cm**-1
   6:       136.75 cm**-1
   7:       226.53 cm**-1
   8:       303.83 cm**-1
   9:       342.70 cm**-1
  10:       381.12 cm**-1
  11:       432.23 cm**-1
  12:       623.04 cm**-1
  13:       679.85 cm**-1
  14:       843.61 cm**-1
  15:       857.40 cm**-1
  16:       876.22 cm**-1
  17:       907.02 cm**-1
  18:       912.83 cm**-1
  19:       951.92 cm**-1
  20:      1000.68 cm**-1
  21:      1015.55 cm**-1
  22:      1027.63 cm**-1
  23:      1058.21 cm**-1
  24:      1096.28 cm**-1
  25:      1141.20 cm**-1
  26:      1174.30 cm**-1
  27:      1196.00 cm**-1
  28:      1256.27 cm**-1
  29:      1286.18 cm**-1
  30:      1317.17 cm**-1
  31:      1321.05 cm**-1
  32:      1328.57 cm**-1
  33:      1375.62 cm**-1
  34:      1403.74 cm**-1
  35:      1466.72 cm**-1
  36:      1467.47 cm**-1
  37:      1482.58 cm**-1
  38:      1508.30 cm**-1
  39:      1657.36 cm**-1
  40:      1658.86 cm**-1
  41:      3044.16 cm**-1
  42:      3046.63 cm**-1
  43:      3115.88 cm**-1
  44:      3118.10 cm**-1
  45:      3144.48 cm**-1
  46:      3196.81 cm**-1
  47:      3206.57 cm**-1
  48:      3416.05 cm**-1
  49:      3499.92 cm**-1
  50:      3501.45 cm**-1

IR SPECTRUM
-----------

 Mode    freq (cm**-1)   T**2         TX         TY         TZ
-------------------------------------------------------------------
   6:       136.75    4.342584  (  1.733557   1.156444   0.000000)
   7:       226.53    0.065897  (  0.000002   0.000000   0.256705)
   8:       303.83    2.787030  ( -0.000004  -0.000000   1.669440)
   9:       342.70    5.738462  ( -0.000007   0.000002   2.395509)
  10:       381.12   24.028899  ( -4.593462   1.711433  -0.000002)
  11:       432.23    4.438117  ( -0.643780   2.005908   0.000000)
  12:       623.04    1.037020  ( -0.659893   0.775604  -0.000001)
  13:       679.85    3.433720  ( -0.000003  -0.000000  -1.853030)
  14:       843.61    3.076306  ( -0.015902   1.753868  -0.000002)
  15:       857.40    5.594869  ( -0.000023  -0.000009   2.365347)
  16:       876.22   35.888205  ( -5.088927  -3.160858  -0.000010)
  17:       907.02    2.069651  (  0.000008   0.000000  -1.438628)
  18:       912.83    8.620034  ( -1.423791  -2.567655   0.000002)
  19:       951.92    0.049039  ( -0.000015  -0.000002   0.221447)
  20:      1000.68    0.372172  ( -0.482300   0.373576  -0.000003)
  21:      1015.55   17.198049  (  0.000003  -0.000001  -4.147053)
  22:      1027.63   11.776887  (  2.391381  -2.461338   0.000000)
  23:      1058.21    2.528749  (  0.437814  -1.528747   0.000000)
  24:      1096.28    0.272490  (  0.000001   0.000002   0.522006)
  25:      1141.20   17.119404  ( -2.030381  -3.605129   0.000002)
  26:      1174.30    5.475480  ( -0.000002   0.000004   2.339974)
  27:      1196.00    4.847663  ( -0.000009  -0.000002   2.201741)
  28:      1256.27    7.284030  (  1.262464   2.385417  -0.000001)
  29:      1286.18    2.677197  ( -1.328656   0.954919  -0.000000)
  30:      1317.17    0.874924  ( -0.000001   0.000000  -0.935374)
  31:      1321.05    0.081612  ( -0.000006   0.000002  -0.285678)
  32:      1328.57   26.501610  (  4.780659  -1.909687  -0.000000)
  33:      1375.62    0.559750  (  0.000003   0.000000  -0.748165)
  34:      1403.74   31.291763  ( -4.364034   3.499567   0.000000)
  35:      1466.72    9.372336  (  0.000008   0.000010  -3.061427)
  36:      1467.47    9.355503  (  1.941058   2.363852   0.000013)
  37:      1482.58    5.671396  (  1.992281  -1.304689   0.000000)
  38:      1508.30  146.028018  ( 11.944823  -1.830088  -0.000000)
  39:      1657.36   35.009077  ( -0.000011  -0.000000  -5.916847)
  40:      1658.86   49.870848  ( -1.275008  -6.945877   0.000000)
  41:      3044.16    4.125338  ( -0.000000   0.000000  -2.031093)
  42:      3046.63   16.389394  ( -3.888612  -1.126097  -0.000000)
  43:      3115.88    2.225027  ( -0.536547  -1.391813   0.000000)
  44:      3118.10    2.695445  ( -0.000000  -0.000000   1.641781)
  45:      3144.48    0.728781  ( -0.504338   0.688784  -0.000000)
  46:      3196.81    0.754916  (  0.000001  -0.000001  -0.868859)
  47:      3206.57    2.195829  ( -0.195835  -1.468835   0.000001)
  48:      3416.05   42.355894  ( -6.089883   2.295478   0.000000)
  49:      3499.92   82.672699  ( -1.557650  -8.958037   0.000000)
  50:      3501.45   90.130728  (  0.000005   0.000000   9.493720)

--------------------------
THERMOCHEMISTRY AT 298.15K
--------------------------

Temperature         ... 298.15 K
Pressure            ... 1.00 atm
Total Mass          ... 100.14 AMU

Throughout the following assumptions are being made:
  (1) The electronic state is orbitally nondegenerate
  (2) There are no thermally accessible electronically excited states
  (3) Hindered rotations indicated by low frequency modes) are not
      treated as such but are treated as vibrations and this may
      case some error
  (4) All equations used are the standard statistical mechanics
      equations for an ideal gas
  (5) All vibrations are strinctly harmonic

------------
INNER ENERGY
------------

The inner energy is: U= E(el) + E(ZPE) + E(vib) + E(rot) + E(trans)
    E(el)   - is the total energy from the electronic structure calculation
              = E(kin-el) + E(nuc-el) + E(el-el) + E(nuc-nuc)
    E(ZPE)  - the the zero temperature vibrational energy from the frequency calculation
    E(vib)  - the the finite temperature correction to E(ZPE) due to population
              of excietd vibrational states
    E(rot)  - is the rotational thermal energy
    E(trans)- is the translational thermal energy

Summary of contributions to the inner energy U:
Electronic energy                ...   -325.99436272 Eh
Zero point energy                ...      0.15492646 Eh      97.22 kcal/mol
Thermal vibrational correction   ...      0.00349953 Eh       2.20 kcal/mol
Thermal rotational correction    ...      0.00141627 Eh       0.89 kcal/mol
Thermal translational correction ...      0.00141627 Eh       0.89 kcal/mol
-----------------------------------------------------------------------
Total thermal energy                   -325.83310419 Eh

Summary of corrections to the electronic energy:
(perhaps to be used in another calculation)
Total thermal correction                  0.00633207 Eh       3.97 kcal/mol
Non-thermal (ZPE) correction              0.15492646 Eh      97.22 kcal/mol
-----------------------------------------------------------------------
Total correction                          0.16125853 Eh     101.19 kcal/mol

--------
ENTHALPY
--------

The enthalpy is H = U + kB*T
                kB is Boltzmann's constant
Total free energy                 ...   -325.83310419 Eh
Thermal Enthalpy correction       ...      0.00094421 Eh       0.59 kcal/mol
-----------------------------------------------------------------------
Total Enthalpy                    ...   -325.83215998 Eh

-------
ENTROPY
-------

The entropy contributions are T*S = T*(S(el)+S(vib)+S(rot)+S(trans)
     S(el)   - electronic entropy
     S(vib)  - vibrational entropy
     S(rot)  - rotational entropy
     S(trans)- translational entropy
The entropies will be listed as mutliplied by the temperature to get
units of energy

Electronic entropy                ...      0.00000000 Eh      0.00 kcal/mol
Vibrational entropy               ...      0.00552800 Eh      3.47 kcal/mol
Rotational entropy                ...      0.01180243 Eh      7.41 kcal/mol
Translational entropy             ...      0.01887324 Eh     11.84 kcal/mol
-----------------------------------------------------------------------
Final entropy term                ...      0.03620367 Eh     22.72 kcal/mol

CAUTION: The rotational entropy is not quite correctly treated here
         because it includes a symmetry number that is not yet correctly
         implemented in ORCA!
For a nonlinear molecule the correct rotational entropy is:
    S(rot) = R*(ln(qrot/sn)+1.5)
    R    = 8.31441 J/mol/K = 1.987191683e-3 kcal/mol/K
    qrot = 179654.8270521
    sn is the rotational symmetry number. We have assumed 3 here
       if it is different for your molecule then you should correct
       the printed rotational entropy by manually evaluating the equation
       as given above

For convenience we print out the resulting values for sn=1 - 12:
 sn= 1  qrot/sn=  179654.8271 T*S(rot)=     8.06 kcal/mol T*S(tot)=    23.37 kcal/mol
 sn= 2  qrot/sn=   89827.4135 T*S(rot)=     7.65 kcal/mol T*S(tot)=    22.96 kcal/mol
 sn= 3  qrot/sn=   59884.9424 T*S(rot)=     7.41 kcal/mol T*S(tot)=    22.72 kcal/mol
 sn= 4  qrot/sn=   44913.7068 T*S(rot)=     7.24 kcal/mol T*S(tot)=    22.55 kcal/mol
 sn= 5  qrot/sn=   35930.9654 T*S(rot)=     7.10 kcal/mol T*S(tot)=    22.42 kcal/mol
 sn= 6  qrot/sn=   29942.4712 T*S(rot)=     7.00 kcal/mol T*S(tot)=    22.31 kcal/mol
 sn= 7  qrot/sn=   25664.9753 T*S(rot)=     6.90 kcal/mol T*S(tot)=    22.22 kcal/mol
 sn= 8  qrot/sn=   22456.8534 T*S(rot)=     6.82 kcal/mol T*S(tot)=    22.14 kcal/mol
 sn= 9  qrot/sn=   19961.6475 T*S(rot)=     6.76 kcal/mol T*S(tot)=    22.07 kcal/mol
 sn=10  qrot/sn=   17965.4827 T*S(rot)=     6.69 kcal/mol T*S(tot)=    22.00 kcal/mol
 sn=11  qrot/sn=   16332.2570 T*S(rot)=     6.64 kcal/mol T*S(tot)=    21.95 kcal/mol
 sn=12  qrot/sn=   14971.2356 T*S(rot)=     6.58 kcal/mol T*S(tot)=    21.90 kcal/mol

-------------------
GIBBS FREE ENTHALPY
-------------------

The Gibbs free enthalpy is G = H - T*S

Total enthalpy                    ...   -325.83215998 Eh
Total entropy correction          ...     -0.03620367 Eh    -22.72 kcal/mol
-----------------------------------------------------------------------
Final Gibbs free enthalpy         ...   -325.86836365 Eh

For completeness - the Gibbs free enthalpy minus the electronic energy
G-E(el)                           ...      0.12599907 Eh     79.07 kcal/mol

                             ****ORCA TERMINATED NORMALLY****
TOTAL RUN TIME: 0 days 0 hours 39 minutes 6 seconds 827 msec
