                         Program Version 3.0.3 - RELEASE   -
|  1> ! NORI PBE0 def2-TZVP UseSym TightOPT Freq TightSCF Grid3 FinalGrid5 XYZFile
|  2> % pal
|  3>     nprocs 8
|  4> end
|  5> %method
|  6>     SymThresh 5.0e-2
|  7> end
|  8> % geom
|  9>     MaxIter 10
| 10> end
| 11> % maxcore 2000
| 12> % output
| 13>     printlevel mini
| 14>     print[ P_Basis ] 0
| 15>     print[ P_SCFInfo ] 1
| 16>     print[ P_SCFIterInfo ] 1
| 17>     print[ P_OrbEn ] 0
| 18>     print[ P_Cartesian ] 0
| 19> end
| 20> % elprop
| 21>     Dipole false
| 22> end
| 23> *xyz 1 1
| 24>  N        0.9300960919    -0.2096048090     0.2052023196
| 25>  C        2.4037596657     0.0649889282     0.2393456182
| 26>  C        3.0127103505     1.1941080409     1.0656963716
| 27>  C        4.1866575282     0.2157138992     1.3308998136
| 28>  C        3.2141982933    -0.9468089104     1.0326351764
| 29>  C        3.5472382112    -2.2114861240     0.2892176065
| 30>  O        2.2813757786    -2.6652210121    -0.1949894578
| 31>  H        0.4141852542     0.4172688386    -0.4135384428
| 32>  H        0.5193485695    -0.1497399188     1.1380373738
| 33>  H        0.8423818119    -1.1838738616    -0.1234838793
| 34>  H        2.7241766177     0.0997300956    -0.8036867322
| 35>  H        2.4513651074     1.3815476000     1.9842634838
| 36>  H        3.2166041110     2.1392314242     0.5661837812
| 37>  H        4.6451295479     0.2414919845     2.3163509503
| 38>  H        4.9631632276     0.3065289923     0.5695348146
| 39>  H        2.6747028774    -1.1961592482     1.9547461860
| 40>  H        4.2253872147    -2.0055394268    -0.5474595089
| 41>  H        4.0121334413    -2.9571724208     0.9406004055
| 42>  H        2.3725263000    -3.5286440719    -0.6072558801
| 43> *
| 44>
| 45>                          ****END OF INPUT****
 Total Charge           Charge          ....    1
 Multiplicity           Mult            ....    1
 Number of Electrons    NEL             ....   56
FINAL SINGLE POINT ENERGY      -327.216319346119

CARTESIAN COORDINATES (ANGSTROEM)
---------------------------------
  N      1.900507   -0.000170    0.037992
  C      0.578329    0.410441   -0.538129
  C      0.182681    0.118950   -1.982885
  C     -1.245560   -0.117247   -1.425549
  C     -0.602694   -0.414036   -0.052809
  C     -1.149978   -0.006305    1.287876
  O     -0.000321    0.000749    2.136921
  H      2.666375    0.625266   -0.215947
  H      2.151670   -0.947755   -0.247399
  H      1.764214    0.002977    1.061009
  H      0.457462    1.465092   -0.283702
  H      0.614602   -0.816400   -2.347711
  H      0.337508    0.902417   -2.722140
  H     -1.835012   -0.908722   -1.881700
  H     -1.828259    0.805191   -1.413892
  H     -0.314529   -1.472019   -0.023520
  H     -1.596690    0.993977    1.239560
  H     -1.905253   -0.709154    1.650684
  H     -0.260479    0.157372    3.048838

FINAL SINGLE POINT ENERGY      -327.216320173118
                    ***********************HURRAY********************
 Multiplicity           Mult            ....    1
 Number of Electrons    NEL             ....   56
 Basis Dimension        Dim             ....  289
FINAL SINGLE POINT ENERGY      -327.216320582746

VIBRATIONAL FREQUENCIES
-----------------------

   0:         0.00 cm**-1
   1:         0.00 cm**-1
   2:         0.00 cm**-1
   3:         0.00 cm**-1
   4:         0.00 cm**-1
   5:         0.00 cm**-1
   6:       124.73 cm**-1
   7:       165.62 cm**-1
   8:       217.26 cm**-1
   9:       275.85 cm**-1
  10:       295.27 cm**-1
  11:       316.60 cm**-1
  12:       339.93 cm**-1
  13:       438.46 cm**-1
  14:       489.28 cm**-1
  15:       623.35 cm**-1
  16:       777.86 cm**-1
  17:       810.38 cm**-1
  18:       921.57 cm**-1
  19:       927.12 cm**-1
  20:       945.71 cm**-1
  21:       984.71 cm**-1
  22:       997.65 cm**-1
  23:      1039.70 cm**-1
  24:      1053.12 cm**-1
  25:      1075.35 cm**-1
  26:      1160.16 cm**-1
  27:      1172.49 cm**-1
  28:      1193.87 cm**-1
  29:      1212.07 cm**-1
  30:      1246.28 cm**-1
  31:      1251.41 cm**-1
  32:      1269.89 cm**-1
  33:      1276.25 cm**-1
  34:      1296.92 cm**-1
  35:      1313.58 cm**-1
  36:      1378.77 cm**-1
  37:      1423.40 cm**-1
  38:      1447.20 cm**-1
  39:      1475.29 cm**-1
  40:      1481.12 cm**-1
  41:      1502.61 cm**-1
  42:      1519.42 cm**-1
  43:      1643.75 cm**-1
  44:      1664.36 cm**-1
  45:      3034.72 cm**-1
  46:      3048.50 cm**-1
  47:      3082.42 cm**-1
  48:      3098.69 cm**-1
  49:      3102.23 cm**-1
  50:      3115.19 cm**-1
  51:      3161.90 cm**-1
  52:      3175.93 cm**-1
  53:      3315.37 cm**-1
  54:      3470.58 cm**-1
  55:      3521.95 cm**-1
  56:      3866.71 cm**-1

IR SPECTRUM
-----------

 Mode    freq (cm**-1)   T**2         TX         TY         TZ
-------------------------------------------------------------------
   6:       124.73    7.901816  ( -0.361064   2.779754   0.210747)
   7:       165.62   26.432454  (  2.966054   0.698196  -4.140954)
   8:       217.26    9.291325  ( -2.014776   0.595825   2.208392)
   9:       275.85    4.042828  (  0.912671   1.746453  -0.399702)
  10:       295.27   67.633652  (  1.216572   8.092831  -0.812215)
  11:       316.60   49.217377  ( -1.089956   6.746784  -1.584388)
  12:       339.93   18.730167  ( -1.928239  -3.679853   1.212743)
  13:       438.46    9.316749  (  1.103126  -0.413212   2.815869)
  14:       489.28    6.882826  (  2.224304   0.808213   1.132294)
  15:       623.35    7.683140  (  0.486156  -1.446752  -2.313807)
  16:       777.86    0.646391  ( -0.603973  -0.165321   0.504258)
  17:       810.38    9.665146  (  1.214279   0.889239  -2.720281)
  18:       921.57   11.471962  ( -0.664463  -1.453359  -2.986335)
  19:       927.12    4.769408  (  1.042363   0.519390  -1.847464)
  20:       945.71    1.509620  (  0.881298  -0.822875   0.236245)
  21:       984.71   10.637151  ( -2.813306  -0.337726   1.615055)
  22:       997.65   13.842003  ( -3.093895  -1.802728  -1.009944)
  23:      1039.70   20.480604  ( -2.184333  -0.746049  -3.892647)
  24:      1053.12   42.203152  ( -4.266275   1.286084  -4.727371)
  25:      1075.35   23.201710  (  4.671396  -0.135455   1.166801)
  26:      1160.16    7.822555  ( -2.371881  -0.198989  -1.468721)
  27:      1172.49    8.868457  ( -0.742862  -2.010560   2.067428)
  28:      1193.87   12.181066  (  1.597760  -0.448595  -3.070341)
  29:      1212.07    7.255805  ( -0.179863   1.006732  -2.491976)
  30:      1246.28    0.014719  ( -0.102815   0.045340   0.045740)
  31:      1251.41   33.816622  ( -5.040949   0.181856  -2.893508)
  32:      1269.89    4.883113  (  2.151687   0.143982   0.482314)
  33:      1276.25    1.086382  ( -0.142018  -0.526016   0.888549)
  34:      1296.92   22.930999  (  4.469009   0.582739   1.618448)
  35:      1313.58    2.635565  (  1.046100  -1.237768  -0.095757)
  36:      1378.77    3.510742  ( -1.750541  -0.159883  -0.648680)
  37:      1423.40   24.555531  ( -3.935857  -0.607715  -2.948769)
  38:      1447.20   19.658217  (  2.998639  -1.679130   2.801233)
  39:      1475.29  117.133577  ( 10.169366  -1.893853   3.182905)
  40:      1481.12   49.214127  ( -6.582968   2.381326  -0.456015)
  41:      1502.61    4.289105  ( -0.058140   0.920851   1.854119)
  42:      1519.42    6.793398  (  1.956086  -1.465682  -0.904931)
  43:      1643.75   31.974106  (  1.604567  -4.109739  -3.536879)
  44:      1664.36   31.569480  ( -2.964962  -4.326291   2.015363)
  45:      3034.72   12.244201  (  3.154693  -1.472370   0.352474)
  46:      3048.50   18.536432  ( -3.481541   2.531287   0.088836)
  47:      3082.42    6.374123  ( -1.880620   0.982581   1.368183)
  48:      3098.69   13.959597  ( -1.994160  -2.956505   1.114452)
  49:      3102.23    7.163696  (  2.139621  -1.491376   0.601262)
  50:      3115.19    4.391566  ( -0.850470   1.792349   0.675093)
  51:      3161.90    5.482252  (  0.177950  -1.242046   1.976843)
  52:      3175.93    3.654595  ( -0.520577  -1.815313  -0.297039)
  53:      3315.37  146.574727  (  2.346070   0.006330 -11.877316)
  54:      3470.58   97.377199  ( -7.652770   1.265518   6.100064)
  55:      3521.95   77.409709  (  2.869171   8.316166  -0.137664)
  56:      3866.71  104.040546  (  0.810181  -1.284836 -10.086295)

--------------------------
THERMOCHEMISTRY AT 298.15K
--------------------------

Temperature         ... 298.15 K
Pressure            ... 1.00 atm
Total Mass          ... 102.16 AMU

Throughout the following assumptions are being made:
  (1) The electronic state is orbitally nondegenerate
  (2) There are no thermally accessible electronically excited states
  (3) Hindered rotations indicated by low frequency modes) are not
      treated as such but are treated as vibrations and this may
      case some error
  (4) All equations used are the standard statistical mechanics
      equations for an ideal gas
  (5) All vibrations are strinctly harmonic

------------
INNER ENERGY
------------

The inner energy is: U= E(el) + E(ZPE) + E(vib) + E(rot) + E(trans)
    E(el)   - is the total energy from the electronic structure calculation
              = E(kin-el) + E(nuc-el) + E(el-el) + E(nuc-nuc)
    E(ZPE)  - the the zero temperature vibrational energy from the frequency calculation
    E(vib)  - the the finite temperature correction to E(ZPE) due to population
              of excietd vibrational states
    E(rot)  - is the rotational thermal energy
    E(trans)- is the translational thermal energy

Summary of contributions to the inner energy U:
Electronic energy                ...   -327.21632058 Eh
Zero point energy                ...      0.17711048 Eh     111.14 kcal/mol
Thermal vibrational correction   ...      0.00480452 Eh       3.01 kcal/mol
Thermal rotational correction    ...      0.00141627 Eh       0.89 kcal/mol
Thermal translational correction ...      0.00141627 Eh       0.89 kcal/mol
-----------------------------------------------------------------------
Total thermal energy                   -327.03157304 Eh

Summary of corrections to the electronic energy:
(perhaps to be used in another calculation)
Total thermal correction                  0.00763706 Eh       4.79 kcal/mol
Non-thermal (ZPE) correction              0.17711048 Eh     111.14 kcal/mol
-----------------------------------------------------------------------
Total correction                          0.18474754 Eh     115.93 kcal/mol

--------
ENTHALPY
--------

The enthalpy is H = U + kB*T
                kB is Boltzmann's constant
Total free energy                 ...   -327.03157304 Eh
Thermal Enthalpy correction       ...      0.00094421 Eh       0.59 kcal/mol
-----------------------------------------------------------------------
Total Enthalpy                    ...   -327.03062883 Eh

-------
ENTROPY
-------

The entropy contributions are T*S = T*(S(el)+S(vib)+S(rot)+S(trans)
     S(el)   - electronic entropy
     S(vib)  - vibrational entropy
     S(rot)  - rotational entropy
     S(trans)- translational entropy
The entropies will be listed as mutliplied by the temperature to get
units of energy

Electronic entropy                ...      0.00000000 Eh      0.00 kcal/mol
Vibrational entropy               ...      0.00790944 Eh      4.96 kcal/mol
Rotational entropy                ...      0.01206360 Eh      7.57 kcal/mol
Translational entropy             ...      0.01890147 Eh     11.86 kcal/mol
-----------------------------------------------------------------------
Final entropy term                ...      0.03887450 Eh     24.39 kcal/mol

CAUTION: The rotational entropy is not quite correctly treated here
         because it includes a symmetry number that is not yet correctly
         implemented in ORCA!
For a nonlinear molecule the correct rotational entropy is:
    S(rot) = R*(ln(qrot/sn)+1.5)
    R    = 8.31441 J/mol/K = 1.987191683e-3 kcal/mol/K
    qrot = 236901.3426980
    sn is the rotational symmetry number. We have assumed 3 here
       if it is different for your molecule then you should correct
       the printed rotational entropy by manually evaluating the equation
       as given above

For convenience we print out the resulting values for sn=1 - 12:
 sn= 1  qrot/sn=  236901.3427 T*S(rot)=     8.22 kcal/mol T*S(tot)=    25.04 kcal/mol
 sn= 2  qrot/sn=  118450.6713 T*S(rot)=     7.81 kcal/mol T*S(tot)=    24.63 kcal/mol
 sn= 3  qrot/sn=   78967.1142 T*S(rot)=     7.57 kcal/mol T*S(tot)=    24.39 kcal/mol
 sn= 4  qrot/sn=   59225.3357 T*S(rot)=     7.40 kcal/mol T*S(tot)=    24.22 kcal/mol
 sn= 5  qrot/sn=   47380.2685 T*S(rot)=     7.27 kcal/mol T*S(tot)=    24.09 kcal/mol
 sn= 6  qrot/sn=   39483.5571 T*S(rot)=     7.16 kcal/mol T*S(tot)=    23.98 kcal/mol
 sn= 7  qrot/sn=   33843.0490 T*S(rot)=     7.07 kcal/mol T*S(tot)=    23.89 kcal/mol
 sn= 8  qrot/sn=   29612.6678 T*S(rot)=     6.99 kcal/mol T*S(tot)=    23.81 kcal/mol
 sn= 9  qrot/sn=   26322.3714 T*S(rot)=     6.92 kcal/mol T*S(tot)=    23.74 kcal/mol
 sn=10  qrot/sn=   23690.1343 T*S(rot)=     6.86 kcal/mol T*S(tot)=    23.68 kcal/mol
 sn=11  qrot/sn=   21536.4857 T*S(rot)=     6.80 kcal/mol T*S(tot)=    23.62 kcal/mol
 sn=12  qrot/sn=   19741.7786 T*S(rot)=     6.75 kcal/mol T*S(tot)=    23.57 kcal/mol

-------------------
GIBBS FREE ENTHALPY
-------------------

The Gibbs free enthalpy is G = H - T*S

Total enthalpy                    ...   -327.03062883 Eh
Total entropy correction          ...     -0.03887450 Eh    -24.39 kcal/mol
-----------------------------------------------------------------------
Final Gibbs free enthalpy         ...   -327.06950333 Eh

For completeness - the Gibbs free enthalpy minus the electronic energy
G-E(el)                           ...      0.14681725 Eh     92.13 kcal/mol

                             ****ORCA TERMINATED NORMALLY****
TOTAL RUN TIME: 0 days 0 hours 47 minutes 4 seconds 999 msec
