                         Program Version 3.0.3 - RELEASE   -
|  1> ! NORI PBE0 def2-TZVP UseSym TightOPT Freq TightSCF Grid3 FinalGrid5 XYZFile
|  2> % pal
|  3>     nprocs 8
|  4> end
|  5> %method
|  6>     SymThresh 5.0e-2
|  7> end
|  8> % geom
|  9>     MaxIter 10
| 10> end
| 11> % maxcore 2000
| 12> % output
| 13>     printlevel mini
| 14>     print[ P_Basis ] 0
| 15>     print[ P_SCFInfo ] 1
| 16>     print[ P_SCFIterInfo ] 1
| 17>     print[ P_OrbEn ] 0
| 18>     print[ P_Cartesian ] 0
| 19> end
| 20> % elprop
| 21>     Dipole false
| 22> end
| 23> *xyz 1 1
| 24>  N        1.2519470733     0.3431965589     0.5493844666
| 25>  C        2.5424256625    -0.1818098131    -0.0362565959
| 26>  C        2.3900158433    -1.6811996025    -0.3534580692
| 27>  C        2.9711418152    -1.8824335598    -1.7596731481
| 28>  C        2.9102948834    -0.5217241221    -2.3898146762
| 29>  O        1.6578830896     0.1501496218    -2.2150694119
| 30>  C        2.7420758013     0.5014617432    -1.3648310365
| 31>  H        1.3251105172     1.3197482205     0.8408817713
| 32>  H        0.9395478318    -0.2069358544     1.3509919208
| 33>  H        0.5420971889     0.2795125275    -0.1908704138
| 34>  H        3.3329796418     0.0399491754     0.6824440561
| 35>  H        2.8828882604    -2.3005074804     0.3956534304
| 36>  H        1.3317999162    -1.9553180564    -0.3497394652
| 37>  H        4.0156688116    -2.2010365260    -1.7184823166
| 38>  H        2.4222611275    -2.6331335052    -2.3297002727
| 39>  H        3.4104144383    -0.3057210543    -3.3270007987
| 40>  H        3.1230480978     1.5152917268    -1.4391394405
| 41> *
| 42>
| 43>                          ****END OF INPUT****
 Total Charge           Charge          ....    1
 Multiplicity           Mult            ....    1
 Number of Electrons    NEL             ....   54
FINAL SINGLE POINT ENERGY      -325.999395214436

CARTESIAN COORDINATES (ANGSTROEM)
---------------------------------
  N      2.005502   -0.000074   -0.494636
  C      0.581362    0.396783   -0.807757
  C     -0.251582   -0.865816   -1.097465
  C     -1.559143   -0.705835   -0.309808
  C     -1.226834    0.276110    0.775203
  O     -0.000281    0.000072    1.460481
  C     -0.002549    0.996237    0.445805
  H      2.615474    0.808917   -0.361843
  H      2.410963   -0.589899   -1.223016
  H      1.979239   -0.532183    0.383928
  H      0.621538    1.100594   -1.640381
  H     -0.420081   -0.997231   -2.166056
  H      0.284050   -1.751945   -0.746743
  H     -2.351371   -0.282612   -0.932340
  H     -1.923960   -1.656063    0.082573
  H     -1.996973    0.724090    1.392855
  H      0.212543    2.016012    0.750440

FINAL SINGLE POINT ENERGY      -325.999395593681
                    ***********************HURRAY********************
 Multiplicity           Mult            ....    1
 Number of Electrons    NEL             ....   54
 Basis Dimension        Dim             ....  277
FINAL SINGLE POINT ENERGY      -325.999395731762

VIBRATIONAL FREQUENCIES
-----------------------

   0:         0.00 cm**-1
   1:         0.00 cm**-1
   2:         0.00 cm**-1
   3:         0.00 cm**-1
   4:         0.00 cm**-1
   5:         0.00 cm**-1
   6:        95.85 cm**-1
   7:       229.85 cm**-1
   8:       285.93 cm**-1
   9:       349.42 cm**-1
  10:       400.77 cm**-1
  11:       523.20 cm**-1
  12:       661.04 cm**-1
  13:       693.46 cm**-1
  14:       823.31 cm**-1
  15:       837.15 cm**-1
  16:       859.37 cm**-1
  17:       892.57 cm**-1
  18:       932.36 cm**-1
  19:       954.94 cm**-1
  20:       985.36 cm**-1
  21:      1005.89 cm**-1
  22:      1031.75 cm**-1
  23:      1063.50 cm**-1
  24:      1102.89 cm**-1
  25:      1126.91 cm**-1
  26:      1146.20 cm**-1
  27:      1235.65 cm**-1
  28:      1247.00 cm**-1
  29:      1263.07 cm**-1
  30:      1318.44 cm**-1
  31:      1332.17 cm**-1
  32:      1346.00 cm**-1
  33:      1361.54 cm**-1
  34:      1398.66 cm**-1
  35:      1455.94 cm**-1
  36:      1474.68 cm**-1
  37:      1485.38 cm**-1
  38:      1495.48 cm**-1
  39:      1651.07 cm**-1
  40:      1661.18 cm**-1
  41:      3076.59 cm**-1
  42:      3086.52 cm**-1
  43:      3123.17 cm**-1
  44:      3135.17 cm**-1
  45:      3146.68 cm**-1
  46:      3179.61 cm**-1
  47:      3205.55 cm**-1
  48:      3382.84 cm**-1
  49:      3478.52 cm**-1
  50:      3516.53 cm**-1

IR SPECTRUM
-----------

 Mode    freq (cm**-1)   T**2         TX         TY         TZ
-------------------------------------------------------------------
   6:        95.85   13.872183  (  2.455588   1.561155  -2.324880)
   7:       229.85   19.910918  ( -3.024682   1.308643   3.008267)
   8:       285.93    1.018565  ( -0.084637  -0.613618  -0.796790)
   9:       349.42   14.645510  (  1.948184   2.843758   1.662268)
  10:       400.77    6.863237  (  1.127018   0.074411  -2.363796)
  11:       523.20    9.443943  ( -2.619476   1.154920  -1.117338)
  12:       661.04    1.252296  (  1.042765  -0.266478   0.306477)
  13:       693.46    2.336100  (  0.981274   1.084333   0.444323)
  14:       823.31    1.605433  (  0.710644  -0.371562   0.981000)
  15:       837.15    6.154241  (  0.801020   0.691332  -2.243806)
  16:       859.37   18.732085  (  4.268427   0.672525   0.245614)
  17:       892.57   29.591343  ( -2.837254   2.667104  -3.798406)
  18:       932.36    2.976361  ( -1.711651   0.197663  -0.086837)
  19:       954.94    2.169235  ( -1.324259   0.393676   0.510481)
  20:       985.36    9.839629  (  2.146071  -2.260249   0.353956)
  21:      1005.89   18.551787  (  0.965695   4.014441  -1.226167)
  22:      1031.75   24.545711  (  1.298267  -0.523044  -4.752540)
  23:      1063.50    4.882700  (  0.999850   0.680812   1.849188)
  24:      1102.89    0.958787  ( -0.534337  -0.694138  -0.437542)
  25:      1126.91    4.370928  (  0.357313  -1.124024  -1.726217)
  26:      1146.20    4.561547  ( -0.714224  -1.531803  -1.305760)
  27:      1235.65    6.891667  (  1.208661  -1.941226   1.289360)
  28:      1247.00    3.502907  ( -1.597083  -0.613052  -0.759210)
  29:      1263.07    5.989226  ( -2.026987   1.318228   0.377922)
  30:      1318.44    0.127463  ( -0.146012  -0.022894   0.324992)
  31:      1332.17    0.970064  (  0.589440   0.260886  -0.744690)
  32:      1346.00    2.979805  (  0.749329  -0.085659   1.552731)
  33:      1361.54    3.167836  (  0.345391   1.181441   1.285589)
  34:      1398.66   25.711140  ( -4.255454  -1.227285   2.469013)
  35:      1455.94   61.064877  (  7.025598  -1.757601   2.935421)
  36:      1474.68   22.360001  ( -4.240015   1.334018  -1.613280)
  37:      1485.38   83.849686  (  8.836365  -1.130362   2.119110)
  38:      1495.48   44.885528  ( -4.839638   4.626091   0.250422)
  39:      1651.07   39.440927  ( -3.039466  -4.363735   3.340717)
  40:      1661.18   36.629129  (  0.207979  -3.065521  -5.214255)
  41:      3076.59    9.032995  ( -2.533931   1.543309   0.479983)
  42:      3086.52    3.770226  ( -1.939741  -0.039017  -0.078165)
  43:      3123.17    1.289502  ( -0.665102  -0.876674   0.280327)
  44:      3135.17    0.840985  (  0.058599  -0.817179  -0.412031)
  45:      3146.68    1.912588  ( -0.343169   0.621522  -1.186816)
  46:      3179.61    1.667009  ( -0.466242  -1.134658   0.402714)
  47:      3205.55    1.043893  (  0.677519  -0.764387   0.023961)
  48:      3382.84   38.282670  (  2.813923  -2.457831   4.931893)
  49:      3478.52  107.155863  (  7.054234   3.709282  -6.605669)
  50:      3516.53   89.052631  (  0.337435   7.694899   5.452274)

--------------------------
THERMOCHEMISTRY AT 298.15K
--------------------------

Temperature         ... 298.15 K
Pressure            ... 1.00 atm
Total Mass          ... 100.14 AMU

Throughout the following assumptions are being made:
  (1) The electronic state is orbitally nondegenerate
  (2) There are no thermally accessible electronically excited states
  (3) Hindered rotations indicated by low frequency modes) are not
      treated as such but are treated as vibrations and this may
      case some error
  (4) All equations used are the standard statistical mechanics
      equations for an ideal gas
  (5) All vibrations are strinctly harmonic

------------
INNER ENERGY
------------

The inner energy is: U= E(el) + E(ZPE) + E(vib) + E(rot) + E(trans)
    E(el)   - is the total energy from the electronic structure calculation
              = E(kin-el) + E(nuc-el) + E(el-el) + E(nuc-nuc)
    E(ZPE)  - the the zero temperature vibrational energy from the frequency calculation
    E(vib)  - the the finite temperature correction to E(ZPE) due to population
              of excietd vibrational states
    E(rot)  - is the rotational thermal energy
    E(trans)- is the translational thermal energy

Summary of contributions to the inner energy U:
Electronic energy                ...   -325.99939573 Eh
Zero point energy                ...      0.15505021 Eh      97.30 kcal/mol
Thermal vibrational correction   ...      0.00348721 Eh       2.19 kcal/mol
Thermal rotational correction    ...      0.00141627 Eh       0.89 kcal/mol
Thermal translational correction ...      0.00141627 Eh       0.89 kcal/mol
-----------------------------------------------------------------------
Total thermal energy                   -325.83802577 Eh

Summary of corrections to the electronic energy:
(perhaps to be used in another calculation)
Total thermal correction                  0.00631975 Eh       3.97 kcal/mol
Non-thermal (ZPE) correction              0.15505021 Eh      97.30 kcal/mol
-----------------------------------------------------------------------
Total correction                          0.16136996 Eh     101.26 kcal/mol

--------
ENTHALPY
--------

The enthalpy is H = U + kB*T
                kB is Boltzmann's constant
Total free energy                 ...   -325.83802577 Eh
Thermal Enthalpy correction       ...      0.00094421 Eh       0.59 kcal/mol
-----------------------------------------------------------------------
Total Enthalpy                    ...   -325.83708157 Eh

-------
ENTROPY
-------

The entropy contributions are T*S = T*(S(el)+S(vib)+S(rot)+S(trans)
     S(el)   - electronic entropy
     S(vib)  - vibrational entropy
     S(rot)  - rotational entropy
     S(trans)- translational entropy
The entropies will be listed as mutliplied by the temperature to get
units of energy

Electronic entropy                ...      0.00000000 Eh      0.00 kcal/mol
Vibrational entropy               ...      0.00571012 Eh      3.58 kcal/mol
Rotational entropy                ...      0.01175045 Eh      7.37 kcal/mol
Translational entropy             ...      0.01887324 Eh     11.84 kcal/mol
-----------------------------------------------------------------------
Final entropy term                ...      0.03633381 Eh     22.80 kcal/mol

CAUTION: The rotational entropy is not quite correctly treated here
         because it includes a symmetry number that is not yet correctly
         implemented in ORCA!
For a nonlinear molecule the correct rotational entropy is:
    S(rot) = R*(ln(qrot/sn)+1.5)
    R    = 8.31441 J/mol/K = 1.987191683e-3 kcal/mol/K
    qrot = 170031.6363534
    sn is the rotational symmetry number. We have assumed 3 here
       if it is different for your molecule then you should correct
       the printed rotational entropy by manually evaluating the equation
       as given above

For convenience we print out the resulting values for sn=1 - 12:
 sn= 1  qrot/sn=  170031.6364 T*S(rot)=     8.02 kcal/mol T*S(tot)=    23.45 kcal/mol
 sn= 2  qrot/sn=   85015.8182 T*S(rot)=     7.61 kcal/mol T*S(tot)=    23.04 kcal/mol
 sn= 3  qrot/sn=   56677.2121 T*S(rot)=     7.37 kcal/mol T*S(tot)=    22.80 kcal/mol
 sn= 4  qrot/sn=   42507.9091 T*S(rot)=     7.20 kcal/mol T*S(tot)=    22.63 kcal/mol
 sn= 5  qrot/sn=   34006.3273 T*S(rot)=     7.07 kcal/mol T*S(tot)=    22.50 kcal/mol
 sn= 6  qrot/sn=   28338.6061 T*S(rot)=     6.96 kcal/mol T*S(tot)=    22.39 kcal/mol
 sn= 7  qrot/sn=   24290.2338 T*S(rot)=     6.87 kcal/mol T*S(tot)=    22.30 kcal/mol
 sn= 8  qrot/sn=   21253.9545 T*S(rot)=     6.79 kcal/mol T*S(tot)=    22.22 kcal/mol
 sn= 9  qrot/sn=   18892.4040 T*S(rot)=     6.72 kcal/mol T*S(tot)=    22.15 kcal/mol
 sn=10  qrot/sn=   17003.1636 T*S(rot)=     6.66 kcal/mol T*S(tot)=    22.09 kcal/mol
 sn=11  qrot/sn=   15457.4215 T*S(rot)=     6.60 kcal/mol T*S(tot)=    22.03 kcal/mol
 sn=12  qrot/sn=   14169.3030 T*S(rot)=     6.55 kcal/mol T*S(tot)=    21.98 kcal/mol

-------------------
GIBBS FREE ENTHALPY
-------------------

The Gibbs free enthalpy is G = H - T*S

Total enthalpy                    ...   -325.83708157 Eh
Total entropy correction          ...     -0.03633381 Eh    -22.80 kcal/mol
-----------------------------------------------------------------------
Final Gibbs free enthalpy         ...   -325.87341538 Eh

For completeness - the Gibbs free enthalpy minus the electronic energy
G-E(el)                           ...      0.12598035 Eh     79.05 kcal/mol

                             ****ORCA TERMINATED NORMALLY****
TOTAL RUN TIME: 0 days 0 hours 39 minutes 19 seconds 921 msec
