                         Program Version 3.0.3 - RELEASE   -
|  1> ! NORI PBE0 def2-TZVP UseSym TightOPT Freq TightSCF Grid3 FinalGrid5 XYZFile
|  2> % pal
|  3>     nprocs 8
|  4> end
|  5> %method
|  6>     SymThresh 5.0e-2
|  7> end
|  8> % geom
|  9>     MaxIter 10
| 10> end
| 11> % maxcore 2000
| 12> % output
| 13>     printlevel mini
| 14>     print[ P_Basis ] 0
| 15>     print[ P_SCFInfo ] 1
| 16>     print[ P_SCFIterInfo ] 1
| 17>     print[ P_OrbEn ] 0
| 18>     print[ P_Cartesian ] 0
| 19> end
| 20> % elprop
| 21>     Dipole false
| 22> end
| 23> *xyz 1 1
| 24>  N        1.0123185584    -0.0064167209    -0.0522246822
| 25>  C        2.5258931708     0.1041161352    -0.0705371282
| 26>  C        2.9577627761     1.4261150261     0.4972834887
| 27>  C        3.6506247390     1.2594830075     1.6235193574
| 28>  C        3.8244514546    -0.1834173423     1.9314908359
| 29>  O        4.5185223865    -0.8695048230     0.8840188177
| 30>  C        3.1237112475    -0.9241871223     0.8744747374
| 31>  H        0.5860638284     0.7027988796    -0.6522324052
| 32>  H        0.6628022149     0.1440859843     0.8977132519
| 33>  H        0.6931838902    -0.9241929466    -0.3735863802
| 34>  H        2.8289814929    -0.0524853043    -1.1091065684
| 35>  H        2.7965987423     2.3665448404    -0.0162889711
| 36>  H        4.0913586100     2.0556199964     2.2092202732
| 37>  H        3.9884086197    -0.5641290659     2.9319322254
| 38>  H        2.6650582687    -1.9025405443     1.0042131480
| 39> *
| 40>
| 41>                          ****END OF INPUT****
 Total Charge           Charge          ....    1
 Multiplicity           Mult            ....    1
 Number of Electrons    NEL             ....   52
FINAL SINGLE POINT ENERGY      -324.754093088223
FINAL SINGLE POINT ENERGY      -324.754094224084
FINAL SINGLE POINT ENERGY      -324.754095221749
FINAL SINGLE POINT ENERGY      -324.754095474258

CARTESIAN COORDINATES (ANGSTROEM)
---------------------------------
  N      1.383059   -0.000053   -1.702400
  C      0.657355    0.559805   -0.491494
  C     -0.793864    0.780315   -0.809465
  C     -1.570941   -0.012050   -0.071480
  C     -0.758617   -0.824720    0.869963
  O     -0.000341   -0.001426    1.763423
  C      0.645724   -0.475914    0.620083
  H      1.358072    0.660977   -2.481690
  H      0.928080   -0.861726   -2.015195
  H      2.363858   -0.207716   -1.496510
  H      1.193326    1.470718   -0.212408
  H     -1.135675    1.558327   -1.481742
  H     -2.652928   -0.023508   -0.094168
  H     -1.084546   -1.776743    1.270416
  H      1.486727   -1.150245    0.770036

FINAL SINGLE POINT ENERGY      -324.754095681927
                    ***********************HURRAY********************
 Multiplicity           Mult            ....    1
 Number of Electrons    NEL             ....   52
 Basis Dimension        Dim             ....  265
FINAL SINGLE POINT ENERGY      -324.754095723108

VIBRATIONAL FREQUENCIES
-----------------------

   0:         0.00 cm**-1
   1:         0.00 cm**-1
   2:         0.00 cm**-1
   3:         0.00 cm**-1
   4:         0.00 cm**-1
   5:         0.00 cm**-1
   6:       161.23 cm**-1
   7:       208.48 cm**-1
   8:       279.97 cm**-1
   9:       405.09 cm**-1
  10:       422.02 cm**-1
  11:       582.93 cm**-1
  12:       713.58 cm**-1
  13:       769.81 cm**-1
  14:       800.32 cm**-1
  15:       855.23 cm**-1
  16:       875.24 cm**-1
  17:       899.49 cm**-1
  18:       942.15 cm**-1
  19:       976.53 cm**-1
  20:       996.32 cm**-1
  21:      1012.37 cm**-1
  22:      1053.27 cm**-1
  23:      1091.33 cm**-1
  24:      1108.27 cm**-1
  25:      1131.72 cm**-1
  26:      1153.65 cm**-1
  27:      1256.41 cm**-1
  28:      1301.43 cm**-1
  29:      1323.17 cm**-1
  30:      1363.62 cm**-1
  31:      1390.89 cm**-1
  32:      1436.29 cm**-1
  33:      1494.84 cm**-1
  34:      1648.92 cm**-1
  35:      1655.79 cm**-1
  36:      1670.74 cm**-1
  37:      3105.78 cm**-1
  38:      3149.08 cm**-1
  39:      3214.25 cm**-1
  40:      3217.59 cm**-1
  41:      3244.87 cm**-1
  42:      3407.48 cm**-1
  43:      3492.89 cm**-1
  44:      3503.81 cm**-1

IR SPECTRUM
-----------

 Mode    freq (cm**-1)   T**2         TX         TY         TZ
-------------------------------------------------------------------
   6:       161.23    5.219980  ( -1.430456  -1.779418   0.086305)
   7:       208.48    0.044868  (  0.157710   0.141138   0.008681)
   8:       279.97    1.872681  (  0.618206  -0.244743   1.196078)
   9:       405.09   14.616660  (  2.142399  -1.255771   2.906858)
  10:       422.02    8.750932  (  1.948822   1.194016  -1.878124)
  11:       582.93   12.979246  ( -0.694285   0.820665   3.438564)
  12:       713.58    5.540728  ( -0.613735  -1.894213   1.255394)
  13:       769.81   12.541198  ( -0.169182  -1.511634  -3.198052)
  14:       800.32   24.538572  (  2.657937  -3.489436  -2.301689)
  15:       855.23   44.089303  (  1.526190  -1.561226  -6.270775)
  16:       875.24   22.893968  ( -1.870807  -4.062401  -1.700278)
  17:       899.49    4.215348  ( -1.915999  -0.358071   0.645042)
  18:       942.15   10.371546  ( -1.563619   2.473343   1.345071)
  19:       976.53    0.769970  ( -0.604523  -0.488853  -0.406872)
  20:       996.32   15.065500  ( -2.213845  -0.379599   3.165485)
  21:      1012.37   14.850656  (  1.455476  -3.302041  -1.352321)
  22:      1053.27    4.564692  (  0.199687  -0.314801   2.103739)
  23:      1091.33   14.576978  ( -1.953613  -2.020373  -2.584273)
  24:      1108.27    2.627217  ( -0.731113   0.155153  -1.438269)
  25:      1131.72   21.971427  (  1.570416  -0.908558   4.322007)
  26:      1153.65    0.768501  (  0.545061  -0.341839   0.595446)
  27:      1256.41    6.827117  ( -0.449700  -2.282480  -1.189611)
  28:      1301.43    0.428644  ( -0.370145  -0.474010  -0.258750)
  29:      1323.17    7.555096  (  1.566346   1.035800  -2.007181)
  30:      1363.62    4.067996  (  1.861064  -0.044309  -0.776192)
  31:      1390.89   41.188669  (  4.629458   2.257949  -3.828636)
  32:      1436.29    8.175315  (  2.529350   1.333256   0.011520)
  33:      1494.84  155.744916  (  5.641897  -4.817240 -10.035343)
  34:      1648.92   41.909033  (  0.391849   5.895257  -2.646021)
  35:      1655.79   41.020392  (  5.765477   1.676776   2.228920)
  36:      1670.74    4.094471  ( -0.509146   0.465372   1.902280)
  37:      3105.78    0.379422  ( -0.438135   0.266219   0.341449)
  38:      3149.08    5.280513  (  1.635467  -1.038779  -1.235596)
  39:      3214.25    0.885641  ( -0.295186  -0.883016   0.137068)
  40:      3217.59    0.283157  ( -0.098108  -0.042416  -0.521280)
  41:      3244.87    2.695219  ( -1.606804   0.053804   0.332423)
  42:      3407.48   41.434869  ( -3.739375   2.008935   4.839021)
  43:      3492.89   84.339866  ( -7.691785  -3.885819  -3.174386)
  44:      3503.81  100.752985  ( -1.022732   7.847690  -6.174202)

--------------------------
THERMOCHEMISTRY AT 298.15K
--------------------------

Temperature         ... 298.15 K
Pressure            ... 1.00 atm
Total Mass          ... 98.12 AMU

Throughout the following assumptions are being made:
  (1) The electronic state is orbitally nondegenerate
  (2) There are no thermally accessible electronically excited states
  (3) Hindered rotations indicated by low frequency modes) are not
      treated as such but are treated as vibrations and this may
      case some error
  (4) All equations used are the standard statistical mechanics
      equations for an ideal gas
  (5) All vibrations are strinctly harmonic

------------
INNER ENERGY
------------

The inner energy is: U= E(el) + E(ZPE) + E(vib) + E(rot) + E(trans)
    E(el)   - is the total energy from the electronic structure calculation
              = E(kin-el) + E(nuc-el) + E(el-el) + E(nuc-nuc)
    E(ZPE)  - the the zero temperature vibrational energy from the frequency calculation
    E(vib)  - the the finite temperature correction to E(ZPE) due to population
              of excietd vibrational states
    E(rot)  - is the rotational thermal energy
    E(trans)- is the translational thermal energy

Summary of contributions to the inner energy U:
Electronic energy                ...   -324.75409572 Eh
Zero point energy                ...      0.13057732 Eh      81.94 kcal/mol
Thermal vibrational correction   ...      0.00318156 Eh       2.00 kcal/mol
Thermal rotational correction    ...      0.00141627 Eh       0.89 kcal/mol
Thermal translational correction ...      0.00141627 Eh       0.89 kcal/mol
-----------------------------------------------------------------------
Total thermal energy                   -324.61750431 Eh

Summary of corrections to the electronic energy:
(perhaps to be used in another calculation)
Total thermal correction                  0.00601410 Eh       3.77 kcal/mol
Non-thermal (ZPE) correction              0.13057732 Eh      81.94 kcal/mol
-----------------------------------------------------------------------
Total correction                          0.13659142 Eh      85.71 kcal/mol

--------
ENTHALPY
--------

The enthalpy is H = U + kB*T
                kB is Boltzmann's constant
Total free energy                 ...   -324.61750431 Eh
Thermal Enthalpy correction       ...      0.00094421 Eh       0.59 kcal/mol
-----------------------------------------------------------------------
Total Enthalpy                    ...   -324.61656010 Eh

-------
ENTROPY
-------

The entropy contributions are T*S = T*(S(el)+S(vib)+S(rot)+S(trans)
     S(el)   - electronic entropy
     S(vib)  - vibrational entropy
     S(rot)  - rotational entropy
     S(trans)- translational entropy
The entropies will be listed as mutliplied by the temperature to get
units of energy

Electronic entropy                ...      0.00000000 Eh      0.00 kcal/mol
Vibrational entropy               ...      0.00499210 Eh      3.13 kcal/mol
Rotational entropy                ...      0.01172826 Eh      7.36 kcal/mol
Translational entropy             ...      0.01884443 Eh     11.83 kcal/mol
-----------------------------------------------------------------------
Final entropy term                ...      0.03556479 Eh     22.32 kcal/mol

CAUTION: The rotational entropy is not quite correctly treated here
         because it includes a symmetry number that is not yet correctly
         implemented in ORCA!
For a nonlinear molecule the correct rotational entropy is:
    S(rot) = R*(ln(qrot/sn)+1.5)
    R    = 8.31441 J/mol/K = 1.987191683e-3 kcal/mol/K
    qrot = 166080.8990886
    sn is the rotational symmetry number. We have assumed 3 here
       if it is different for your molecule then you should correct
       the printed rotational entropy by manually evaluating the equation
       as given above

For convenience we print out the resulting values for sn=1 - 12:
 sn= 1  qrot/sn=  166080.8991 T*S(rot)=     8.01 kcal/mol T*S(tot)=    22.97 kcal/mol
 sn= 2  qrot/sn=   83040.4495 T*S(rot)=     7.60 kcal/mol T*S(tot)=    22.56 kcal/mol
 sn= 3  qrot/sn=   55360.2997 T*S(rot)=     7.36 kcal/mol T*S(tot)=    22.32 kcal/mol
 sn= 4  qrot/sn=   41520.2248 T*S(rot)=     7.19 kcal/mol T*S(tot)=    22.15 kcal/mol
 sn= 5  qrot/sn=   33216.1798 T*S(rot)=     7.06 kcal/mol T*S(tot)=    22.01 kcal/mol
 sn= 6  qrot/sn=   27680.1498 T*S(rot)=     6.95 kcal/mol T*S(tot)=    21.91 kcal/mol
 sn= 7  qrot/sn=   23725.8427 T*S(rot)=     6.86 kcal/mol T*S(tot)=    21.82 kcal/mol
 sn= 8  qrot/sn=   20760.1124 T*S(rot)=     6.78 kcal/mol T*S(tot)=    21.74 kcal/mol
 sn= 9  qrot/sn=   18453.4332 T*S(rot)=     6.71 kcal/mol T*S(tot)=    21.67 kcal/mol
 sn=10  qrot/sn=   16608.0899 T*S(rot)=     6.65 kcal/mol T*S(tot)=    21.60 kcal/mol
 sn=11  qrot/sn=   15098.2636 T*S(rot)=     6.59 kcal/mol T*S(tot)=    21.55 kcal/mol
 sn=12  qrot/sn=   13840.0749 T*S(rot)=     6.54 kcal/mol T*S(tot)=    21.50 kcal/mol

-------------------
GIBBS FREE ENTHALPY
-------------------

The Gibbs free enthalpy is G = H - T*S

Total enthalpy                    ...   -324.61656010 Eh
Total entropy correction          ...     -0.03556479 Eh    -22.32 kcal/mol
-----------------------------------------------------------------------
Final Gibbs free enthalpy         ...   -324.65212489 Eh

For completeness - the Gibbs free enthalpy minus the electronic energy
G-E(el)                           ...      0.10197083 Eh     63.99 kcal/mol

                             ****ORCA TERMINATED NORMALLY****
TOTAL RUN TIME: 0 days 0 hours 35 minutes 49 seconds 882 msec
