                         Program Version 3.0.3 - RELEASE   -
|  1> ! NORI PBE0 def2-TZVP UseSym TightOPT Freq TightSCF Grid3 FinalGrid5 XYZFile
|  2> % pal
|  3>     nprocs 8
|  4> end
|  5> %method
|  6>     SymThresh 5.0e-2
|  7> end
|  8> % geom
|  9>     MaxIter 10
| 10> end
| 11> % maxcore 2000
| 12> % output
| 13>     printlevel mini
| 14>     print[ P_Basis ] 0
| 15>     print[ P_SCFInfo ] 1
| 16>     print[ P_SCFIterInfo ] 1
| 17>     print[ P_OrbEn ] 0
| 18>     print[ P_Cartesian ] 0
| 19> end
| 20> % elprop
| 21>     Dipole false
| 22> end
| 23> *xyz 1 1
| 24>  N        1.2775259835    -0.0446738447    -0.3075103934
| 25>  C        2.7269725390     0.1409086560     0.0302125623
| 26>  C        3.0557134960     1.2400227114     1.0153324418
| 27>  C        4.4300513972     0.7855596193     1.5760254472
| 28>  C        4.6240410066    -0.6862705757     1.1450808239
| 29>  C        3.2418151989    -1.1262638766     0.6956165930
| 30>  O        3.1034537899    -2.2426496769    -0.1366881873
| 31>  H        1.1821706066    -0.9488294610    -0.7872380856
| 32>  H        0.9091392399     0.6906977596    -0.9125041949
| 33>  H        0.7048686060    -0.0756171984     0.5390492224
| 34>  H        3.2335742702     0.2784166452    -0.9290822841
| 35>  H        2.3087583270     1.2654999830     1.8163498748
| 36>  H        3.0864328389     2.2325753943     0.5658710597
| 37>  H        4.4447921726     0.8882586525     2.6604668290
| 38>  H        5.2333825318     1.4119124795     1.1904649527
| 39>  H        5.3151461349    -0.7531895238     0.2972248005
| 40>  H        5.0202874265    -1.3169496819     1.9398691662
| 41>  H        2.6214357959    -1.3225030769     1.5833293150
| 42>  H        3.9368686386    -2.4443149846    -0.5736499432
| 43> *
| 44>
| 45>                          ****END OF INPUT****
 Total Charge           Charge          ....    1
 Multiplicity           Mult            ....    1
 Number of Electrons    NEL             ....   56
FINAL SINGLE POINT ENERGY      -327.238943138040

CARTESIAN COORDINATES (ANGSTROEM)
---------------------------------
  N      2.080213    0.000267    0.073721
  C      0.666372    0.379140   -0.254067
  C      0.162309   -0.013047   -1.624779
  C     -1.376197   -0.040668   -1.419230
  C     -1.624054   -0.008830    0.106130
  C     -0.269035   -0.336617    0.708642
  O      0.000332   -0.000709    2.040303
  H      2.206328    0.112942    1.087448
  H      2.771891    0.573679   -0.411023
  H      2.260802   -0.979008   -0.159026
  H      0.607103    1.457548   -0.082731
  H      0.528054   -1.010833   -1.889963
  H      0.474104    0.669688   -2.415147
  H     -1.798759   -0.936313   -1.872573
  H     -1.848758    0.810797   -1.906997
  H     -1.926857    0.993915    0.427785
  H     -2.398601   -0.702951    0.429077
  H     -0.088649   -1.418555    0.619308
  H     -0.615255    0.670487    2.351440

FINAL SINGLE POINT ENERGY      -327.238944003119
                    ***********************HURRAY********************
 Multiplicity           Mult            ....    1
 Number of Electrons    NEL             ....   56
 Basis Dimension        Dim             ....  289
FINAL SINGLE POINT ENERGY      -327.238944307513

VIBRATIONAL FREQUENCIES
-----------------------

   0:         0.00 cm**-1
   1:         0.00 cm**-1
   2:         0.00 cm**-1
   3:         0.00 cm**-1
   4:         0.00 cm**-1
   5:         0.00 cm**-1
   6:        84.27 cm**-1
   7:       152.50 cm**-1
   8:       194.69 cm**-1
   9:       219.25 cm**-1
  10:       273.11 cm**-1
  11:       333.86 cm**-1
  12:       395.17 cm**-1
  13:       514.55 cm**-1
  14:       548.88 cm**-1
  15:       613.56 cm**-1
  16:       772.10 cm**-1
  17:       814.48 cm**-1
  18:       903.02 cm**-1
  19:       916.76 cm**-1
  20:       946.67 cm**-1
  21:       982.68 cm**-1
  22:      1016.42 cm**-1
  23:      1028.26 cm**-1
  24:      1057.67 cm**-1
  25:      1094.32 cm**-1
  26:      1169.07 cm**-1
  27:      1172.20 cm**-1
  28:      1200.50 cm**-1
  29:      1219.74 cm**-1
  30:      1271.92 cm**-1
  31:      1277.00 cm**-1
  32:      1310.35 cm**-1
  33:      1326.53 cm**-1
  34:      1340.11 cm**-1
  35:      1357.40 cm**-1
  36:      1374.47 cm**-1
  37:      1412.21 cm**-1
  38:      1425.28 cm**-1
  39:      1481.44 cm**-1
  40:      1487.64 cm**-1
  41:      1493.17 cm**-1
  42:      1513.97 cm**-1
  43:      1652.30 cm**-1
  44:      1659.01 cm**-1
  45:      3006.74 cm**-1
  46:      3055.34 cm**-1
  47:      3056.70 cm**-1
  48:      3094.76 cm**-1
  49:      3109.44 cm**-1
  50:      3133.40 cm**-1
  51:      3144.47 cm**-1
  52:      3159.26 cm**-1
  53:      3380.73 cm**-1
  54:      3471.76 cm**-1
  55:      3514.68 cm**-1
  56:      3846.00 cm**-1

IR SPECTRUM
-----------

 Mode    freq (cm**-1)   T**2         TX         TY         TZ
-------------------------------------------------------------------
   6:        84.27    0.289027  ( -0.041697  -0.490146   0.216900)
   7:       152.50   14.816863  (  1.868389  -1.670467  -2.921562)
   8:       194.69   45.264917  ( -4.223522  -4.956154   1.692136)
   9:       219.25   63.913644  (  5.357421   3.881810  -4.488122)
  10:       273.11    8.577739  ( -1.566319  -2.469509  -0.160964)
  11:       333.86    6.572827  (  1.933422   1.356477  -0.997335)
  12:       395.17    2.562284  (  1.147336  -0.838180   0.737129)
  13:       514.55    7.572315  ( -2.231914  -0.648890  -1.473029)
  14:       548.88    2.227671  ( -1.318687   0.506508  -0.481856)
  15:       613.56    0.432491  (  0.391519  -0.401925  -0.343016)
  16:       772.10    3.419908  ( -0.654607  -1.712310  -0.243707)
  17:       814.48    5.963323  (  2.005445   1.367898   0.265273)
  18:       903.02    9.318357  (  0.601128   1.409199   2.640296)
  19:       916.76    3.606418  ( -1.277780  -1.375805  -0.284356)
  20:       946.67    2.352766  ( -0.597971  -0.779614  -1.177879)
  21:       982.68    7.628351  ( -1.906581  -0.970821   1.746655)
  22:      1016.42    9.830206  ( -0.935475   0.572677   2.937198)
  23:      1028.26   30.952258  (  1.240760   1.244534  -5.278627)
  24:      1057.67   12.037061  ( -1.798853   1.823832   2.339834)
  25:      1094.32   63.955639  (  2.572877   0.687701   7.540757)
  26:      1169.07   45.266037  ( -0.624541  -1.242026  -6.582808)
  27:      1172.20   30.957279  (  0.542198   0.522154   5.512772)
  28:      1200.50    2.791298  (  0.976130   0.428534   1.286401)
  29:      1219.74    7.180937  (  0.759999  -0.993962  -2.369679)
  30:      1271.92    7.688555  ( -0.334523  -0.536156  -2.699849)
  31:      1277.00    3.197378  (  0.407053  -0.109410   1.737733)
  32:      1310.35    8.466949  ( -2.134741  -0.738283  -1.834331)
  33:      1326.53    2.511358  ( -1.211873  -0.188852  -1.003523)
  34:      1340.11    0.608981  (  0.560969  -0.515942   0.167627)
  35:      1357.40    0.883862  ( -0.185163   0.917461   0.088561)
  36:      1374.47   12.163727  (  1.891980   1.431301   2.556466)
  37:      1412.21   30.316693  (  1.189609   0.587038   5.343867)
  38:      1425.28   16.433741  (  3.360942   0.773375   2.130657)
  39:      1481.44   60.962538  ( -7.330975   1.577493  -2.175053)
  40:      1487.64   57.785012  ( -6.872267   1.131844  -3.045633)
  41:      1493.17   68.090642  ( -7.742225   2.832803   0.351882)
  42:      1513.97    5.546599  ( -0.127397   0.865279   2.186701)
  43:      1652.30   41.318595  (  0.975411  -3.630171  -5.214310)
  44:      1659.01   41.783408  (  2.271383   5.560786  -2.387862)
  45:      3006.74   12.468873  ( -1.370508   2.949579   1.374978)
  46:      3055.34   20.917241  ( -2.126035   3.104799   2.599508)
  47:      3056.70    4.617980  (  2.025768  -0.611954   0.373842)
  48:      3094.76    6.916490  ( -1.017122   1.866269   1.548868)
  49:      3109.44    6.568186  ( -1.724001  -0.132931  -1.891649)
  50:      3133.40    3.322077  (  0.613770   0.986189  -1.404562)
  51:      3144.47    0.986584  ( -0.966709   0.020436  -0.227242)
  52:      3159.26    5.416036  (  0.207230   2.304998  -0.245107)
  53:      3380.73   54.115510  ( -3.308732   0.159271  -6.568290)
  54:      3471.76   89.224836  ( -4.400203   3.864743   7.411262)
  55:      3514.68   92.864903  (  4.792396   7.688952  -3.282966)
  56:      3846.00   79.048739  (  4.698872  -4.887827  -5.751390)

--------------------------
THERMOCHEMISTRY AT 298.15K
--------------------------

Temperature         ... 298.15 K
Pressure            ... 1.00 atm
Total Mass          ... 102.16 AMU

Throughout the following assumptions are being made:
  (1) The electronic state is orbitally nondegenerate
  (2) There are no thermally accessible electronically excited states
  (3) Hindered rotations indicated by low frequency modes) are not
      treated as such but are treated as vibrations and this may
      case some error
  (4) All equations used are the standard statistical mechanics
      equations for an ideal gas
  (5) All vibrations are strinctly harmonic

------------
INNER ENERGY
------------

The inner energy is: U= E(el) + E(ZPE) + E(vib) + E(rot) + E(trans)
    E(el)   - is the total energy from the electronic structure calculation
              = E(kin-el) + E(nuc-el) + E(el-el) + E(nuc-nuc)
    E(ZPE)  - the the zero temperature vibrational energy from the frequency calculation
    E(vib)  - the the finite temperature correction to E(ZPE) due to population
              of excietd vibrational states
    E(rot)  - is the rotational thermal energy
    E(trans)- is the translational thermal energy

Summary of contributions to the inner energy U:
Electronic energy                ...   -327.23894431 Eh
Zero point energy                ...      0.17765104 Eh     111.48 kcal/mol
Thermal vibrational correction   ...      0.00486336 Eh       3.05 kcal/mol
Thermal rotational correction    ...      0.00141627 Eh       0.89 kcal/mol
Thermal translational correction ...      0.00141627 Eh       0.89 kcal/mol
-----------------------------------------------------------------------
Total thermal energy                   -327.05359736 Eh

Summary of corrections to the electronic energy:
(perhaps to be used in another calculation)
Total thermal correction                  0.00769590 Eh       4.83 kcal/mol
Non-thermal (ZPE) correction              0.17765104 Eh     111.48 kcal/mol
-----------------------------------------------------------------------
Total correction                          0.18534694 Eh     116.31 kcal/mol

--------
ENTHALPY
--------

The enthalpy is H = U + kB*T
                kB is Boltzmann's constant
Total free energy                 ...   -327.05359736 Eh
Thermal Enthalpy correction       ...      0.00094421 Eh       0.59 kcal/mol
-----------------------------------------------------------------------
Total Enthalpy                    ...   -327.05265315 Eh

-------
ENTROPY
-------

The entropy contributions are T*S = T*(S(el)+S(vib)+S(rot)+S(trans)
     S(el)   - electronic entropy
     S(vib)  - vibrational entropy
     S(rot)  - rotational entropy
     S(trans)- translational entropy
The entropies will be listed as mutliplied by the temperature to get
units of energy

Electronic entropy                ...      0.00000000 Eh      0.00 kcal/mol
Vibrational entropy               ...      0.00837932 Eh      5.26 kcal/mol
Rotational entropy                ...      0.01201975 Eh      7.54 kcal/mol
Translational entropy             ...      0.01890147 Eh     11.86 kcal/mol
-----------------------------------------------------------------------
Final entropy term                ...      0.03930054 Eh     24.66 kcal/mol

CAUTION: The rotational entropy is not quite correctly treated here
         because it includes a symmetry number that is not yet correctly
         implemented in ORCA!
For a nonlinear molecule the correct rotational entropy is:
    S(rot) = R*(ln(qrot/sn)+1.5)
    R    = 8.31441 J/mol/K = 1.987191683e-3 kcal/mol/K
    qrot = 226151.3000753
    sn is the rotational symmetry number. We have assumed 3 here
       if it is different for your molecule then you should correct
       the printed rotational entropy by manually evaluating the equation
       as given above

For convenience we print out the resulting values for sn=1 - 12:
 sn= 1  qrot/sn=  226151.3001 T*S(rot)=     8.19 kcal/mol T*S(tot)=    25.31 kcal/mol
 sn= 2  qrot/sn=  113075.6500 T*S(rot)=     7.78 kcal/mol T*S(tot)=    24.90 kcal/mol
 sn= 3  qrot/sn=   75383.7667 T*S(rot)=     7.54 kcal/mol T*S(tot)=    24.66 kcal/mol
 sn= 4  qrot/sn=   56537.8250 T*S(rot)=     7.37 kcal/mol T*S(tot)=    24.49 kcal/mol
 sn= 5  qrot/sn=   45230.2600 T*S(rot)=     7.24 kcal/mol T*S(tot)=    24.36 kcal/mol
 sn= 6  qrot/sn=   37691.8833 T*S(rot)=     7.13 kcal/mol T*S(tot)=    24.25 kcal/mol
 sn= 7  qrot/sn=   32307.3286 T*S(rot)=     7.04 kcal/mol T*S(tot)=    24.16 kcal/mol
 sn= 8  qrot/sn=   28268.9125 T*S(rot)=     6.96 kcal/mol T*S(tot)=    24.08 kcal/mol
 sn= 9  qrot/sn=   25127.9222 T*S(rot)=     6.89 kcal/mol T*S(tot)=    24.01 kcal/mol
 sn=10  qrot/sn=   22615.1300 T*S(rot)=     6.83 kcal/mol T*S(tot)=    23.95 kcal/mol
 sn=11  qrot/sn=   20559.2091 T*S(rot)=     6.77 kcal/mol T*S(tot)=    23.89 kcal/mol
 sn=12  qrot/sn=   18845.9417 T*S(rot)=     6.72 kcal/mol T*S(tot)=    23.84 kcal/mol

-------------------
GIBBS FREE ENTHALPY
-------------------

The Gibbs free enthalpy is G = H - T*S

Total enthalpy                    ...   -327.05265315 Eh
Total entropy correction          ...     -0.03930054 Eh    -24.66 kcal/mol
-----------------------------------------------------------------------
Final Gibbs free enthalpy         ...   -327.09195369 Eh

For completeness - the Gibbs free enthalpy minus the electronic energy
G-E(el)                           ...      0.14699061 Eh     92.24 kcal/mol

                             ****ORCA TERMINATED NORMALLY****
TOTAL RUN TIME: 0 days 0 hours 48 minutes 20 seconds 738 msec
