                         Program Version 3.0.3 - RELEASE   -
|  1> ! NORI PBE0 def2-TZVP UseSym TightOPT Freq TightSCF Grid3 FinalGrid5 XYZFile
|  2> % pal
|  3>     nprocs 8
|  4> end
|  5> %method
|  6>     SymThresh 5.0e-2
|  7> end
|  8> % geom
|  9>     MaxIter 10
| 10> end
| 11> % maxcore 2000
| 12> % output
| 13>     printlevel mini
| 14>     print[ P_Basis ] 0
| 15>     print[ P_SCFInfo ] 1
| 16>     print[ P_SCFIterInfo ] 1
| 17>     print[ P_OrbEn ] 0
| 18>     print[ P_Cartesian ] 0
| 19> end
| 20> % elprop
| 21>     Dipole false
| 22> end
| 23> *xyz 1 1
| 24>  N        0.9647222035    -0.1197627396     0.1612188728
| 25>  C        2.4754144769    -0.0933387374     0.1444699647
| 26>  C        3.0531305188    -1.3565790137    -0.4065380723
| 27>  C        3.9677833631    -1.0948361885    -1.3323622777
| 28>  C        4.1440713742     0.3703537325    -1.5661200766
| 29>  C        2.9516105710     1.0081747808    -0.8416254251
| 30>  O        1.8547527729     1.2331183797    -1.7085680790
| 31>  H        0.5708251476     0.5004098947     0.8688458384
| 32>  H        0.6062882986    -1.0607559931     0.3180306898
| 33>  H        0.6690243735     0.2282790610    -0.7670542402
| 34>  H        2.7926049472     0.1039974975     1.1714503159
| 35>  H        2.8051182001    -2.3373495401    -0.0174735955
| 36>  H        4.5632430299    -1.8460649648    -1.8360937253
| 37>  H        4.1563371315     0.6395295870    -2.6255346504
| 38>  H        5.0931305011     0.7157361598    -1.1429270306
| 39>  H        3.2156852485     1.9311197439    -0.3186741408
| 40>  H        2.0446878417     1.9425983403    -2.3285843680
| 41> *
| 42>
| 43>                          ****END OF INPUT****
 Total Charge           Charge          ....    1
 Multiplicity           Mult            ....    1
 Number of Electrons    NEL             ....   54
FINAL SINGLE POINT ENERGY      -326.016457830875

CARTESIAN COORDINATES (ANGSTROEM)
---------------------------------
  N      1.968534    0.000075    0.212577
  C      0.711158    0.448202   -0.496054
  C      0.137864   -0.629073   -1.358649
  C     -1.161399   -0.777475   -1.130355
  C     -1.668662    0.153164   -0.077219
  C     -0.394636    0.723529    0.559617
  O      0.000073    0.000421    1.711492
  H      2.578555    0.780287    0.456770
  H      2.499976   -0.664924   -0.347796
  H      1.650959   -0.442711    1.091972
  H      0.977805    1.344903   -1.060962
  H      0.711110   -1.139330   -2.124252
  H     -1.805713   -1.458445   -1.672594
  H     -2.299203   -0.340232    0.667137
  H     -2.274873    0.947327   -0.525882
  H     -0.474983    1.788926    0.791106
  H     -0.608710    0.152127    2.439594

FINAL SINGLE POINT ENERGY      -326.016458402442
                    ***********************HURRAY********************
 Multiplicity           Mult            ....    1
 Number of Electrons    NEL             ....   54
 Basis Dimension        Dim             ....  277
FINAL SINGLE POINT ENERGY      -326.016459002072

VIBRATIONAL FREQUENCIES
-----------------------

   0:         0.00 cm**-1
   1:         0.00 cm**-1
   2:         0.00 cm**-1
   3:         0.00 cm**-1
   4:         0.00 cm**-1
   5:         0.00 cm**-1
   6:        86.87 cm**-1
   7:       106.81 cm**-1
   8:       233.37 cm**-1
   9:       273.67 cm**-1
  10:       357.41 cm**-1
  11:       424.33 cm**-1
  12:       451.31 cm**-1
  13:       546.06 cm**-1
  14:       716.16 cm**-1
  15:       773.50 cm**-1
  16:       797.07 cm**-1
  17:       828.98 cm**-1
  18:       883.94 cm**-1
  19:       945.45 cm**-1
  20:       971.70 cm**-1
  21:       993.24 cm**-1
  22:      1018.79 cm**-1
  23:      1034.58 cm**-1
  24:      1048.36 cm**-1
  25:      1114.35 cm**-1
  26:      1138.01 cm**-1
  27:      1147.66 cm**-1
  28:      1212.21 cm**-1
  29:      1226.39 cm**-1
  30:      1301.02 cm**-1
  31:      1324.36 cm**-1
  32:      1349.34 cm**-1
  33:      1372.77 cm**-1
  34:      1393.47 cm**-1
  35:      1416.94 cm**-1
  36:      1459.56 cm**-1
  37:      1480.16 cm**-1
  38:      1624.31 cm**-1
  39:      1662.25 cm**-1
  40:      1699.95 cm**-1
  41:      3060.31 cm**-1
  42:      3082.62 cm**-1
  43:      3095.99 cm**-1
  44:      3105.76 cm**-1
  45:      3206.63 cm**-1
  46:      3233.80 cm**-1
  47:      3274.87 cm**-1
  48:      3481.86 cm**-1
  49:      3539.92 cm**-1
  50:      3870.54 cm**-1

IR SPECTRUM
-----------

 Mode    freq (cm**-1)   T**2         TX         TY         TZ
-------------------------------------------------------------------
   6:        86.87    2.916472  (  0.893268   1.222392  -0.790128)
   7:       106.81   40.475518  ( -1.749785  -5.447796  -2.781240)
   8:       233.37  106.757809  (  5.735498   8.070912   2.953345)
   9:       273.67    1.088338  (  0.021175  -0.027985  -1.042644)
  10:       357.41   34.779102  (  2.913721  -1.153416  -4.995895)
  11:       424.33   12.692095  ( -3.296537   0.163625   1.340956)
  12:       451.31    7.157819  (  0.898745   1.542039  -1.993036)
  13:       546.06    6.299337  ( -2.222170   0.387484  -1.100524)
  14:       716.16   26.055969  ( -0.631201   3.991335  -3.118781)
  15:       773.50   11.431622  (  3.106157  -0.754554   1.101844)
  16:       797.07   21.228752  (  2.707458  -2.214252   2.999252)
  17:       828.98    6.243150  (  2.333868  -0.437868  -0.777483)
  18:       883.94   19.912126  ( -0.388143  -2.339246   3.780132)
  19:       945.45   29.133976  ( -2.691618   0.137837  -4.676555)
  20:       971.70    1.983311  (  1.238679   0.138857  -0.655519)
  21:       993.24    8.631095  (  0.902777   0.328169  -2.776399)
  22:      1018.79    9.083092  ( -2.943649   0.605765  -0.225992)
  23:      1034.58   42.692270  ( -2.619153   1.718685  -5.733972)
  24:      1048.36   62.404729  (  1.308702   2.212094  -7.469851)
  25:      1114.35    7.118077  ( -2.388507  -1.007209  -0.631381)
  26:      1138.01   12.777413  ( -1.937481   3.003915  -0.008731)
  27:      1147.66    6.647370  ( -1.090190   2.221399  -0.724047)
  28:      1212.21   19.296568  (  1.371970  -3.022178   2.877622)
  29:      1226.39   16.621146  (  1.386217  -2.789382   2.630380)
  30:      1301.02   27.449060  (  3.357099   0.058081   4.021886)
  31:      1324.36    0.518706  ( -0.605066  -0.294017   0.257207)
  32:      1349.34    4.953966  (  1.218938  -1.454338   1.163210)
  33:      1372.77    6.588841  ( -0.885037  -1.971610   1.385030)
  34:      1393.47    5.375602  (  0.887440   1.098148  -1.839055)
  35:      1416.94   33.737895  ( -5.385901  -2.063744  -0.686244)
  36:      1459.56   49.671854  (  6.815898  -1.782661   0.193664)
  37:      1480.16  167.072122  ( 11.078816  -5.290817   4.042180)
  38:      1624.31   29.955239  ( -3.444139  -4.203564  -0.650534)
  39:      1662.25   39.516584  ( -2.926248   1.827744   5.254808)
  40:      1699.95    7.925284  (  2.811072  -0.131365   0.076816)
  41:      3060.31    1.772340  ( -1.199074  -0.288222   0.501487)
  42:      3082.62    9.805349  (  1.208644  -2.800191  -0.709549)
  43:      3095.99    9.944182  (  0.788704   3.050318   0.133001)
  44:      3105.76    2.776910  ( -0.694560  -0.781779   1.297428)
  45:      3206.63    0.134272  (  0.231201  -0.054462  -0.279021)
  46:      3233.80    0.575593  ( -0.659795  -0.324503  -0.186978)
  47:      3274.87  144.404313  ( -5.085291  -3.023701  10.459511)
  48:      3481.86   98.470403  ( -9.180470  -1.919649   3.241036)
  49:      3539.92   85.473750  (  0.747292  -7.988090  -4.594097)
  50:      3870.54  129.075236  ( -4.798239   0.555230  10.283183)

--------------------------
THERMOCHEMISTRY AT 298.15K
--------------------------

Temperature         ... 298.15 K
Pressure            ... 1.00 atm
Total Mass          ... 100.14 AMU

Throughout the following assumptions are being made:
  (1) The electronic state is orbitally nondegenerate
  (2) There are no thermally accessible electronically excited states
  (3) Hindered rotations indicated by low frequency modes) are not
      treated as such but are treated as vibrations and this may
      case some error
  (4) All equations used are the standard statistical mechanics
      equations for an ideal gas
  (5) All vibrations are strinctly harmonic

------------
INNER ENERGY
------------

The inner energy is: U= E(el) + E(ZPE) + E(vib) + E(rot) + E(trans)
    E(el)   - is the total energy from the electronic structure calculation
              = E(kin-el) + E(nuc-el) + E(el-el) + E(nuc-nuc)
    E(ZPE)  - the the zero temperature vibrational energy from the frequency calculation
    E(vib)  - the the finite temperature correction to E(ZPE) due to population
              of excietd vibrational states
    E(rot)  - is the rotational thermal energy
    E(trans)- is the translational thermal energy

Summary of contributions to the inner energy U:
Electronic energy                ...   -326.01645900 Eh
Zero point energy                ...      0.15347258 Eh      96.31 kcal/mol
Thermal vibrational correction   ...      0.00433071 Eh       2.72 kcal/mol
Thermal rotational correction    ...      0.00141627 Eh       0.89 kcal/mol
Thermal translational correction ...      0.00141627 Eh       0.89 kcal/mol
-----------------------------------------------------------------------
Total thermal energy                   -325.85582318 Eh

Summary of corrections to the electronic energy:
(perhaps to be used in another calculation)
Total thermal correction                  0.00716325 Eh       4.49 kcal/mol
Non-thermal (ZPE) correction              0.15347258 Eh      96.31 kcal/mol
-----------------------------------------------------------------------
Total correction                          0.16063583 Eh     100.80 kcal/mol

--------
ENTHALPY
--------

The enthalpy is H = U + kB*T
                kB is Boltzmann's constant
Total free energy                 ...   -325.85582318 Eh
Thermal Enthalpy correction       ...      0.00094421 Eh       0.59 kcal/mol
-----------------------------------------------------------------------
Total Enthalpy                    ...   -325.85487897 Eh

-------
ENTROPY
-------

The entropy contributions are T*S = T*(S(el)+S(vib)+S(rot)+S(trans)
     S(el)   - electronic entropy
     S(vib)  - vibrational entropy
     S(rot)  - rotational entropy
     S(trans)- translational entropy
The entropies will be listed as mutliplied by the temperature to get
units of energy

Electronic entropy                ...      0.00000000 Eh      0.00 kcal/mol
Vibrational entropy               ...      0.00754214 Eh      4.73 kcal/mol
Rotational entropy                ...      0.01184775 Eh      7.43 kcal/mol
Translational entropy             ...      0.01887324 Eh     11.84 kcal/mol
-----------------------------------------------------------------------
Final entropy term                ...      0.03826313 Eh     24.01 kcal/mol

CAUTION: The rotational entropy is not quite correctly treated here
         because it includes a symmetry number that is not yet correctly
         implemented in ORCA!
For a nonlinear molecule the correct rotational entropy is:
    S(rot) = R*(ln(qrot/sn)+1.5)
    R    = 8.31441 J/mol/K = 1.987191683e-3 kcal/mol/K
    qrot = 188488.0109211
    sn is the rotational symmetry number. We have assumed 3 here
       if it is different for your molecule then you should correct
       the printed rotational entropy by manually evaluating the equation
       as given above

For convenience we print out the resulting values for sn=1 - 12:
 sn= 1  qrot/sn=  188488.0109 T*S(rot)=     8.09 kcal/mol T*S(tot)=    24.66 kcal/mol
 sn= 2  qrot/sn=   94244.0055 T*S(rot)=     7.67 kcal/mol T*S(tot)=    24.25 kcal/mol
 sn= 3  qrot/sn=   62829.3370 T*S(rot)=     7.43 kcal/mol T*S(tot)=    24.01 kcal/mol
 sn= 4  qrot/sn=   47122.0027 T*S(rot)=     7.26 kcal/mol T*S(tot)=    23.84 kcal/mol
 sn= 5  qrot/sn=   37697.6022 T*S(rot)=     7.13 kcal/mol T*S(tot)=    23.71 kcal/mol
 sn= 6  qrot/sn=   31414.6685 T*S(rot)=     7.02 kcal/mol T*S(tot)=    23.60 kcal/mol
 sn= 7  qrot/sn=   26926.8587 T*S(rot)=     6.93 kcal/mol T*S(tot)=    23.51 kcal/mol
 sn= 8  qrot/sn=   23561.0014 T*S(rot)=     6.85 kcal/mol T*S(tot)=    23.43 kcal/mol
 sn= 9  qrot/sn=   20943.1123 T*S(rot)=     6.78 kcal/mol T*S(tot)=    23.36 kcal/mol
 sn=10  qrot/sn=   18848.8011 T*S(rot)=     6.72 kcal/mol T*S(tot)=    23.30 kcal/mol
 sn=11  qrot/sn=   17135.2737 T*S(rot)=     6.66 kcal/mol T*S(tot)=    23.24 kcal/mol
 sn=12  qrot/sn=   15707.3342 T*S(rot)=     6.61 kcal/mol T*S(tot)=    23.19 kcal/mol

-------------------
GIBBS FREE ENTHALPY
-------------------

The Gibbs free enthalpy is G = H - T*S

Total enthalpy                    ...   -325.85487897 Eh
Total entropy correction          ...     -0.03826313 Eh    -24.01 kcal/mol
-----------------------------------------------------------------------
Final Gibbs free enthalpy         ...   -325.89314210 Eh

For completeness - the Gibbs free enthalpy minus the electronic energy
G-E(el)                           ...      0.12331691 Eh     77.38 kcal/mol

                             ****ORCA TERMINATED NORMALLY****
TOTAL RUN TIME: 0 days 0 hours 38 minutes 33 seconds 297 msec
