                         Program Version 3.0.3 - RELEASE   -
|  1> ! NORI PBE0 def2-TZVP UseSym TightOPT Freq TightSCF Grid3 FinalGrid5 XYZFile
|  2> % pal
|  3>     nprocs 8
|  4> end
|  5> %method
|  6>     SymThresh 5.0e-2
|  7> end
|  8> % geom
|  9>     MaxIter 10
| 10> end
| 11> % maxcore 2000
| 12> % output
| 13>     printlevel mini
| 14>     print[ P_Basis ] 0
| 15>     print[ P_SCFInfo ] 1
| 16>     print[ P_SCFIterInfo ] 1
| 17>     print[ P_OrbEn ] 0
| 18>     print[ P_Cartesian ] 0
| 19> end
| 20> % elprop
| 21>     Dipole false
| 22> end
| 23> *xyz 1 1
| 24>  N        0.9592518103    -0.0811052284    -0.0674902515
| 25>  C        2.4653977559    -0.1518339298     0.0068250256
| 26>  C        2.9309029019    -1.3625657800    -0.7979346260
| 27>  C        3.2055708513    -0.7671081863    -2.1511666693
| 28>  C        3.2321522600     0.5628682533    -2.1202911730
| 29>  C        3.0343504822     1.0867355288    -0.7254411420
| 30>  O        4.2078307641     1.5356677676    -0.1108711317
| 31>  H        0.5193199157    -0.8884105975     0.3773873901
| 32>  H        0.6675094990    -0.0617759283    -1.0495492570
| 33>  H        0.6025150782     0.7644270339     0.3831601109
| 34>  H        2.7295852535    -0.1553225417     1.0634420234
| 35>  H        3.8351360163    -1.7960220101    -0.3604808470
| 36>  H        2.1967932574    -2.1760061823    -0.8175570810
| 37>  H        3.3940334466    -1.3775859121    -3.0257156399
| 38>  H        3.4470959313     1.2148069218    -2.9575916642
| 39>  H        2.3271154847     1.9273198375    -0.6781999664
| 40>  H        4.9753092916     1.1766709535    -0.5677451010
| 41> *
| 42>
| 43>                          ****END OF INPUT****
 Total Charge           Charge          ....    1
 Multiplicity           Mult            ....    1
 Number of Electrons    NEL             ....   54
FINAL SINGLE POINT ENERGY      -326.004701721201
FINAL SINGLE POINT ENERGY      -326.004702443150

CARTESIAN COORDINATES (ANGSTROEM)
---------------------------------
  N      1.670862    0.000334   -1.152135
  C      0.687983    0.607180   -0.179013
  C     -0.557725    1.030945   -0.952786
  C     -1.448890   -0.172841   -0.818199
  C     -1.008263   -1.025562    0.103475
  C      0.227432   -0.510381    0.786678
  O      0.000867   -0.000723    2.069272
  H      1.997336    0.683870   -1.837149
  H      1.218580   -0.766673   -1.659369
  H      2.487184   -0.380681   -0.668678
  H      1.214529    1.404149    0.344167
  H     -1.012801    1.917688   -0.501268
  H     -0.346891    1.307130   -1.991648
  H     -2.359422   -0.287417   -1.393402
  H     -1.496510   -1.943201    0.406588
  H      1.008538   -1.275841    0.898695
  H     -0.935394    0.190807    2.185184

FINAL SINGLE POINT ENERGY      -326.004702683098
                    ***********************HURRAY********************
 Multiplicity           Mult            ....    1
 Number of Electrons    NEL             ....   54
 Basis Dimension        Dim             ....  277
FINAL SINGLE POINT ENERGY      -326.004702718328

VIBRATIONAL FREQUENCIES
-----------------------

   0:         0.00 cm**-1
   1:         0.00 cm**-1
   2:         0.00 cm**-1
   3:         0.00 cm**-1
   4:         0.00 cm**-1
   5:         0.00 cm**-1
   6:        88.15 cm**-1
   7:       193.30 cm**-1
   8:       233.86 cm**-1
   9:       244.82 cm**-1
  10:       310.61 cm**-1
  11:       349.85 cm**-1
  12:       454.99 cm**-1
  13:       558.42 cm**-1
  14:       731.79 cm**-1
  15:       752.69 cm**-1
  16:       806.36 cm**-1
  17:       836.99 cm**-1
  18:       890.89 cm**-1
  19:       924.66 cm**-1
  20:       979.63 cm**-1
  21:       997.99 cm**-1
  22:       999.94 cm**-1
  23:      1017.56 cm**-1
  24:      1076.01 cm**-1
  25:      1094.13 cm**-1
  26:      1131.93 cm**-1
  27:      1154.39 cm**-1
  28:      1212.97 cm**-1
  29:      1252.10 cm**-1
  30:      1289.65 cm**-1
  31:      1319.27 cm**-1
  32:      1351.34 cm**-1
  33:      1377.74 cm**-1
  34:      1405.51 cm**-1
  35:      1415.95 cm**-1
  36:      1472.18 cm**-1
  37:      1492.21 cm**-1
  38:      1651.41 cm**-1
  39:      1658.84 cm**-1
  40:      1684.87 cm**-1
  41:      3015.03 cm**-1
  42:      3058.36 cm**-1
  43:      3095.50 cm**-1
  44:      3149.89 cm**-1
  45:      3219.98 cm**-1
  46:      3239.97 cm**-1
  47:      3406.28 cm**-1
  48:      3487.00 cm**-1
  49:      3512.30 cm**-1
  50:      3842.10 cm**-1

IR SPECTRUM
-----------

 Mode    freq (cm**-1)   T**2         TX         TY         TZ
-------------------------------------------------------------------
   6:        88.15   11.111172  ( -1.860571  -2.679283  -0.686213)
   7:       193.30   44.513506  ( -0.186451  -6.305980   2.171026)
   8:       233.86   53.467369  ( -3.786638  -5.199260   3.477994)
   9:       244.82    2.892033  ( -1.552126  -0.248682   0.648917)
  10:       310.61    4.494747  (  0.598155   2.016738  -0.264057)
  11:       349.85    5.685985  ( -0.736654  -0.535989  -2.203643)
  12:       454.99    6.657113  ( -2.521052   0.401922   0.373992)
  13:       558.42    8.142158  (  1.431875  -0.527752  -2.411093)
  14:       731.79    3.080663  (  0.008969  -1.635203  -0.637724)
  15:       752.69   20.032107  (  2.853290  -2.767565  -2.057043)
  16:       806.36   28.768966  (  3.159442  -2.065075  -3.810821)
  17:       836.99   10.125710  ( -2.763399  -0.910991   1.288190)
  18:       890.89   20.979527  (  0.817081  -3.086122  -3.284472)
  19:       924.66    1.948509  (  1.171667   0.673841  -0.348773)
  20:       979.63    9.864215  ( -2.356078   2.027117   0.451562)
  21:       997.99   11.957682  ( -0.516872  -0.551273   3.374407)
  22:       999.94   15.929062  ( -0.470168  -2.128130   3.343511)
  23:      1017.56    6.371777  ( -1.993710  -0.378194   1.501289)
  24:      1076.01   41.210878  (  0.003501  -2.563410  -5.885558)
  25:      1094.13   21.831532  ( -2.453594   0.875139   3.878858)
  26:      1131.93   14.305598  (  0.017460  -0.553584   3.741502)
  27:      1154.39   75.630217  (  0.869968  -1.393987  -8.539916)
  28:      1212.97    4.267432  (  0.204008  -0.445580  -2.006806)
  29:      1252.10    1.590040  ( -0.397451  -0.991792  -0.669643)
  30:      1289.65    9.711150  (  2.135497   0.534924   2.205597)
  31:      1319.27   11.142564  ( -1.432860  -0.887566  -2.881268)
  32:      1351.34    4.832911  ( -0.931131  -1.044295  -1.695687)
  33:      1377.74    9.541345  (  2.979701  -0.807653   0.102081)
  34:      1405.51   30.332226  (  1.262915   1.169256  -5.231645)
  35:      1415.95   36.259421  (  1.923124   2.137363   5.290812)
  36:      1472.18   36.493065  (  4.030448  -4.482363  -0.396204)
  37:      1492.21  153.549632  (  7.759994  -4.064696  -8.764152)
  38:      1651.41   46.019276  ( -5.353322  -3.708004  -1.900506)
  39:      1658.84   26.305239  ( -0.392131   3.901164  -3.306417)
  40:      1684.87    3.730529  ( -0.706551   0.690707  -1.659590)
  41:      3015.03   31.336261  ( -4.556951   3.115579   0.929317)
  42:      3058.36    9.032371  (  1.341493   1.315133  -2.345888)
  43:      3095.50    1.207617  (  0.352904   0.591547  -0.856241)
  44:      3149.89    0.797080  (  0.871988  -0.185987  -0.046105)
  45:      3219.98    1.164993  (  0.087102  -0.842268   0.669322)
  46:      3239.97    0.877843  (  0.627318   0.694705   0.041230)
  47:      3406.28   29.759282  (  2.627823  -3.142754  -3.602350)
  48:      3487.00   97.403875  ( -8.730022  -3.849241  -2.524666)
  49:      3512.30   87.294862  ( -0.376310   6.818310  -6.376825)
  50:      3842.10   69.043227  (  6.767902  -1.569027  -4.558166)

--------------------------
THERMOCHEMISTRY AT 298.15K
--------------------------

Temperature         ... 298.15 K
Pressure            ... 1.00 atm
Total Mass          ... 100.14 AMU

Throughout the following assumptions are being made:
  (1) The electronic state is orbitally nondegenerate
  (2) There are no thermally accessible electronically excited states
  (3) Hindered rotations indicated by low frequency modes) are not
      treated as such but are treated as vibrations and this may
      case some error
  (4) All equations used are the standard statistical mechanics
      equations for an ideal gas
  (5) All vibrations are strinctly harmonic

------------
INNER ENERGY
------------

The inner energy is: U= E(el) + E(ZPE) + E(vib) + E(rot) + E(trans)
    E(el)   - is the total energy from the electronic structure calculation
              = E(kin-el) + E(nuc-el) + E(el-el) + E(nuc-nuc)
    E(ZPE)  - the the zero temperature vibrational energy from the frequency calculation
    E(vib)  - the the finite temperature correction to E(ZPE) due to population
              of excietd vibrational states
    E(rot)  - is the rotational thermal energy
    E(trans)- is the translational thermal energy

Summary of contributions to the inner energy U:
Electronic energy                ...   -326.00470272 Eh
Zero point energy                ...      0.15363823 Eh      96.41 kcal/mol
Thermal vibrational correction   ...      0.00433292 Eh       2.72 kcal/mol
Thermal rotational correction    ...      0.00141627 Eh       0.89 kcal/mol
Thermal translational correction ...      0.00141627 Eh       0.89 kcal/mol
-----------------------------------------------------------------------
Total thermal energy                   -325.84389903 Eh

Summary of corrections to the electronic energy:
(perhaps to be used in another calculation)
Total thermal correction                  0.00716546 Eh       4.50 kcal/mol
Non-thermal (ZPE) correction              0.15363823 Eh      96.41 kcal/mol
-----------------------------------------------------------------------
Total correction                          0.16080369 Eh     100.91 kcal/mol

--------
ENTHALPY
--------

The enthalpy is H = U + kB*T
                kB is Boltzmann's constant
Total free energy                 ...   -325.84389903 Eh
Thermal Enthalpy correction       ...      0.00094421 Eh       0.59 kcal/mol
-----------------------------------------------------------------------
Total Enthalpy                    ...   -325.84295482 Eh

-------
ENTROPY
-------

The entropy contributions are T*S = T*(S(el)+S(vib)+S(rot)+S(trans)
     S(el)   - electronic entropy
     S(vib)  - vibrational entropy
     S(rot)  - rotational entropy
     S(trans)- translational entropy
The entropies will be listed as mutliplied by the temperature to get
units of energy

Electronic entropy                ...      0.00000000 Eh      0.00 kcal/mol
Vibrational entropy               ...      0.00730733 Eh      4.59 kcal/mol
Rotational entropy                ...      0.01189996 Eh      7.47 kcal/mol
Translational entropy             ...      0.01887324 Eh     11.84 kcal/mol
-----------------------------------------------------------------------
Final entropy term                ...      0.03808053 Eh     23.90 kcal/mol

CAUTION: The rotational entropy is not quite correctly treated here
         because it includes a symmetry number that is not yet correctly
         implemented in ORCA!
For a nonlinear molecule the correct rotational entropy is:
    S(rot) = R*(ln(qrot/sn)+1.5)
    R    = 8.31441 J/mol/K = 1.987191683e-3 kcal/mol/K
    qrot = 199204.8589991
    sn is the rotational symmetry number. We have assumed 3 here
       if it is different for your molecule then you should correct
       the printed rotational entropy by manually evaluating the equation
       as given above

For convenience we print out the resulting values for sn=1 - 12:
 sn= 1  qrot/sn=  199204.8590 T*S(rot)=     8.12 kcal/mol T*S(tot)=    24.55 kcal/mol
 sn= 2  qrot/sn=   99602.4295 T*S(rot)=     7.71 kcal/mol T*S(tot)=    24.14 kcal/mol
 sn= 3  qrot/sn=   66401.6197 T*S(rot)=     7.47 kcal/mol T*S(tot)=    23.90 kcal/mol
 sn= 4  qrot/sn=   49801.2147 T*S(rot)=     7.30 kcal/mol T*S(tot)=    23.73 kcal/mol
 sn= 5  qrot/sn=   39840.9718 T*S(rot)=     7.16 kcal/mol T*S(tot)=    23.59 kcal/mol
 sn= 6  qrot/sn=   33200.8098 T*S(rot)=     7.06 kcal/mol T*S(tot)=    23.49 kcal/mol
 sn= 7  qrot/sn=   28457.8370 T*S(rot)=     6.97 kcal/mol T*S(tot)=    23.39 kcal/mol
 sn= 8  qrot/sn=   24900.6074 T*S(rot)=     6.89 kcal/mol T*S(tot)=    23.31 kcal/mol
 sn= 9  qrot/sn=   22133.8732 T*S(rot)=     6.82 kcal/mol T*S(tot)=    23.24 kcal/mol
 sn=10  qrot/sn=   19920.4859 T*S(rot)=     6.75 kcal/mol T*S(tot)=    23.18 kcal/mol
 sn=11  qrot/sn=   18109.5326 T*S(rot)=     6.70 kcal/mol T*S(tot)=    23.13 kcal/mol
 sn=12  qrot/sn=   16600.4049 T*S(rot)=     6.65 kcal/mol T*S(tot)=    23.07 kcal/mol

-------------------
GIBBS FREE ENTHALPY
-------------------

The Gibbs free enthalpy is G = H - T*S

Total enthalpy                    ...   -325.84295482 Eh
Total entropy correction          ...     -0.03808053 Eh    -23.90 kcal/mol
-----------------------------------------------------------------------
Final Gibbs free enthalpy         ...   -325.88103535 Eh

For completeness - the Gibbs free enthalpy minus the electronic energy
G-E(el)                           ...      0.12366736 Eh     77.60 kcal/mol

                             ****ORCA TERMINATED NORMALLY****
TOTAL RUN TIME: 0 days 0 hours 39 minutes 48 seconds 412 msec
