                         Program Version 3.0.3 - RELEASE   -
|  1> ! NORI PBE0 def2-TZVP UseSym TightOPT Freq TightSCF Grid3 FinalGrid5 XYZFile
|  2> % pal
|  3>     nprocs 8
|  4> end
|  5> %method
|  6>     SymThresh 5.0e-2
|  7> end
|  8> % geom
|  9>     MaxIter 10
| 10> end
| 11> % maxcore 2000
| 12> % output
| 13>     printlevel mini
| 14>     print[ P_Basis ] 0
| 15>     print[ P_SCFInfo ] 1
| 16>     print[ P_SCFIterInfo ] 1
| 17>     print[ P_OrbEn ] 0
| 18>     print[ P_Cartesian ] 0
| 19> end
| 20> % elprop
| 21>     Dipole false
| 22> end
| 23> *xyz 1 1
| 24>  N        1.1008146344     0.1029216475    -0.0315386248
| 25>  C        2.6116550424     0.0104809405    -0.0160616768
| 26>  C        3.0373376788    -1.4089249414    -0.3610201666
| 27>  C        2.6609042174    -1.7823907725    -1.7950342094
| 28>  C        3.0257891710    -0.6709413550    -2.7615953874
| 29>  O        2.4922180471     0.5778357096    -2.3153498193
| 30>  C        3.0692225299     0.9776319595    -1.0999477059
| 31>  H        0.7672336087     0.9603410044     0.4109669729
| 32>  H        0.6526549094    -0.6918166496     0.4252376646
| 33>  H        0.8254988384     0.1267307313    -1.0239050199
| 34>  H        2.9432985513     0.3074771847     0.9799005281
| 35>  H        4.1241646081    -1.4407133962    -0.2394437204
| 36>  H        2.6325150165    -2.1262596872     0.3593935473
| 37>  H        3.1670935295    -2.7067875705    -2.0802095373
| 38>  H        1.5882806503    -1.9952439872    -1.8758335435
| 39>  H        4.1141117912    -0.5756374749    -2.8626761768
| 40>  H        2.6056695744    -0.8440890872    -3.7514682161
| 41>  H        2.7421317324     2.0025009886    -0.9038335734
| 42>  H        4.1647558687     0.9759347555    -1.1450413353
| 43> *
| 44>
| 45>                          ****END OF INPUT****
 Total Charge           Charge          ....    1
 Multiplicity           Mult            ....    1
 Number of Electrons    NEL             ....   56
FINAL SINGLE POINT ENERGY      -327.231784088446
FINAL SINGLE POINT ENERGY      -327.231785295862

CARTESIAN COORDINATES (ANGSTROEM)
---------------------------------
  N      1.777937    0.000350   -0.633047
  C      0.507135    0.816027   -0.745221
  C     -0.593927   -0.038625   -1.354145
  C     -0.984605   -1.199228   -0.439116
  C     -1.152521   -0.730133    0.994166
  O     -0.000409   -0.000794    1.422096
  C      0.155984    1.185780    0.689920
  H      2.592623    0.588153   -0.451609
  H      1.961842   -0.558512   -1.466860
  H      1.648137   -0.624465    0.175746
  H      0.737157    1.687425   -1.360070
  H     -1.450104    0.625967   -1.502012
  H     -0.311135   -0.391567   -2.350749
  H     -1.911350   -1.653574   -0.795263
  H     -0.232106   -1.996406   -0.473530
  H     -2.036827   -0.089155    1.099418
  H     -1.255148   -1.567658    1.683076
  H      0.947030    1.766840    1.172116
  H     -0.756985    1.792980    0.691680

FINAL SINGLE POINT ENERGY      -327.231785716474
                    ***********************HURRAY********************
 Multiplicity           Mult            ....    1
 Number of Electrons    NEL             ....   56
 Basis Dimension        Dim             ....  289
FINAL SINGLE POINT ENERGY      -327.231785779390

VIBRATIONAL FREQUENCIES
-----------------------

   0:         0.00 cm**-1
   1:         0.00 cm**-1
   2:         0.00 cm**-1
   3:         0.00 cm**-1
   4:         0.00 cm**-1
   5:         0.00 cm**-1
   6:       161.02 cm**-1
   7:       220.42 cm**-1
   8:       273.03 cm**-1
   9:       323.14 cm**-1
  10:       372.67 cm**-1
  11:       436.62 cm**-1
  12:       478.95 cm**-1
  13:       520.50 cm**-1
  14:       680.85 cm**-1
  15:       793.38 cm**-1
  16:       850.25 cm**-1
  17:       870.47 cm**-1
  18:       887.78 cm**-1
  19:       920.38 cm**-1
  20:       944.30 cm**-1
  21:       991.39 cm**-1
  22:      1017.84 cm**-1
  23:      1064.85 cm**-1
  24:      1077.43 cm**-1
  25:      1104.72 cm**-1
  26:      1151.39 cm**-1
  27:      1162.16 cm**-1
  28:      1226.64 cm**-1
  29:      1248.11 cm**-1
  30:      1288.82 cm**-1
  31:      1325.05 cm**-1
  32:      1358.76 cm**-1
  33:      1363.88 cm**-1
  34:      1376.30 cm**-1
  35:      1393.85 cm**-1
  36:      1404.32 cm**-1
  37:      1412.66 cm**-1
  38:      1466.50 cm**-1
  39:      1479.65 cm**-1
  40:      1487.52 cm**-1
  41:      1490.10 cm**-1
  42:      1503.76 cm**-1
  43:      1644.18 cm**-1
  44:      1665.28 cm**-1
  45:      3032.70 cm**-1
  46:      3045.71 cm**-1
  47:      3046.05 cm**-1
  48:      3061.96 cm**-1
  49:      3104.81 cm**-1
  50:      3107.28 cm**-1
  51:      3119.72 cm**-1
  52:      3123.39 cm**-1
  53:      3147.30 cm**-1
  54:      3341.62 cm**-1
  55:      3476.57 cm**-1
  56:      3526.86 cm**-1

IR SPECTRUM
-----------

 Mode    freq (cm**-1)   T**2         TX         TY         TZ
-------------------------------------------------------------------
   6:       161.02   20.868998  (  3.174671   1.876975  -2.695816)
   7:       220.42    8.751655  (  0.486122  -1.708557  -2.365623)
   8:       273.03    1.410394  ( -0.012092   1.143337   0.320981)
   9:       323.14   27.043866  ( -4.012758   1.593051   2.898935)
  10:       372.67    6.181824  (  1.845952   0.740248   1.492085)
  11:       436.62    1.629310  (  0.964072  -0.100113  -0.830574)
  12:       478.95    4.023322  (  1.341731   0.179744  -1.480126)
  13:       520.50    3.661384  ( -0.765948   0.127895   1.748814)
  14:       680.85    5.105240  (  2.154509   0.308113   0.606958)
  15:       793.38    5.878869  ( -2.143580  -0.355648   1.075848)
  16:       850.25    5.614577  ( -1.414187  -0.924968  -1.661049)
  17:       870.47    5.118190  ( -1.131725   0.294853   1.936608)
  18:       887.78    4.027550  ( -1.920585  -0.090273  -0.575111)
  19:       920.38   14.037312  ( -3.181762   1.045636  -1.679389)
  20:       944.30    9.424390  ( -2.428595  -1.716066  -0.762518)
  21:       991.39   23.249858  ( -0.127944  -0.587407  -4.784187)
  22:      1017.84   10.021940  (  1.478970  -0.427766   2.766153)
  23:      1064.85    8.662291  ( -1.294158  -1.747504   1.983349)
  24:      1077.43   25.885635  ( -4.320175  -0.539211   2.632674)
  25:      1104.72   30.580054  ( -2.453485  -4.740181   1.446083)
  26:      1151.39   32.770758  ( -3.338792  -4.537431  -1.017322)
  27:      1162.16    6.825650  ( -1.342096  -2.132665   0.690049)
  28:      1226.64   46.278249  ( -2.928110  -6.138094   0.167990)
  29:      1248.11    7.279303  ( -1.507100  -0.565693   2.165166)
  30:      1288.82    4.900225  (  1.525958   0.243214   1.585094)
  31:      1325.05    6.449714  (  1.173524  -1.441775   1.730271)
  32:      1358.76    0.847124  (  0.573208   0.596571  -0.403312)
  33:      1363.88    3.892382  ( -1.611783  -1.010655   0.522604)
  34:      1376.30   10.505184  (  1.620323   2.723727  -0.679005)
  35:      1393.85    0.895511  (  0.266352  -0.501535   0.756987)
  36:      1404.32    7.766105  (  2.132572   0.226214  -1.779626)
  37:      1412.66    7.970744  (  2.644671  -0.824110   0.545252)
  38:      1466.50  151.914816  (-10.760457   5.715255  -1.860976)
  39:      1479.65   12.101623  ( -2.904410   1.135520   1.541629)
  40:      1487.52   38.277575  ( -2.452200   4.944258   2.796177)
  41:      1490.10   12.050640  (  3.360495   0.155656  -0.856437)
  42:      1503.76   10.921297  ( -2.984027   0.988566   1.019616)
  43:      1644.18   38.589235  (  4.181515   2.970174  -3.504602)
  44:      1665.28   34.896585  (  1.678235   2.136626   5.245469)
  45:      3032.70    4.756087  ( -1.361247  -1.462118   0.874816)
  46:      3045.71   34.799563  ( -4.693679   3.338198   1.274901)
  47:      3046.05    9.082539  ( -0.650513  -2.935675  -0.202937)
  48:      3061.96    7.772715  ( -0.682743  -0.628034   2.629097)
  49:      3104.81    7.653489  (  1.010373   1.820871   1.821281)
  50:      3107.28    5.421655  ( -2.290547   0.274149   0.316054)
  51:      3119.72    5.246262  ( -2.258244   0.099874   0.369620)
  52:      3123.39    4.298103  (  0.949841   1.682844  -0.750959)
  53:      3147.30    5.107274  (  0.075788   2.032017  -0.986122)
  54:      3341.62   65.990882  ( -1.483803  -4.140454   6.829777)
  55:      3476.57  107.232149  (  8.171787   1.790752  -6.103052)
  56:      3526.86   82.305383  (  3.493858   6.208780   5.616885)

--------------------------
THERMOCHEMISTRY AT 298.15K
--------------------------

Temperature         ... 298.15 K
Pressure            ... 1.00 atm
Total Mass          ... 102.16 AMU

Throughout the following assumptions are being made:
  (1) The electronic state is orbitally nondegenerate
  (2) There are no thermally accessible electronically excited states
  (3) Hindered rotations indicated by low frequency modes) are not
      treated as such but are treated as vibrations and this may
      case some error
  (4) All equations used are the standard statistical mechanics
      equations for an ideal gas
  (5) All vibrations are strinctly harmonic

------------
INNER ENERGY
------------

The inner energy is: U= E(el) + E(ZPE) + E(vib) + E(rot) + E(trans)
    E(el)   - is the total energy from the electronic structure calculation
              = E(kin-el) + E(nuc-el) + E(el-el) + E(nuc-nuc)
    E(ZPE)  - the the zero temperature vibrational energy from the frequency calculation
    E(vib)  - the the finite temperature correction to E(ZPE) due to population
              of excietd vibrational states
    E(rot)  - is the rotational thermal energy
    E(trans)- is the translational thermal energy

Summary of contributions to the inner energy U:
Electronic energy                ...   -327.23178578 Eh
Zero point energy                ...      0.17900215 Eh     112.33 kcal/mol
Thermal vibrational correction   ...      0.00386368 Eh       2.42 kcal/mol
Thermal rotational correction    ...      0.00141627 Eh       0.89 kcal/mol
Thermal translational correction ...      0.00141627 Eh       0.89 kcal/mol
-----------------------------------------------------------------------
Total thermal energy                   -327.04608741 Eh

Summary of corrections to the electronic energy:
(perhaps to be used in another calculation)
Total thermal correction                  0.00669622 Eh       4.20 kcal/mol
Non-thermal (ZPE) correction              0.17900215 Eh     112.33 kcal/mol
-----------------------------------------------------------------------
Total correction                          0.18569837 Eh     116.53 kcal/mol

--------
ENTHALPY
--------

The enthalpy is H = U + kB*T
                kB is Boltzmann's constant
Total free energy                 ...   -327.04608741 Eh
Thermal Enthalpy correction       ...      0.00094421 Eh       0.59 kcal/mol
-----------------------------------------------------------------------
Total Enthalpy                    ...   -327.04514320 Eh

-------
ENTROPY
-------

The entropy contributions are T*S = T*(S(el)+S(vib)+S(rot)+S(trans)
     S(el)   - electronic entropy
     S(vib)  - vibrational entropy
     S(rot)  - rotational entropy
     S(trans)- translational entropy
The entropies will be listed as mutliplied by the temperature to get
units of energy

Electronic entropy                ...      0.00000000 Eh      0.00 kcal/mol
Vibrational entropy               ...      0.00601187 Eh      3.77 kcal/mol
Rotational entropy                ...      0.01185092 Eh      7.44 kcal/mol
Translational entropy             ...      0.01890147 Eh     11.86 kcal/mol
-----------------------------------------------------------------------
Final entropy term                ...      0.03676426 Eh     23.07 kcal/mol

CAUTION: The rotational entropy is not quite correctly treated here
         because it includes a symmetry number that is not yet correctly
         implemented in ORCA!
For a nonlinear molecule the correct rotational entropy is:
    S(rot) = R*(ln(qrot/sn)+1.5)
    R    = 8.31441 J/mol/K = 1.987191683e-3 kcal/mol/K
    qrot = 189122.3272035
    sn is the rotational symmetry number. We have assumed 3 here
       if it is different for your molecule then you should correct
       the printed rotational entropy by manually evaluating the equation
       as given above

For convenience we print out the resulting values for sn=1 - 12:
 sn= 1  qrot/sn=  189122.3272 T*S(rot)=     8.09 kcal/mol T*S(tot)=    23.72 kcal/mol
 sn= 2  qrot/sn=   94561.1636 T*S(rot)=     7.68 kcal/mol T*S(tot)=    23.31 kcal/mol
 sn= 3  qrot/sn=   63040.7757 T*S(rot)=     7.44 kcal/mol T*S(tot)=    23.07 kcal/mol
 sn= 4  qrot/sn=   47280.5818 T*S(rot)=     7.27 kcal/mol T*S(tot)=    22.90 kcal/mol
 sn= 5  qrot/sn=   37824.4654 T*S(rot)=     7.13 kcal/mol T*S(tot)=    22.77 kcal/mol
 sn= 6  qrot/sn=   31520.3879 T*S(rot)=     7.03 kcal/mol T*S(tot)=    22.66 kcal/mol
 sn= 7  qrot/sn=   27017.4753 T*S(rot)=     6.93 kcal/mol T*S(tot)=    22.57 kcal/mol
 sn= 8  qrot/sn=   23640.2909 T*S(rot)=     6.86 kcal/mol T*S(tot)=    22.49 kcal/mol
 sn= 9  qrot/sn=   21013.5919 T*S(rot)=     6.79 kcal/mol T*S(tot)=    22.42 kcal/mol
 sn=10  qrot/sn=   18912.2327 T*S(rot)=     6.72 kcal/mol T*S(tot)=    22.36 kcal/mol
 sn=11  qrot/sn=   17192.9388 T*S(rot)=     6.67 kcal/mol T*S(tot)=    22.30 kcal/mol
 sn=12  qrot/sn=   15760.1939 T*S(rot)=     6.62 kcal/mol T*S(tot)=    22.25 kcal/mol

-------------------
GIBBS FREE ENTHALPY
-------------------

The Gibbs free enthalpy is G = H - T*S

Total enthalpy                    ...   -327.04514320 Eh
Total entropy correction          ...     -0.03676426 Eh    -23.07 kcal/mol
-----------------------------------------------------------------------
Final Gibbs free enthalpy         ...   -327.08190746 Eh

For completeness - the Gibbs free enthalpy minus the electronic energy
G-E(el)                           ...      0.14987832 Eh     94.05 kcal/mol

                             ****ORCA TERMINATED NORMALLY****
TOTAL RUN TIME: 0 days 0 hours 52 minutes 39 seconds 907 msec
