                         Program Version 3.0.3 - RELEASE   -
|  1> ! NORI PBE0 def2-TZVP UseSym TightOPT Freq TightSCF Grid3 FinalGrid5 XYZFile
|  2> % pal
|  3>     nprocs 8
|  4> end
|  5> %method
|  6>     SymThresh 5.0e-2
|  7> end
|  8> % geom
|  9>     MaxIter 10
| 10> end
| 11> % maxcore 2000
| 12> % output
| 13>     printlevel mini
| 14>     print[ P_Basis ] 0
| 15>     print[ P_SCFInfo ] 1
| 16>     print[ P_SCFIterInfo ] 1
| 17>     print[ P_OrbEn ] 0
| 18>     print[ P_Cartesian ] 0
| 19> end
| 20> % elprop
| 21>     Dipole false
| 22> end
| 23> *xyz 1 1
| 24>  N        1.0493985373     0.1143004096    -0.0650040008
| 25>  C        2.5206611095    -0.1509353370     0.0651480934
| 26>  C        3.0995956549    -1.3287778051    -0.6327119219
| 27>  C        4.0952494363    -0.8687052884    -1.3996067585
| 28>  N        4.1930457802     0.5227482294    -1.3754721171
| 29>  C        3.1972022985     1.0534171825    -0.6208621517
| 30>  O        2.8009971209     2.1838228229    -0.5230330803
| 31>  H        0.9254071552     1.1364222302     0.0295091232
| 32>  H        0.4900283205    -0.3652647388     0.6410883481
| 33>  H        0.7085614400    -0.1639010383    -0.9884565622
| 34>  H        2.7459770293    -0.1271973171     1.1364325569
| 35>  H        2.8925801485    -2.3658130698    -0.4189748955
| 36>  H        4.8071483904    -1.4398163857    -1.9786630918
| 37>  H        4.7827275785     1.0747001056    -1.9797835418
| 38> *
| 39>
| 40>                          ****END OF INPUT****
 Total Charge           Charge          ....    1
 Multiplicity           Mult            ....    1
 Number of Electrons    NEL             ....   52
FINAL SINGLE POINT ENERGY      -340.858068846730

CARTESIAN COORDINATES (ANGSTROEM)
---------------------------------
  N      1.975797    0.000110    0.016488
  C      0.632427    0.565209   -0.341445
  C     -0.023266    0.111417   -1.595947
  C     -1.233145   -0.345785   -1.252314
  N     -1.435643   -0.345101    0.128079
  C     -0.311769    0.063721    0.770270
  O     -0.000114   -0.000110    1.929222
  H      2.035972    0.016060    1.048438
  H      2.753373    0.529062   -0.380159
  H      2.057378   -0.971644   -0.292312
  H      0.725443    1.653696   -0.269488
  H      0.322661    0.292814   -2.601540
  H     -2.031886   -0.668963   -1.904699
  H     -2.219353   -0.768927    0.601001

FINAL SINGLE POINT ENERGY      -340.858069069196
                    ***********************HURRAY********************
 Multiplicity           Mult            ....    1
 Number of Electrons    NEL             ....   52
 Basis Dimension        Dim             ....  259
FINAL SINGLE POINT ENERGY      -340.858069156800

VIBRATIONAL FREQUENCIES
-----------------------

   0:         0.00 cm**-1
   1:         0.00 cm**-1
   2:         0.00 cm**-1
   3:         0.00 cm**-1
   4:         0.00 cm**-1
   5:         0.00 cm**-1
   6:       132.29 cm**-1
   7:       233.11 cm**-1
   8:       263.12 cm**-1
   9:       303.30 cm**-1
  10:       495.79 cm**-1
  11:       551.78 cm**-1
  12:       575.72 cm**-1
  13:       639.31 cm**-1
  14:       720.30 cm**-1
  15:       748.24 cm**-1
  16:       810.86 cm**-1
  17:       838.17 cm**-1
  18:       951.42 cm**-1
  19:       969.11 cm**-1
  20:      1053.84 cm**-1
  21:      1077.38 cm**-1
  22:      1097.12 cm**-1
  23:      1114.51 cm**-1
  24:      1152.92 cm**-1
  25:      1236.30 cm**-1
  26:      1314.99 cm**-1
  27:      1366.18 cm**-1
  28:      1399.59 cm**-1
  29:      1434.20 cm**-1
  30:      1485.05 cm**-1
  31:      1636.30 cm**-1
  32:      1659.85 cm**-1
  33:      1665.95 cm**-1
  34:      1868.39 cm**-1
  35:      3083.92 cm**-1
  36:      3258.12 cm**-1
  37:      3276.57 cm**-1
  38:      3303.42 cm**-1
  39:      3459.78 cm**-1
  40:      3517.92 cm**-1
  41:      3641.66 cm**-1

IR SPECTRUM
-----------

 Mode    freq (cm**-1)   T**2         TX         TY         TZ
-------------------------------------------------------------------
   6:       132.29   16.154232  ( -1.040824   3.486420   1.707569)
   7:       233.11   25.048530  ( -4.299569  -1.916094   1.700241)
   8:       263.12   13.263617  ( -2.898601  -0.540849   2.137572)
   9:       303.30    7.087849  (  0.712096  -2.433589  -0.811426)
  10:       495.79   24.608521  ( -4.370581   1.303372  -1.951350)
  11:       551.78   45.703637  ( -3.996127   5.110048  -1.903159)
  12:       575.72   29.618556  ( -3.053330   4.416192   0.890493)
  13:       639.31   35.614757  ( -2.908356   4.493536   2.639006)
  14:       720.30   76.223705  ( -4.525963   7.461618  -0.252240)
  15:       748.24   10.993494  ( -1.589105   1.882627   2.218999)
  16:       810.86   22.998291  (  3.684262   1.182575  -2.833023)
  17:       838.17    6.580008  ( -2.499002  -0.465860   0.343472)
  18:       951.42    1.768213  (  1.029335   0.538748   0.646863)
  19:       969.11    6.618484  ( -0.703885  -1.675661   1.820767)
  20:      1053.84    9.918624  (  1.938133  -0.991736   2.275681)
  21:      1077.38    7.739116  (  0.182128   2.546044  -1.106168)
  22:      1097.12   51.478961  (  5.290744   0.629846  -4.805235)
  23:      1114.51   10.668406  ( -1.766694   2.370354   1.388747)
  24:      1152.92   16.637960  (  1.214036   0.379952  -3.875528)
  25:      1236.30   27.758098  ( -2.321417  -1.693363  -4.416066)
  26:      1314.99   46.161213  ( -5.969362  -2.085516  -2.485671)
  27:      1366.18   27.550117  (  4.170102   2.499648   1.977910)
  28:      1399.59   22.184619  (  0.839369  -0.460074  -4.611769)
  29:      1434.20   83.129787  (  2.015645   0.382779   8.883718)
  30:      1485.05  182.986199  (-12.080965   4.158460  -4.443386)
  31:      1636.30   51.745159  ( -0.800151   5.288233   4.810355)
  32:      1659.85   30.416640  ( -2.938125  -1.375639   4.460009)
  33:      1665.95   57.240686  (  6.396439   3.133232  -2.551296)
  34:      1868.39  378.280400  (  4.753112   0.215071  18.858475)
  35:      3083.92    3.353522  (  0.351334   1.526434  -0.948728)
  36:      3258.12    8.551605  (  2.626661   1.047875  -0.744457)
  37:      3276.57    8.621256  (  0.148019  -0.144591   2.928897)
  38:      3303.42   70.278141  ( -0.010744   0.441414  -8.371570)
  39:      3459.78   90.368396  ( -5.872099   4.461835   5.998239)
  40:      3517.92  118.756426  (  6.733550   8.321239  -2.042722)
  41:      3641.66  152.018124  ( 10.619706   4.810354  -4.012539)

--------------------------
THERMOCHEMISTRY AT 298.15K
--------------------------

Temperature         ... 298.15 K
Pressure            ... 1.00 atm
Total Mass          ... 99.11 AMU

Throughout the following assumptions are being made:
  (1) The electronic state is orbitally nondegenerate
  (2) There are no thermally accessible electronically excited states
  (3) Hindered rotations indicated by low frequency modes) are not
      treated as such but are treated as vibrations and this may
      case some error
  (4) All equations used are the standard statistical mechanics
      equations for an ideal gas
  (5) All vibrations are strinctly harmonic

------------
INNER ENERGY
------------

The inner energy is: U= E(el) + E(ZPE) + E(vib) + E(rot) + E(trans)
    E(el)   - is the total energy from the electronic structure calculation
              = E(kin-el) + E(nuc-el) + E(el-el) + E(nuc-nuc)
    E(ZPE)  - the the zero temperature vibrational energy from the frequency calculation
    E(vib)  - the the finite temperature correction to E(ZPE) due to population
              of excietd vibrational states
    E(rot)  - is the rotational thermal energy
    E(trans)- is the translational thermal energy

Summary of contributions to the inner energy U:
Electronic energy                ...   -340.85806916 Eh
Zero point energy                ...      0.11923131 Eh      74.82 kcal/mol
Thermal vibrational correction   ...      0.00341545 Eh       2.14 kcal/mol
Thermal rotational correction    ...      0.00141627 Eh       0.89 kcal/mol
Thermal translational correction ...      0.00141627 Eh       0.89 kcal/mol
-----------------------------------------------------------------------
Total thermal energy                   -340.73258985 Eh

Summary of corrections to the electronic energy:
(perhaps to be used in another calculation)
Total thermal correction                  0.00624799 Eh       3.92 kcal/mol
Non-thermal (ZPE) correction              0.11923131 Eh      74.82 kcal/mol
-----------------------------------------------------------------------
Total correction                          0.12547931 Eh      78.74 kcal/mol

--------
ENTHALPY
--------

The enthalpy is H = U + kB*T
                kB is Boltzmann's constant
Total free energy                 ...   -340.73258985 Eh
Thermal Enthalpy correction       ...      0.00094421 Eh       0.59 kcal/mol
-----------------------------------------------------------------------
Total Enthalpy                    ...   -340.73164564 Eh

-------
ENTROPY
-------

The entropy contributions are T*S = T*(S(el)+S(vib)+S(rot)+S(trans)
     S(el)   - electronic entropy
     S(vib)  - vibrational entropy
     S(rot)  - rotational entropy
     S(trans)- translational entropy
The entropies will be listed as mutliplied by the temperature to get
units of energy

Electronic entropy                ...      0.00000000 Eh      0.00 kcal/mol
Vibrational entropy               ...      0.00546144 Eh      3.43 kcal/mol
Rotational entropy                ...      0.01178823 Eh      7.40 kcal/mol
Translational entropy             ...      0.01885862 Eh     11.83 kcal/mol
-----------------------------------------------------------------------
Final entropy term                ...      0.03610829 Eh     22.66 kcal/mol

CAUTION: The rotational entropy is not quite correctly treated here
         because it includes a symmetry number that is not yet correctly
         implemented in ORCA!
For a nonlinear molecule the correct rotational entropy is:
    S(rot) = R*(ln(qrot/sn)+1.5)
    R    = 8.31441 J/mol/K = 1.987191683e-3 kcal/mol/K
    qrot = 176972.2644294
    sn is the rotational symmetry number. We have assumed 3 here
       if it is different for your molecule then you should correct
       the printed rotational entropy by manually evaluating the equation
       as given above

For convenience we print out the resulting values for sn=1 - 12:
 sn= 1  qrot/sn=  176972.2644 T*S(rot)=     8.05 kcal/mol T*S(tot)=    23.31 kcal/mol
 sn= 2  qrot/sn=   88486.1322 T*S(rot)=     7.64 kcal/mol T*S(tot)=    22.90 kcal/mol
 sn= 3  qrot/sn=   58990.7548 T*S(rot)=     7.40 kcal/mol T*S(tot)=    22.66 kcal/mol
 sn= 4  qrot/sn=   44243.0661 T*S(rot)=     7.23 kcal/mol T*S(tot)=    22.49 kcal/mol
 sn= 5  qrot/sn=   35394.4529 T*S(rot)=     7.09 kcal/mol T*S(tot)=    22.36 kcal/mol
 sn= 6  qrot/sn=   29495.3774 T*S(rot)=     6.99 kcal/mol T*S(tot)=    22.25 kcal/mol
 sn= 7  qrot/sn=   25281.7521 T*S(rot)=     6.90 kcal/mol T*S(tot)=    22.16 kcal/mol
 sn= 8  qrot/sn=   22121.5331 T*S(rot)=     6.82 kcal/mol T*S(tot)=    22.08 kcal/mol
 sn= 9  qrot/sn=   19663.5849 T*S(rot)=     6.75 kcal/mol T*S(tot)=    22.01 kcal/mol
 sn=10  qrot/sn=   17697.2264 T*S(rot)=     6.68 kcal/mol T*S(tot)=    21.94 kcal/mol
 sn=11  qrot/sn=   16088.3877 T*S(rot)=     6.63 kcal/mol T*S(tot)=    21.89 kcal/mol
 sn=12  qrot/sn=   14747.6887 T*S(rot)=     6.58 kcal/mol T*S(tot)=    21.84 kcal/mol

-------------------
GIBBS FREE ENTHALPY
-------------------

The Gibbs free enthalpy is G = H - T*S

Total enthalpy                    ...   -340.73164564 Eh
Total entropy correction          ...     -0.03610829 Eh    -22.66 kcal/mol
-----------------------------------------------------------------------
Final Gibbs free enthalpy         ...   -340.76775393 Eh

For completeness - the Gibbs free enthalpy minus the electronic energy
G-E(el)                           ...      0.09031522 Eh     56.67 kcal/mol

                             ****ORCA TERMINATED NORMALLY****
TOTAL RUN TIME: 0 days 0 hours 26 minutes 24 seconds 333 msec
