                         Program Version 3.0.3 - RELEASE   -
|  1> ! NORI PBE0 def2-TZVP UseSym TightOPT Freq TightSCF Grid3 FinalGrid5 XYZFile
|  2> % pal
|  3>     nprocs 8
|  4> end
|  5> %method
|  6>     SymThresh 5.0e-2
|  7> end
|  8> % geom
|  9>     MaxIter 10
| 10> end
| 11> % maxcore 2000
| 12> % output
| 13>     printlevel mini
| 14>     print[ P_Basis ] 0
| 15>     print[ P_SCFInfo ] 1
| 16>     print[ P_SCFIterInfo ] 1
| 17>     print[ P_OrbEn ] 0
| 18>     print[ P_Cartesian ] 0
| 19> end
| 20> % elprop
| 21>     Dipole false
| 22> end
| 23> *xyz 1 1
| 24>  N        0.9852701971     0.1393786984    -0.0795811325
| 25>  C        2.4720210524     0.2113780352    -0.0653044306
| 26>  C        3.1652974420     1.3164092659     0.7027374167
| 27>  C        4.4560080993     0.6074766027     1.1569739376
| 28>  N        4.0415788013    -0.7823235941     1.2862885428
| 29>  C        2.8931618107    -1.0617635669     0.6749344347
| 30>  O        2.1935408414    -2.0527984622     0.6660817643
| 31>  H        0.5573142714     0.5115727745    -0.9261755655
| 32>  H        0.5663903408     0.6045152662     0.7277152854
| 33>  H        0.7995724506    -0.8885940809     0.0063204788
| 34>  H        2.8068626379     0.1426461168    -1.1032928888
| 35>  H        2.5782863314     1.5957155771     1.5839099064
| 36>  H        3.3649975707     2.2143078227     0.1204655141
| 37>  H        4.8169228914     0.9946844152     2.1091445337
| 38>  H        5.2541610027     0.7144145835     0.4168961497
| 39>  H        4.5604942587    -1.4774194541     1.8010560532
| 40> *
| 41>
| 42>                          ****END OF INPUT****
 Total Charge           Charge          ....    1
 Multiplicity           Mult            ....    1
 Number of Electrons    NEL             ....   54
FINAL SINGLE POINT ENERGY      -342.093323737538

CARTESIAN COORDINATES (ANGSTROEM)
---------------------------------
  N      1.999765   -0.000175    0.242516
  C      0.699834    0.453555   -0.323746
  C      0.154038   -0.199590   -1.575540
  C     -1.364449   -0.110629   -1.327668
  N     -1.466298   -0.167837    0.123717
  C     -0.320304    0.076097    0.754786
  O      0.000285    0.000931    1.922265
  H      2.788577    0.602672    0.012735
  H      2.230470   -0.956445   -0.032922
  H      1.819806    0.005022    1.275136
  H      0.745330    1.542712   -0.399751
  H      0.451059   -1.252535   -1.617300
  H      0.454483    0.282588   -2.504249
  H     -1.899203   -0.941401   -1.786970
  H     -1.780220    0.823210   -1.715989
  H     -2.317868   -0.385324    0.618784

FINAL SINGLE POINT ENERGY      -342.093324218145
                    ***********************HURRAY********************
 Multiplicity           Mult            ....    1
 Number of Electrons    NEL             ....   54
 Basis Dimension        Dim             ....  271
FINAL SINGLE POINT ENERGY      -342.093324350118

VIBRATIONAL FREQUENCIES
-----------------------

   0:         0.00 cm**-1
   1:         0.00 cm**-1
   2:         0.00 cm**-1
   3:         0.00 cm**-1
   4:         0.00 cm**-1
   5:         0.00 cm**-1
   6:       144.07 cm**-1
   7:       213.73 cm**-1
   8:       274.18 cm**-1
   9:       303.36 cm**-1
  10:       378.10 cm**-1
  11:       495.96 cm**-1
  12:       578.49 cm**-1
  13:       602.78 cm**-1
  14:       693.29 cm**-1
  15:       727.04 cm**-1
  16:       815.25 cm**-1
  17:       871.03 cm**-1
  18:       941.74 cm**-1
  19:       978.79 cm**-1
  20:      1010.42 cm**-1
  21:      1069.74 cm**-1
  22:      1086.35 cm**-1
  23:      1111.51 cm**-1
  24:      1165.59 cm**-1
  25:      1219.03 cm**-1
  26:      1247.96 cm**-1
  27:      1296.14 cm**-1
  28:      1322.04 cm**-1
  29:      1338.69 cm**-1
  30:      1385.61 cm**-1
  31:      1411.66 cm**-1
  32:      1464.31 cm**-1
  33:      1468.05 cm**-1
  34:      1493.84 cm**-1
  35:      1527.50 cm**-1
  36:      1633.51 cm**-1
  37:      1660.67 cm**-1
  38:      1851.60 cm**-1
  39:      3065.45 cm**-1
  40:      3075.86 cm**-1
  41:      3091.82 cm**-1
  42:      3106.07 cm**-1
  43:      3142.18 cm**-1
  44:      3157.93 cm**-1
  45:      3468.51 cm**-1
  46:      3536.66 cm**-1
  47:      3637.61 cm**-1

IR SPECTRUM
-----------

 Mode    freq (cm**-1)   T**2         TX         TY         TZ
-------------------------------------------------------------------
   6:       144.07   10.789398  (  1.037738  -2.982888  -0.902706)
   7:       213.73    2.610677  ( -0.875560  -1.245634   0.540804)
   8:       274.18   49.794169  (  6.382703   0.686068  -2.929946)
   9:       303.36   18.386377  (  3.553920   0.336860  -2.375406)
  10:       378.10    8.623283  (  1.748512   2.247289   0.718109)
  11:       495.96   29.084343  (  4.992080  -1.694029   1.137429)
  12:       578.49   37.031345  ( -0.327195   5.679614   2.160157)
  13:       602.78   63.656088  (  2.346625  -7.597684   0.651642)
  14:       693.29    9.258435  (  0.783554   2.283142   1.852496)
  15:       727.04   10.202042  (  0.229248  -2.737133   1.630212)
  16:       815.25   13.597700  ( -3.239779  -1.659508   0.589543)
  17:       871.03    2.157626  (  1.051957  -0.578349  -0.846478)
  18:       941.74    7.552257  ( -1.588213  -0.696432   2.131858)
  19:       978.79    3.287452  (  1.217941  -0.261345  -1.317487)
  20:      1010.42    3.965647  ( -0.058704   1.845681   0.745427)
  21:      1069.74   17.394450  (  2.459815   0.201602  -3.362011)
  22:      1086.35   28.597128  ( -4.901811   0.052981   2.136954)
  23:      1111.51   16.366208  (  2.426239   1.742520  -2.728223)
  24:      1165.59    5.701853  ( -1.029001   1.649852   1.386001)
  25:      1219.03    0.579748  (  0.628735   0.004798  -0.429439)
  26:      1247.96    1.441872  (  0.880160   0.257770  -0.775077)
  27:      1296.14   19.989073  ( -4.350917  -0.725087  -0.729962)
  28:      1322.04    3.710355  ( -1.758554   0.067731   0.783107)
  29:      1338.69   51.201154  ( -5.731830  -0.960437  -4.174307)
  30:      1385.61   12.937288  ( -3.000365  -1.410318   1.395027)
  31:      1411.66   12.595009  ( -1.860096  -0.710995  -2.937608)
  32:      1464.31  234.609894  (-12.939607   2.922335  -7.657443)
  33:      1468.05   31.723056  ( -4.928630  -1.541514  -2.248420)
  34:      1493.84   31.171297  (  5.402931  -1.270132  -0.605305)
  35:      1527.50   11.242372  (  3.331167   0.001867   0.381696)
  36:      1633.51   48.018240  (  1.102438  -5.643074  -3.867634)
  37:      1660.67   34.650701  ( -4.160635  -3.264448   2.585188)
  38:      1851.60  407.436105  ( -8.209738  -0.375713 -18.436245)
  39:      3065.45    2.047403  (  0.862180  -1.007807  -0.537004)
  40:      3075.86   15.312447  (  2.504309  -1.975210   2.267031)
  41:      3091.82  172.425091  ( -7.080907   0.042976  11.058209)
  42:      3106.07   23.920797  (  2.551702   0.350831  -4.157708)
  43:      3142.18    1.350991  (  0.200687   0.943309   0.648756)
  44:      3157.93    1.260376  (  0.123015  -0.597729   0.942318)
  45:      3468.51   82.873798  ( -7.673069   3.556417   3.368932)
  46:      3536.66  110.410955  ( -6.163487  -8.495804   0.493660)
  47:      3637.61  122.769606  (-10.384402  -2.441998   2.995069)

--------------------------
THERMOCHEMISTRY AT 298.15K
--------------------------

Temperature         ... 298.15 K
Pressure            ... 1.00 atm
Total Mass          ... 101.13 AMU

Throughout the following assumptions are being made:
  (1) The electronic state is orbitally nondegenerate
  (2) There are no thermally accessible electronically excited states
  (3) Hindered rotations indicated by low frequency modes) are not
      treated as such but are treated as vibrations and this may
      case some error
  (4) All equations used are the standard statistical mechanics
      equations for an ideal gas
  (5) All vibrations are strinctly harmonic

------------
INNER ENERGY
------------

The inner energy is: U= E(el) + E(ZPE) + E(vib) + E(rot) + E(trans)
    E(el)   - is the total energy from the electronic structure calculation
              = E(kin-el) + E(nuc-el) + E(el-el) + E(nuc-nuc)
    E(ZPE)  - the the zero temperature vibrational energy from the frequency calculation
    E(vib)  - the the finite temperature correction to E(ZPE) due to population
              of excietd vibrational states
    E(rot)  - is the rotational thermal energy
    E(trans)- is the translational thermal energy

Summary of contributions to the inner energy U:
Electronic energy                ...   -342.09332435 Eh
Zero point energy                ...      0.14367065 Eh      90.15 kcal/mol
Thermal vibrational correction   ...      0.00362541 Eh       2.27 kcal/mol
Thermal rotational correction    ...      0.00141627 Eh       0.89 kcal/mol
Thermal translational correction ...      0.00141627 Eh       0.89 kcal/mol
-----------------------------------------------------------------------
Total thermal energy                   -341.94319575 Eh

Summary of corrections to the electronic energy:
(perhaps to be used in another calculation)
Total thermal correction                  0.00645795 Eh       4.05 kcal/mol
Non-thermal (ZPE) correction              0.14367065 Eh      90.15 kcal/mol
-----------------------------------------------------------------------
Total correction                          0.15012860 Eh      94.21 kcal/mol

--------
ENTHALPY
--------

The enthalpy is H = U + kB*T
                kB is Boltzmann's constant
Total free energy                 ...   -341.94319575 Eh
Thermal Enthalpy correction       ...      0.00094421 Eh       0.59 kcal/mol
-----------------------------------------------------------------------
Total Enthalpy                    ...   -341.94225154 Eh

-------
ENTROPY
-------

The entropy contributions are T*S = T*(S(el)+S(vib)+S(rot)+S(trans)
     S(el)   - electronic entropy
     S(vib)  - vibrational entropy
     S(rot)  - rotational entropy
     S(trans)- translational entropy
The entropies will be listed as mutliplied by the temperature to get
units of energy

Electronic entropy                ...      0.00000000 Eh      0.00 kcal/mol
Vibrational entropy               ...      0.00575931 Eh      3.61 kcal/mol
Rotational entropy                ...      0.01186430 Eh      7.44 kcal/mol
Translational entropy             ...      0.01888714 Eh     11.85 kcal/mol
-----------------------------------------------------------------------
Final entropy term                ...      0.03651076 Eh     22.91 kcal/mol

CAUTION: The rotational entropy is not quite correctly treated here
         because it includes a symmetry number that is not yet correctly
         implemented in ORCA!
For a nonlinear molecule the correct rotational entropy is:
    S(rot) = R*(ln(qrot/sn)+1.5)
    R    = 8.31441 J/mol/K = 1.987191683e-3 kcal/mol/K
    qrot = 191822.0271922
    sn is the rotational symmetry number. We have assumed 3 here
       if it is different for your molecule then you should correct
       the printed rotational entropy by manually evaluating the equation
       as given above

For convenience we print out the resulting values for sn=1 - 12:
 sn= 1  qrot/sn=  191822.0272 T*S(rot)=     8.10 kcal/mol T*S(tot)=    23.56 kcal/mol
 sn= 2  qrot/sn=   95911.0136 T*S(rot)=     7.69 kcal/mol T*S(tot)=    23.15 kcal/mol
 sn= 3  qrot/sn=   63940.6757 T*S(rot)=     7.44 kcal/mol T*S(tot)=    22.91 kcal/mol
 sn= 4  qrot/sn=   47955.5068 T*S(rot)=     7.27 kcal/mol T*S(tot)=    22.74 kcal/mol
 sn= 5  qrot/sn=   38364.4054 T*S(rot)=     7.14 kcal/mol T*S(tot)=    22.61 kcal/mol
 sn= 6  qrot/sn=   31970.3379 T*S(rot)=     7.03 kcal/mol T*S(tot)=    22.50 kcal/mol
 sn= 7  qrot/sn=   27403.1467 T*S(rot)=     6.94 kcal/mol T*S(tot)=    22.41 kcal/mol
 sn= 8  qrot/sn=   23977.7534 T*S(rot)=     6.86 kcal/mol T*S(tot)=    22.33 kcal/mol
 sn= 9  qrot/sn=   21313.5586 T*S(rot)=     6.79 kcal/mol T*S(tot)=    22.26 kcal/mol
 sn=10  qrot/sn=   19182.2027 T*S(rot)=     6.73 kcal/mol T*S(tot)=    22.20 kcal/mol
 sn=11  qrot/sn=   17438.3661 T*S(rot)=     6.68 kcal/mol T*S(tot)=    22.14 kcal/mol
 sn=12  qrot/sn=   15985.1689 T*S(rot)=     6.62 kcal/mol T*S(tot)=    22.09 kcal/mol

-------------------
GIBBS FREE ENTHALPY
-------------------

The Gibbs free enthalpy is G = H - T*S

Total enthalpy                    ...   -341.94225154 Eh
Total entropy correction          ...     -0.03651076 Eh    -22.91 kcal/mol
-----------------------------------------------------------------------
Final Gibbs free enthalpy         ...   -341.97876230 Eh

For completeness - the Gibbs free enthalpy minus the electronic energy
G-E(el)                           ...      0.11456205 Eh     71.89 kcal/mol

                             ****ORCA TERMINATED NORMALLY****
TOTAL RUN TIME: 0 days 0 hours 33 minutes 15 seconds 433 msec
