                         Program Version 3.0.3 - RELEASE   -
|  1> ! NORI PBE0 def2-TZVP UseSym TightOPT Freq TightSCF Grid3 FinalGrid5 XYZFile
|  2> % pal
|  3>     nprocs 8
|  4> end
|  5> %method
|  6>     SymThresh 5.0e-2
|  7> end
|  8> % geom
|  9>     MaxIter 10
| 10> end
| 11> % maxcore 2000
| 12> % output
| 13>     printlevel mini
| 14>     print[ P_Basis ] 0
| 15>     print[ P_SCFInfo ] 1
| 16>     print[ P_SCFIterInfo ] 1
| 17>     print[ P_OrbEn ] 0
| 18>     print[ P_Cartesian ] 0
| 19> end
| 20> % elprop
| 21>     Dipole false
| 22> end
| 23> *xyz 1 1
| 24>  N        0.8929364898    -0.2039288244    -0.1963352769
| 25>  C        2.4195101183    -0.0947658020     0.0110196945
| 26>  C        3.1014954773    -1.3132315575    -0.4939488905
| 27>  C        3.7973291730    -0.9499271257    -1.5734082557
| 28>  O        3.7177621653     0.3648263643    -1.8821809060
| 29>  C        2.9690181131     0.9746778848    -0.9006041219
| 30>  C        2.8132015998     2.2850015034    -0.8318483230
| 31>  H        0.4261000329     0.6854005107    -0.0016044594
| 32>  H        0.4891125375    -0.9252582677     0.4056179544
| 33>  H        0.7001867638    -0.4599992215    -1.1676192736
| 34>  H        2.5360530668     0.1275997057     1.0734540697
| 35>  H        3.0745797099    -2.2941197516    -0.0460417237
| 36>  H        4.4260360943    -1.5361049078    -2.2286567914
| 37>  H        3.2558619412     2.9400306252    -1.5710205550
| 38>  H        2.2605067171     2.7351988640    -0.0169131414
| 39> *
| 40>
| 41>                          ****END OF INPUT****
 Total Charge           Charge          ....    1
 Multiplicity           Mult            ....    1
 Number of Electrons    NEL             ....   52
FINAL SINGLE POINT ENERGY      -324.773089285597

CARTESIAN COORDINATES (ANGSTROEM)
---------------------------------
  N      0.949273   -0.000202   -1.765323
  C     -0.307399   -0.153501   -0.880173
  C     -0.329112   -1.490747   -0.235199
  C     -0.132309   -1.295725    1.070509
  O      0.000182    0.000056    1.435675
  C     -0.192513    0.768028    0.309181
  C     -0.262964    2.086973    0.347670
  H      1.061278    0.963848   -2.088878
  H      0.904623   -0.616677   -2.580053
  H      1.778844   -0.253747   -1.223369
  H     -1.140680    0.083759   -1.544238
  H     -0.514080   -2.434338   -0.724019
  H     -0.078545   -2.007230    1.882292
  H     -0.145702    2.625881    1.278915
  H     -0.467027    2.657328   -0.549597

FINAL SINGLE POINT ENERGY      -324.773089545870
                    ***********************HURRAY********************
 Multiplicity           Mult            ....    1
 Number of Electrons    NEL             ....   52
 Basis Dimension        Dim             ....  265
FINAL SINGLE POINT ENERGY      -324.773089625769

VIBRATIONAL FREQUENCIES
-----------------------

   0:         0.00 cm**-1
   1:         0.00 cm**-1
   2:         0.00 cm**-1
   3:         0.00 cm**-1
   4:         0.00 cm**-1
   5:         0.00 cm**-1
   6:       109.54 cm**-1
   7:       187.06 cm**-1
   8:       233.67 cm**-1
   9:       301.71 cm**-1
  10:       392.14 cm**-1
  11:       525.30 cm**-1
  12:       606.30 cm**-1
  13:       673.67 cm**-1
  14:       745.27 cm**-1
  15:       751.02 cm**-1
  16:       786.26 cm**-1
  17:       843.28 cm**-1
  18:       901.21 cm**-1
  19:       921.36 cm**-1
  20:       942.49 cm**-1
  21:       972.09 cm**-1
  22:       975.00 cm**-1
  23:      1049.90 cm**-1
  24:      1084.01 cm**-1
  25:      1122.31 cm**-1
  26:      1209.76 cm**-1
  27:      1234.26 cm**-1
  28:      1307.37 cm**-1
  29:      1362.35 cm**-1
  30:      1391.73 cm**-1
  31:      1428.40 cm**-1
  32:      1478.04 cm**-1
  33:      1636.94 cm**-1
  34:      1648.13 cm**-1
  35:      1665.15 cm**-1
  36:      1760.21 cm**-1
  37:      3111.79 cm**-1
  38:      3184.20 cm**-1
  39:      3261.72 cm**-1
  40:      3279.80 cm**-1
  41:      3281.31 cm**-1
  42:      3401.09 cm**-1
  43:      3499.86 cm**-1
  44:      3504.75 cm**-1

IR SPECTRUM
-----------

 Mode    freq (cm**-1)   T**2         TX         TY         TZ
-------------------------------------------------------------------
   6:       109.54    2.002260  (  0.267642  -0.728019   1.183476)
   7:       187.06    0.133667  (  0.213246   0.175029  -0.239913)
   8:       233.67    9.981937  (  0.618156   0.727630   3.011706)
   9:       301.71    9.394752  (  2.393529  -1.828113   0.569012)
  10:       392.14    3.994306  ( -0.343622   1.442665   1.339756)
  11:       525.30   14.526499  ( -3.390985  -1.732766  -0.158879)
  12:       606.30    0.096965  ( -0.081646   0.142817   0.264391)
  13:       673.67    1.418008  (  0.149008   0.192848   1.165596)
  14:       745.27   16.212277  (  3.723811  -0.157530  -1.523381)
  15:       751.02   24.229114  ( -4.908534   0.339124   0.142826)
  16:       786.26   39.659279  (  4.540351  -1.456405  -4.113803)
  17:       843.28   11.713013  (  0.697827   0.097679  -3.349106)
  18:       901.21   36.939534  ( -2.055522  -3.662940   4.392862)
  19:       921.36    4.502266  ( -1.444582   1.257136  -0.913815)
  20:       942.49   59.662116  ( -7.580372  -1.165286   0.917706)
  21:       972.09    7.250477  ( -2.390992  -0.405229   1.170225)
  22:       975.00    7.870990  ( -1.047819   0.908556   2.438768)
  23:      1049.90    9.880205  (  2.409367  -1.938562   0.563148)
  24:      1084.01   21.196648  ( -2.008570   3.936332   1.291352)
  25:      1122.31   26.187500  ( -1.129319  -3.439836  -3.616582)
  26:      1209.76  187.109538  ( -0.208018 -12.856216  -4.667330)
  27:      1234.26   48.741580  (  0.819117  -6.919703   0.433983)
  28:      1307.37   65.684636  ( -0.179742   6.862935  -4.307256)
  29:      1362.35   21.325949  (  0.040020  -0.925828  -4.524068)
  30:      1391.73   21.130130  (  1.497515   1.436759  -4.101622)
  31:      1428.40   10.323405  ( -1.363606   2.861844   0.523289)
  32:      1478.04  147.972855  ( -9.803801  -1.248180   7.092276)
  33:      1636.94   27.953512  ( -3.253337  -0.221725  -4.161748)
  34:      1648.13   35.868280  (  1.772306  -5.187227   2.412444)
  35:      1665.15  112.336364  (  0.127432   5.510463   9.052896)
  36:      1760.21   38.957728  (  0.242039   6.161652  -0.966018)
  37:      3111.79    1.295973  (  0.552550   0.317223  -0.943415)
  38:      3184.20   11.680539  ( -0.168720   3.056609   1.519610)
  39:      3261.72    7.815106  (  0.543429   0.775778   2.630201)
  40:      3279.80    3.091733  ( -0.258366  -0.440511  -1.682537)
  41:      3281.31    8.133590  ( -0.483572  -2.810395   0.037791)
  42:      3401.09   29.737404  (  4.169742   0.081486  -3.513405)
  43:      3499.86   74.226218  (  4.350457  -6.562873   3.496918)
  44:      3504.75   82.537653  (  3.598678   4.994161   6.681730)

--------------------------
THERMOCHEMISTRY AT 298.15K
--------------------------

Temperature         ... 298.15 K
Pressure            ... 1.00 atm
Total Mass          ... 98.12 AMU

Throughout the following assumptions are being made:
  (1) The electronic state is orbitally nondegenerate
  (2) There are no thermally accessible electronically excited states
  (3) Hindered rotations indicated by low frequency modes) are not
      treated as such but are treated as vibrations and this may
      case some error
  (4) All equations used are the standard statistical mechanics
      equations for an ideal gas
  (5) All vibrations are strinctly harmonic

------------
INNER ENERGY
------------

The inner energy is: U= E(el) + E(ZPE) + E(vib) + E(rot) + E(trans)
    E(el)   - is the total energy from the electronic structure calculation
              = E(kin-el) + E(nuc-el) + E(el-el) + E(nuc-nuc)
    E(ZPE)  - the the zero temperature vibrational energy from the frequency calculation
    E(vib)  - the the finite temperature correction to E(ZPE) due to population
              of excietd vibrational states
    E(rot)  - is the rotational thermal energy
    E(trans)- is the translational thermal energy

Summary of contributions to the inner energy U:
Electronic energy                ...   -324.77308963 Eh
Zero point energy                ...      0.12933258 Eh      81.16 kcal/mol
Thermal vibrational correction   ...      0.00375830 Eh       2.36 kcal/mol
Thermal rotational correction    ...      0.00141627 Eh       0.89 kcal/mol
Thermal translational correction ...      0.00141627 Eh       0.89 kcal/mol
-----------------------------------------------------------------------
Total thermal energy                   -324.63716621 Eh

Summary of corrections to the electronic energy:
(perhaps to be used in another calculation)
Total thermal correction                  0.00659084 Eh       4.14 kcal/mol
Non-thermal (ZPE) correction              0.12933258 Eh      81.16 kcal/mol
-----------------------------------------------------------------------
Total correction                          0.13592342 Eh      85.29 kcal/mol

--------
ENTHALPY
--------

The enthalpy is H = U + kB*T
                kB is Boltzmann's constant
Total free energy                 ...   -324.63716621 Eh
Thermal Enthalpy correction       ...      0.00094421 Eh       0.59 kcal/mol
-----------------------------------------------------------------------
Total Enthalpy                    ...   -324.63622200 Eh

-------
ENTROPY
-------

The entropy contributions are T*S = T*(S(el)+S(vib)+S(rot)+S(trans)
     S(el)   - electronic entropy
     S(vib)  - vibrational entropy
     S(rot)  - rotational entropy
     S(trans)- translational entropy
The entropies will be listed as mutliplied by the temperature to get
units of energy

Electronic entropy                ...      0.00000000 Eh      0.00 kcal/mol
Vibrational entropy               ...      0.00619925 Eh      3.89 kcal/mol
Rotational entropy                ...      0.01182214 Eh      7.42 kcal/mol
Translational entropy             ...      0.01884443 Eh     11.83 kcal/mol
-----------------------------------------------------------------------
Final entropy term                ...      0.03686582 Eh     23.13 kcal/mol

CAUTION: The rotational entropy is not quite correctly treated here
         because it includes a symmetry number that is not yet correctly
         implemented in ORCA!
For a nonlinear molecule the correct rotational entropy is:
    S(rot) = R*(ln(qrot/sn)+1.5)
    R    = 8.31441 J/mol/K = 1.987191683e-3 kcal/mol/K
    qrot = 183443.8024565
    sn is the rotational symmetry number. We have assumed 3 here
       if it is different for your molecule then you should correct
       the printed rotational entropy by manually evaluating the equation
       as given above

For convenience we print out the resulting values for sn=1 - 12:
 sn= 1  qrot/sn=  183443.8025 T*S(rot)=     8.07 kcal/mol T*S(tot)=    23.78 kcal/mol
 sn= 2  qrot/sn=   91721.9012 T*S(rot)=     7.66 kcal/mol T*S(tot)=    23.37 kcal/mol
 sn= 3  qrot/sn=   61147.9342 T*S(rot)=     7.42 kcal/mol T*S(tot)=    23.13 kcal/mol
 sn= 4  qrot/sn=   45860.9506 T*S(rot)=     7.25 kcal/mol T*S(tot)=    22.96 kcal/mol
 sn= 5  qrot/sn=   36688.7605 T*S(rot)=     7.12 kcal/mol T*S(tot)=    22.83 kcal/mol
 sn= 6  qrot/sn=   30573.9671 T*S(rot)=     7.01 kcal/mol T*S(tot)=    22.72 kcal/mol
 sn= 7  qrot/sn=   26206.2575 T*S(rot)=     6.92 kcal/mol T*S(tot)=    22.63 kcal/mol
 sn= 8  qrot/sn=   22930.4753 T*S(rot)=     6.84 kcal/mol T*S(tot)=    22.55 kcal/mol
 sn= 9  qrot/sn=   20382.6447 T*S(rot)=     6.77 kcal/mol T*S(tot)=    22.48 kcal/mol
 sn=10  qrot/sn=   18344.3802 T*S(rot)=     6.71 kcal/mol T*S(tot)=    22.42 kcal/mol
 sn=11  qrot/sn=   16676.7093 T*S(rot)=     6.65 kcal/mol T*S(tot)=    22.36 kcal/mol
 sn=12  qrot/sn=   15286.9835 T*S(rot)=     6.60 kcal/mol T*S(tot)=    22.31 kcal/mol

-------------------
GIBBS FREE ENTHALPY
-------------------

The Gibbs free enthalpy is G = H - T*S

Total enthalpy                    ...   -324.63622200 Eh
Total entropy correction          ...     -0.03686582 Eh    -23.13 kcal/mol
-----------------------------------------------------------------------
Final Gibbs free enthalpy         ...   -324.67308782 Eh

For completeness - the Gibbs free enthalpy minus the electronic energy
G-E(el)                           ...      0.10000181 Eh     62.75 kcal/mol

                             ****ORCA TERMINATED NORMALLY****
TOTAL RUN TIME: 0 days 0 hours 30 minutes 13 seconds 276 msec
