                         Program Version 3.0.3 - RELEASE   -
|  1> ! NORI PBE0 def2-TZVP UseSym TightOPT Freq TightSCF Grid3 FinalGrid5 XYZFile
|  2> % pal
|  3>     nprocs 8
|  4> end
|  5> %method
|  6>     SymThresh 5.0e-2
|  7> end
|  8> % geom
|  9>     MaxIter 10
| 10> end
| 11> % maxcore 2000
| 12> % output
| 13>     printlevel mini
| 14>     print[ P_Basis ] 0
| 15>     print[ P_SCFInfo ] 1
| 16>     print[ P_SCFIterInfo ] 1
| 17>     print[ P_OrbEn ] 0
| 18>     print[ P_Cartesian ] 0
| 19> end
| 20> % elprop
| 21>     Dipole false
| 22> end
| 23> *xyz 1 1
| 24>  N        1.0100994656    -0.0644746163     0.0066589037
| 25>  C        2.5110991659    -0.0121356520    -0.0461728919
| 26>  C        3.0895934349     1.1428444861     0.7560039504
| 27>  C        4.3981021336     0.5307684898     1.2400461591
| 28>  O        4.1037629325    -0.8529645155     1.4316633174
| 29>  C        3.0955496074    -1.2354115487     0.6258561092
| 30>  C        2.6802330669    -2.4876880172     0.4866319403
| 31>  H        0.6565965513    -0.8730199885    -0.5098980563
| 32>  H        0.5823876700     0.7773286343    -0.3867367978
| 33>  H        0.6984457601    -0.1709663292     0.9758810036
| 34>  H        2.7722285711     0.0401724111    -1.1057712709
| 35>  H        2.4506051956     1.3689541581     1.6159338037
| 36>  H        3.2291276391     2.0543646383     0.1755021062
| 37>  H        4.7408328884     0.9385702845     2.1885481243
| 38>  H        5.1953935644     0.6323467089     0.4974563430
| 39>  H        1.8824745366    -2.7468412446    -0.1990063236
| 40>  H        3.1513978166    -3.2972678992     1.0268735794
| 41> *
| 42>
| 43>                          ****END OF INPUT****
 Total Charge           Charge          ....    1
 Multiplicity           Mult            ....    1
 Number of Electrons    NEL             ....   54
FINAL SINGLE POINT ENERGY      -325.996525734079
FINAL SINGLE POINT ENERGY      -325.996526786156

CARTESIAN COORDINATES (ANGSTROEM)
---------------------------------
  N      0.627405    0.000342   -1.966161
  C     -0.356162    0.003990   -0.828671
  C     -0.642288   -1.390217   -0.293138
  C     -0.875178   -1.089591    1.182054
  O     -0.000901    0.000593    1.473730
  C      0.235197    0.724423    0.363412
  C      0.909139    1.866911    0.341978
  H      0.829617    0.954224   -2.273819
  H      0.281349   -0.527919   -2.770664
  H      1.514242   -0.409090   -1.659623
  H     -1.252162    0.500730   -1.208239
  H      0.240317   -2.029427   -0.401810
  H     -1.489237   -1.879831   -0.772640
  H     -0.614913   -1.917430    1.838449
  H     -1.908345   -0.787917    1.378544
  H      1.047794    2.425628   -0.575261
  H      1.311100    2.296491    1.249496

FINAL SINGLE POINT ENERGY      -325.996527350996
                    ***********************HURRAY********************
 Multiplicity           Mult            ....    1
 Number of Electrons    NEL             ....   54
 Basis Dimension        Dim             ....  277
FINAL SINGLE POINT ENERGY      -325.996527573802

VIBRATIONAL FREQUENCIES
-----------------------

   0:         0.00 cm**-1
   1:         0.00 cm**-1
   2:         0.00 cm**-1
   3:         0.00 cm**-1
   4:         0.00 cm**-1
   5:         0.00 cm**-1
   6:        54.17 cm**-1
   7:       183.76 cm**-1
   8:       187.59 cm**-1
   9:       266.77 cm**-1
  10:       372.30 cm**-1
  11:       407.48 cm**-1
  12:       548.48 cm**-1
  13:       626.88 cm**-1
  14:       675.10 cm**-1
  15:       700.06 cm**-1
  16:       787.23 cm**-1
  17:       865.51 cm**-1
  18:       870.32 cm**-1
  19:       912.01 cm**-1
  20:       939.51 cm**-1
  21:       985.89 cm**-1
  22:      1005.95 cm**-1
  23:      1033.48 cm**-1
  24:      1100.71 cm**-1
  25:      1113.08 cm**-1
  26:      1169.65 cm**-1
  27:      1230.24 cm**-1
  28:      1250.46 cm**-1
  29:      1274.48 cm**-1
  30:      1323.82 cm**-1
  31:      1339.58 cm**-1
  32:      1393.03 cm**-1
  33:      1414.26 cm**-1
  34:      1437.75 cm**-1
  35:      1482.91 cm**-1
  36:      1509.46 cm**-1
  37:      1522.57 cm**-1
  38:      1637.43 cm**-1
  39:      1651.51 cm**-1
  40:      1747.57 cm**-1
  41:      3059.74 cm**-1
  42:      3072.82 cm**-1
  43:      3102.56 cm**-1
  44:      3150.39 cm**-1
  45:      3164.82 cm**-1
  46:      3181.64 cm**-1
  47:      3274.98 cm**-1
  48:      3409.43 cm**-1
  49:      3492.11 cm**-1
  50:      3500.74 cm**-1

IR SPECTRUM
-----------

 Mode    freq (cm**-1)   T**2         TX         TY         TZ
-------------------------------------------------------------------
   6:        54.17    1.082810  ( -0.414996   0.033183  -0.953670)
   7:       183.76    0.891632  (  0.268090  -0.791325   0.439960)
   8:       187.59    6.703186  (  1.565112  -1.722251   1.134664)
   9:       266.77   18.219309  (  0.169855   2.240315   3.629249)
  10:       372.30    5.029912  ( -0.253662   1.181012  -1.889650)
  11:       407.48    2.176151  ( -1.174813  -0.889599  -0.067655)
  12:       548.48    7.470413  ( -1.949085  -0.664613   1.797157)
  13:       626.88    6.079238  ( -0.789983   1.051699   2.085448)
  14:       675.10    2.141002  ( -0.025380  -0.381763   1.412308)
  15:       700.06    5.243957  (  2.083174  -0.336942  -0.889277)
  16:       787.23    0.758780  (  0.282501   0.411467   0.713910)
  17:       865.51    7.512971  ( -1.767285   0.792024   1.939683)
  18:       870.32   46.256127  (  6.159682  -2.811864  -0.638646)
  19:       912.01    9.784901  ( -2.255844   0.747018  -2.034215)
  20:       939.51   17.662323  (  1.405626   3.678841  -1.467198)
  21:       985.89    2.803934  ( -0.580280   0.757038  -1.376264)
  22:      1005.95    3.159449  ( -0.718850   1.614848   0.187006)
  23:      1033.48   20.193590  ( -1.105571   0.104253   4.354358)
  24:      1100.71   89.425717  (  4.692184   8.181893   0.682465)
  25:      1113.08   20.269747  (  3.799347   2.141233   1.117957)
  26:      1169.65    6.761191  ( -1.910775   1.689799   0.504685)
  27:      1230.24   15.862716  ( -2.340626  -2.994639   1.190092)
  28:      1250.46    1.038312  (  0.263126   0.958637   0.223811)
  29:      1274.48  131.594617  (  4.531613   8.496214  -6.234858)
  30:      1323.82   12.771399  (  1.570080   3.010932  -1.113795)
  31:      1339.58   25.770008  (  1.711681   4.749651  -0.530071)
  32:      1393.03   17.347966  ( -0.116987   1.236007  -3.975747)
  33:      1414.26   11.189593  ( -0.972466  -2.316645  -2.208407)
  34:      1437.75    7.801634  ( -1.215165  -0.754210   2.399203)
  35:      1482.91    2.866987  ( -0.446594  -1.608813   0.281531)
  36:      1509.46  162.084001  (  8.131926  -0.592384  -9.777774)
  37:      1522.57    1.685944  (  0.709419   0.440127  -0.994463)
  38:      1637.43   32.470286  ( -0.582981   5.652228   0.427477)
  39:      1651.51   47.711269  ( -4.184228   1.809725  -5.189259)
  40:      1747.57  138.326275  ( -5.564529  -9.899625   3.059365)
  41:      3059.74    3.171582  ( -0.251337   1.456158   0.993989)
  42:      3072.82   24.965170  (  4.460413   1.068518  -1.981958)
  43:      3102.56    0.029076  ( -0.029760  -0.044344  -0.161938)
  44:      3150.39    1.769403  ( -1.039727  -0.828969  -0.034357)
  45:      3164.82    1.673939  ( -0.520710   1.135498  -0.336814)
  46:      3181.64   12.163585  ( -1.350290  -2.152353  -2.389074)
  47:      3274.98    2.544123  (  0.973032   1.188060   0.431098)
  48:      3409.43   34.553223  (  3.961163  -0.429039  -4.321844)
  49:      3492.11   84.277056  (  5.569876  -4.864334   5.439833)
  50:      3500.74   77.901896  (  3.784987   7.217707   3.388284)

--------------------------
THERMOCHEMISTRY AT 298.15K
--------------------------

Temperature         ... 298.15 K
Pressure            ... 1.00 atm
Total Mass          ... 100.14 AMU

Throughout the following assumptions are being made:
  (1) The electronic state is orbitally nondegenerate
  (2) There are no thermally accessible electronically excited states
  (3) Hindered rotations indicated by low frequency modes) are not
      treated as such but are treated as vibrations and this may
      case some error
  (4) All equations used are the standard statistical mechanics
      equations for an ideal gas
  (5) All vibrations are strinctly harmonic

------------
INNER ENERGY
------------

The inner energy is: U= E(el) + E(ZPE) + E(vib) + E(rot) + E(trans)
    E(el)   - is the total energy from the electronic structure calculation
              = E(kin-el) + E(nuc-el) + E(el-el) + E(nuc-nuc)
    E(ZPE)  - the the zero temperature vibrational energy from the frequency calculation
    E(vib)  - the the finite temperature correction to E(ZPE) due to population
              of excietd vibrational states
    E(rot)  - is the rotational thermal energy
    E(trans)- is the translational thermal energy

Summary of contributions to the inner energy U:
Electronic energy                ...   -325.99652757 Eh
Zero point energy                ...      0.15361735 Eh      96.40 kcal/mol
Thermal vibrational correction   ...      0.00424843 Eh       2.67 kcal/mol
Thermal rotational correction    ...      0.00141627 Eh       0.89 kcal/mol
Thermal translational correction ...      0.00141627 Eh       0.89 kcal/mol
-----------------------------------------------------------------------
Total thermal energy                   -325.83582925 Eh

Summary of corrections to the electronic energy:
(perhaps to be used in another calculation)
Total thermal correction                  0.00708097 Eh       4.44 kcal/mol
Non-thermal (ZPE) correction              0.15361735 Eh      96.40 kcal/mol
-----------------------------------------------------------------------
Total correction                          0.16069832 Eh     100.84 kcal/mol

--------
ENTHALPY
--------

The enthalpy is H = U + kB*T
                kB is Boltzmann's constant
Total free energy                 ...   -325.83582925 Eh
Thermal Enthalpy correction       ...      0.00094421 Eh       0.59 kcal/mol
-----------------------------------------------------------------------
Total Enthalpy                    ...   -325.83488504 Eh

-------
ENTROPY
-------

The entropy contributions are T*S = T*(S(el)+S(vib)+S(rot)+S(trans)
     S(el)   - electronic entropy
     S(vib)  - vibrational entropy
     S(rot)  - rotational entropy
     S(trans)- translational entropy
The entropies will be listed as mutliplied by the temperature to get
units of energy

Electronic entropy                ...      0.00000000 Eh      0.00 kcal/mol
Vibrational entropy               ...      0.00755364 Eh      4.74 kcal/mol
Rotational entropy                ...      0.01190661 Eh      7.47 kcal/mol
Translational entropy             ...      0.01887324 Eh     11.84 kcal/mol
-----------------------------------------------------------------------
Final entropy term                ...      0.03833349 Eh     24.05 kcal/mol

CAUTION: The rotational entropy is not quite correctly treated here
         because it includes a symmetry number that is not yet correctly
         implemented in ORCA!
For a nonlinear molecule the correct rotational entropy is:
    S(rot) = R*(ln(qrot/sn)+1.5)
    R    = 8.31441 J/mol/K = 1.987191683e-3 kcal/mol/K
    qrot = 200612.9300685
    sn is the rotational symmetry number. We have assumed 3 here
       if it is different for your molecule then you should correct
       the printed rotational entropy by manually evaluating the equation
       as given above

For convenience we print out the resulting values for sn=1 - 12:
 sn= 1  qrot/sn=  200612.9301 T*S(rot)=     8.12 kcal/mol T*S(tot)=    24.71 kcal/mol
 sn= 2  qrot/sn=  100306.4650 T*S(rot)=     7.71 kcal/mol T*S(tot)=    24.29 kcal/mol
 sn= 3  qrot/sn=   66870.9767 T*S(rot)=     7.47 kcal/mol T*S(tot)=    24.05 kcal/mol
 sn= 4  qrot/sn=   50153.2325 T*S(rot)=     7.30 kcal/mol T*S(tot)=    23.88 kcal/mol
 sn= 5  qrot/sn=   40122.5860 T*S(rot)=     7.17 kcal/mol T*S(tot)=    23.75 kcal/mol
 sn= 6  qrot/sn=   33435.4883 T*S(rot)=     7.06 kcal/mol T*S(tot)=    23.64 kcal/mol
 sn= 7  qrot/sn=   28658.9900 T*S(rot)=     6.97 kcal/mol T*S(tot)=    23.55 kcal/mol
 sn= 8  qrot/sn=   25076.6163 T*S(rot)=     6.89 kcal/mol T*S(tot)=    23.47 kcal/mol
 sn= 9  qrot/sn=   22290.3256 T*S(rot)=     6.82 kcal/mol T*S(tot)=    23.40 kcal/mol
 sn=10  qrot/sn=   20061.2930 T*S(rot)=     6.76 kcal/mol T*S(tot)=    23.34 kcal/mol
 sn=11  qrot/sn=   18237.5391 T*S(rot)=     6.70 kcal/mol T*S(tot)=    23.28 kcal/mol
 sn=12  qrot/sn=   16717.7442 T*S(rot)=     6.65 kcal/mol T*S(tot)=    23.23 kcal/mol

-------------------
GIBBS FREE ENTHALPY
-------------------

The Gibbs free enthalpy is G = H - T*S

Total enthalpy                    ...   -325.83488504 Eh
Total entropy correction          ...     -0.03833349 Eh    -24.05 kcal/mol
-----------------------------------------------------------------------
Final Gibbs free enthalpy         ...   -325.87321854 Eh

For completeness - the Gibbs free enthalpy minus the electronic energy
G-E(el)                           ...      0.12330904 Eh     77.38 kcal/mol

                             ****ORCA TERMINATED NORMALLY****
TOTAL RUN TIME: 0 days 0 hours 41 minutes 24 seconds 657 msec
