                         Program Version 3.0.3 - RELEASE   -
|  1> ! NORI PBE0 def2-TZVP UseSym TightOPT Freq TightSCF Grid3 FinalGrid5 XYZFile
|  2> % pal
|  3>     nprocs 8
|  4> end
|  5> %method
|  6>     SymThresh 5.0e-2
|  7> end
|  8> % geom
|  9>     MaxIter 10
| 10> end
| 11> % maxcore 2000
| 12> % output
| 13>     printlevel mini
| 14>     print[ P_Basis ] 0
| 15>     print[ P_SCFInfo ] 1
| 16>     print[ P_SCFIterInfo ] 1
| 17>     print[ P_OrbEn ] 0
| 18>     print[ P_Cartesian ] 0
| 19> end
| 20> % elprop
| 21>     Dipole false
| 22> end
| 23> *xyz 1 1
| 24>  N        0.9473252417     0.1643129161    -0.0677086910
| 25>  C        2.4340508287    -0.0481531208     0.0291098387
| 26>  C        3.0102672595    -1.2293994502    -0.6560744032
| 27>  C        3.9336901150    -0.7617934171    -1.4928589891
| 28>  O        4.0175061907     0.6116449654    -1.5570013411
| 29>  C        3.0730687432     1.1201641004    -0.7383014816
| 30>  O        2.7369452815     2.2541423441    -0.6750553748
| 31>  H        0.7559580178     1.1657159084     0.0791104726
| 32>  H        0.4287670003    -0.3788451825     0.6250584737
| 33>  H        0.6003247039    -0.0905871467    -0.9966688606
| 34>  H        2.6847536420     0.0217498237     1.0924249943
| 35>  H        2.8383600158    -2.2681381204    -0.4188141595
| 36>  H        4.6417929599    -1.2821836203    -2.1211304783
| 37> *
| 38>
| 39>                          ****END OF INPUT****
 Total Charge           Charge          ....    1
 Multiplicity           Mult            ....    1
 Number of Electrons    NEL             ....   52
FINAL SINGLE POINT ENERGY      -360.696289676656

CARTESIAN COORDINATES (ANGSTROEM)
---------------------------------
  N      0.177514   -0.533392   -1.918912
  C     -0.247905    0.394389   -0.812677
  C     -1.566038    0.155622   -0.178284
  C     -1.331167   -0.001397    1.122356
  O     -0.000060    0.000113    1.476842
  C      0.726261    0.135085    0.347685
  O      1.898769    0.000309    0.248158
  H      1.205968   -0.517832   -1.973443
  H     -0.208155   -0.263073   -2.825722
  H     -0.113727   -1.495263   -1.723216
  H     -0.110442    1.410493   -1.195707
  H     -2.537154    0.247155   -0.639935
  H     -2.013873   -0.115072    1.951683

FINAL SINGLE POINT ENERGY      -360.696289899365
                    ***********************HURRAY********************
 Multiplicity           Mult            ....    1
 Number of Electrons    NEL             ....   52
 Basis Dimension        Dim             ....  253
FINAL SINGLE POINT ENERGY      -360.696289952275

VIBRATIONAL FREQUENCIES
-----------------------

   0:         0.00 cm**-1
   1:         0.00 cm**-1
   2:         0.00 cm**-1
   3:         0.00 cm**-1
   4:         0.00 cm**-1
   5:         0.00 cm**-1
   6:       129.17 cm**-1
   7:       217.69 cm**-1
   8:       249.48 cm**-1
   9:       308.42 cm**-1
  10:       518.32 cm**-1
  11:       542.02 cm**-1
  12:       617.69 cm**-1
  13:       739.88 cm**-1
  14:       761.63 cm**-1
  15:       811.23 cm**-1
  16:       840.96 cm**-1
  17:       950.02 cm**-1
  18:       971.78 cm**-1
  19:      1039.55 cm**-1
  20:      1074.32 cm**-1
  21:      1096.31 cm**-1
  22:      1113.95 cm**-1
  23:      1165.71 cm**-1
  24:      1187.21 cm**-1
  25:      1314.73 cm**-1
  26:      1362.37 cm**-1
  27:      1395.91 cm**-1
  28:      1499.14 cm**-1
  29:      1640.76 cm**-1
  30:      1658.57 cm**-1
  31:      1674.10 cm**-1
  32:      1930.26 cm**-1
  33:      3086.19 cm**-1
  34:      3263.62 cm**-1
  35:      3283.68 cm**-1
  36:      3357.12 cm**-1
  37:      3457.23 cm**-1
  38:      3505.32 cm**-1

IR SPECTRUM
-----------

 Mode    freq (cm**-1)   T**2         TX         TY         TZ
-------------------------------------------------------------------
   6:       129.17    8.669031  ( -1.355314  -2.608192  -0.171719)
   7:       217.69   10.640308  ( -0.381454   0.323037  -3.223422)
   8:       249.48   23.343723  ( -1.760857  -0.895393  -4.409238)
   9:       308.42    4.001193  (  1.055584   1.502759  -0.792876)
  10:       518.32    3.657837  ( -1.300739  -0.367184   1.353178)
  11:       542.02   23.375657  ( -1.985102   4.039320   1.766047)
  12:       617.69    7.827392  ( -1.857573  -2.058827   0.371549)
  13:       739.88   27.415675  (  0.625464  -5.161801  -0.616669)
  14:       761.63   28.525113  (  0.619092   4.890798   2.054735)
  15:       811.23    3.058588  ( -1.347579   0.728262  -0.843952)
  16:       840.96    9.515631  ( -1.059178  -0.220907  -2.888767)
  17:       950.02   12.100165  (  3.195007  -0.256529  -1.351402)
  18:       971.78    4.793914  (  1.464318  -1.520545   0.581058)
  19:      1039.55   34.647278  (  5.147452  -1.264965  -2.559468)
  20:      1074.32   12.755193  (  2.595535   2.365638   0.649732)
  21:      1096.31   80.677177  ( -6.057472  -0.433217  -6.617895)
  22:      1113.95   17.676315  (  3.166684  -2.112264  -1.785152)
  23:      1165.71   92.059154  ( -7.381211  -2.292643   5.685127)
  24:      1187.21  105.855456  ( -9.878442   0.203323  -2.868885)
  25:      1314.73   55.605037  ( -4.169120  -0.410567   6.168866)
  26:      1362.37   14.308095  ( -0.691998  -1.336645   3.470247)
  27:      1395.91   14.482919  (  2.375659   0.247222  -2.962776)
  28:      1499.14  167.741353  ( -4.816436   7.319973   9.537363)
  29:      1640.76   41.742932  (  3.252372   5.410493  -1.375343)
  30:      1658.57   38.999156  ( -5.220973  -0.073686  -3.425663)
  31:      1674.10   70.584624  (  2.174330  -1.188215   8.027768)
  32:      1930.26  300.088415  ( 17.284351  -1.108054  -0.334429)
  33:      3086.19    4.660476  (  0.964933  -1.745017   0.827222)
  34:      3263.62   14.313437  (  1.717787  -0.571188   3.322106)
  35:      3283.68   11.736304  (  2.950870   0.042987  -1.739776)
  36:      3357.12   59.774625  ( -7.128440   1.813534   2.381399)
  37:      3457.23  101.464125  (  7.150384   6.170805   3.501043)
  38:      3505.32  123.533161  ( -2.360130   6.067904  -9.007968)

--------------------------
THERMOCHEMISTRY AT 298.15K
--------------------------

Temperature         ... 298.15 K
Pressure            ... 1.00 atm
Total Mass          ... 100.10 AMU

Throughout the following assumptions are being made:
  (1) The electronic state is orbitally nondegenerate
  (2) There are no thermally accessible electronically excited states
  (3) Hindered rotations indicated by low frequency modes) are not
      treated as such but are treated as vibrations and this may
      case some error
  (4) All equations used are the standard statistical mechanics
      equations for an ideal gas
  (5) All vibrations are strinctly harmonic

------------
INNER ENERGY
------------

The inner energy is: U= E(el) + E(ZPE) + E(vib) + E(rot) + E(trans)
    E(el)   - is the total energy from the electronic structure calculation
              = E(kin-el) + E(nuc-el) + E(el-el) + E(nuc-nuc)
    E(ZPE)  - the the zero temperature vibrational energy from the frequency calculation
    E(vib)  - the the finite temperature correction to E(ZPE) due to population
              of excietd vibrational states
    E(rot)  - is the rotational thermal energy
    E(trans)- is the translational thermal energy

Summary of contributions to the inner energy U:
Electronic energy                ...   -360.69628995 Eh
Zero point energy                ...      0.10653699 Eh      66.85 kcal/mol
Thermal vibrational correction   ...      0.00326839 Eh       2.05 kcal/mol
Thermal rotational correction    ...      0.00141627 Eh       0.89 kcal/mol
Thermal translational correction ...      0.00141627 Eh       0.89 kcal/mol
-----------------------------------------------------------------------
Total thermal energy                   -360.58365203 Eh

Summary of corrections to the electronic energy:
(perhaps to be used in another calculation)
Total thermal correction                  0.00610094 Eh       3.83 kcal/mol
Non-thermal (ZPE) correction              0.10653699 Eh      66.85 kcal/mol
-----------------------------------------------------------------------
Total correction                          0.11263792 Eh      70.68 kcal/mol

--------
ENTHALPY
--------

The enthalpy is H = U + kB*T
                kB is Boltzmann's constant
Total free energy                 ...   -360.58365203 Eh
Thermal Enthalpy correction       ...      0.00094421 Eh       0.59 kcal/mol
-----------------------------------------------------------------------
Total Enthalpy                    ...   -360.58270782 Eh

-------
ENTROPY
-------

The entropy contributions are T*S = T*(S(el)+S(vib)+S(rot)+S(trans)
     S(el)   - electronic entropy
     S(vib)  - vibrational entropy
     S(rot)  - rotational entropy
     S(trans)- translational entropy
The entropies will be listed as mutliplied by the temperature to get
units of energy

Electronic entropy                ...      0.00000000 Eh      0.00 kcal/mol
Vibrational entropy               ...      0.00531820 Eh      3.34 kcal/mol
Rotational entropy                ...      0.01177110 Eh      7.39 kcal/mol
Translational entropy             ...      0.01887262 Eh     11.84 kcal/mol
-----------------------------------------------------------------------
Final entropy term                ...      0.03596192 Eh     22.57 kcal/mol

CAUTION: The rotational entropy is not quite correctly treated here
         because it includes a symmetry number that is not yet correctly
         implemented in ORCA!
For a nonlinear molecule the correct rotational entropy is:
    S(rot) = R*(ln(qrot/sn)+1.5)
    R    = 8.31441 J/mol/K = 1.987191683e-3 kcal/mol/K
    qrot = 173791.6668432
    sn is the rotational symmetry number. We have assumed 3 here
       if it is different for your molecule then you should correct
       the printed rotational entropy by manually evaluating the equation
       as given above

For convenience we print out the resulting values for sn=1 - 12:
 sn= 1  qrot/sn=  173791.6668 T*S(rot)=     8.04 kcal/mol T*S(tot)=    23.22 kcal/mol
 sn= 2  qrot/sn=   86895.8334 T*S(rot)=     7.63 kcal/mol T*S(tot)=    22.81 kcal/mol
 sn= 3  qrot/sn=   57930.5556 T*S(rot)=     7.39 kcal/mol T*S(tot)=    22.57 kcal/mol
 sn= 4  qrot/sn=   43447.9167 T*S(rot)=     7.22 kcal/mol T*S(tot)=    22.40 kcal/mol
 sn= 5  qrot/sn=   34758.3334 T*S(rot)=     7.08 kcal/mol T*S(tot)=    22.26 kcal/mol
 sn= 6  qrot/sn=   28965.2778 T*S(rot)=     6.98 kcal/mol T*S(tot)=    22.16 kcal/mol
 sn= 7  qrot/sn=   24827.3810 T*S(rot)=     6.88 kcal/mol T*S(tot)=    22.06 kcal/mol
 sn= 8  qrot/sn=   21723.9584 T*S(rot)=     6.81 kcal/mol T*S(tot)=    21.99 kcal/mol
 sn= 9  qrot/sn=   19310.1852 T*S(rot)=     6.74 kcal/mol T*S(tot)=    21.92 kcal/mol
 sn=10  qrot/sn=   17379.1667 T*S(rot)=     6.67 kcal/mol T*S(tot)=    21.85 kcal/mol
 sn=11  qrot/sn=   15799.2424 T*S(rot)=     6.62 kcal/mol T*S(tot)=    21.80 kcal/mol
 sn=12  qrot/sn=   14482.6389 T*S(rot)=     6.57 kcal/mol T*S(tot)=    21.75 kcal/mol

-------------------
GIBBS FREE ENTHALPY
-------------------

The Gibbs free enthalpy is G = H - T*S

Total enthalpy                    ...   -360.58270782 Eh
Total entropy correction          ...     -0.03596192 Eh    -22.57 kcal/mol
-----------------------------------------------------------------------
Final Gibbs free enthalpy         ...   -360.61866974 Eh

For completeness - the Gibbs free enthalpy minus the electronic energy
G-E(el)                           ...      0.07762021 Eh     48.71 kcal/mol

                             ****ORCA TERMINATED NORMALLY****
TOTAL RUN TIME: 0 days 0 hours 22 minutes 0 seconds 546 msec
