                         Program Version 3.0.3 - RELEASE   -
|  1> ! NORI PBE0 def2-TZVP UseSym TightOPT Freq TightSCF Grid3 FinalGrid5 XYZFile
|  2> % pal
|  3>     nprocs 8
|  4> end
|  5> %method
|  6>     SymThresh 5.0e-2
|  7> end
|  8> % geom
|  9>     MaxIter 10
| 10> end
| 11> % maxcore 2000
| 12> % output
| 13>     printlevel mini
| 14>     print[ P_Basis ] 0
| 15>     print[ P_SCFInfo ] 1
| 16>     print[ P_SCFIterInfo ] 1
| 17>     print[ P_OrbEn ] 0
| 18>     print[ P_Cartesian ] 0
| 19> end
| 20> % elprop
| 21>     Dipole false
| 22> end
| 23> *xyz 1 1
| 24>  N        0.7642359888    -0.1297943169     0.0700732258
| 25>  C        2.2549706011    -0.1048934395    -0.1014832049
| 26>  C        3.0725938793     0.9783990379     0.6030474181
| 27>  C        4.1713970089    -0.1004373329     0.7903908126
| 28>  O        4.9853614366    -0.2451583034    -0.3396154645
| 29>  C        3.0628823252    -1.1726971458     0.6589259821
| 30>  O        3.3358982946    -2.3715467070     0.0542255433
| 31>  H        0.3079464677     0.6538202874    -0.4026308805
| 32>  H        0.5086825428    -0.0883028704     1.0590398470
| 33>  H        0.3770873199    -0.9963468318    -0.3139835046
| 34>  H        2.4493036554    -0.1475873385    -1.1727254491
| 35>  H        2.6473133871     1.2721603155     1.5661133987
| 36>  H        3.3351949411     1.8640214833     0.0279704084
| 37>  H        4.7404039137    -0.0810950312     1.7204417710
| 38>  H        5.8218399670     0.2115137317    -0.2180518034
| 39>  H        2.6114054747    -1.3588364255     1.6414375133
| 40>  H        4.1079827960    -2.2472791130    -0.5157556134
| 41> *
| 42>
| 43>                          ****END OF INPUT****
 Total Charge           Charge          ....    1
 Multiplicity           Mult            ....    1
 Number of Electrons    NEL             ....   56
FINAL SINGLE POINT ENERGY      -363.104913730981
FINAL SINGLE POINT ENERGY      -363.104914904487

CARTESIAN COORDINATES (ANGSTROEM)
---------------------------------
  N     -0.554518    0.836523   -2.133353
  C     -0.422123    0.570368   -0.661862
  C     -1.473370   -0.286674    0.043487
  C     -0.311488   -0.837621    0.911431
  O      0.000452   -0.002423    1.991235
  C      0.656101   -0.440782   -0.229898
  O      1.919115    0.001168    0.063622
  H     -1.338880    1.457927   -2.344050
  H     -0.697977   -0.033029   -2.651634
  H      0.298367    1.274546   -2.492593
  H     -0.276405    1.536368   -0.179641
  H     -1.884591   -1.070047   -0.598719
  H     -2.279944    0.230647    0.559219
  H     -0.349584   -1.891054    1.190821
  H     -0.381605   -0.341167    2.805152
  H      0.720226   -1.257468   -0.959701
  H      1.914912    0.329930    0.973795

FINAL SINGLE POINT ENERGY      -363.104915301572
                    ***********************HURRAY********************
 Multiplicity           Mult            ....    1
 Number of Electrons    NEL             ....   56
 Basis Dimension        Dim             ....  277
FINAL SINGLE POINT ENERGY      -363.104915367137

VIBRATIONAL FREQUENCIES
-----------------------

   0:         0.00 cm**-1
   1:         0.00 cm**-1
   2:         0.00 cm**-1
   3:         0.00 cm**-1
   4:         0.00 cm**-1
   5:         0.00 cm**-1
   6:       121.22 cm**-1
   7:       197.45 cm**-1
   8:       218.87 cm**-1
   9:       237.10 cm**-1
  10:       255.27 cm**-1
  11:       334.55 cm**-1
  12:       378.72 cm**-1
  13:       457.53 cm**-1
  14:       467.97 cm**-1
  15:       603.24 cm**-1
  16:       703.73 cm**-1
  17:       787.28 cm**-1
  18:       880.91 cm**-1
  19:       898.06 cm**-1
  20:       910.69 cm**-1
  21:       949.99 cm**-1
  22:      1025.64 cm**-1
  23:      1059.33 cm**-1
  24:      1084.05 cm**-1
  25:      1138.84 cm**-1
  26:      1180.85 cm**-1
  27:      1196.62 cm**-1
  28:      1212.16 cm**-1
  29:      1229.46 cm**-1
  30:      1269.27 cm**-1
  31:      1275.77 cm**-1
  32:      1316.26 cm**-1
  33:      1352.21 cm**-1
  34:      1407.56 cm**-1
  35:      1415.97 cm**-1
  36:      1434.77 cm**-1
  37:      1473.51 cm**-1
  38:      1499.97 cm**-1
  39:      1654.67 cm**-1
  40:      1657.99 cm**-1
  41:      3048.98 cm**-1
  42:      3083.46 cm**-1
  43:      3116.93 cm**-1
  44:      3142.90 cm**-1
  45:      3168.68 cm**-1
  46:      3410.50 cm**-1
  47:      3491.38 cm**-1
  48:      3500.31 cm**-1
  49:      3766.57 cm**-1
  50:      3872.72 cm**-1

IR SPECTRUM
-----------

 Mode    freq (cm**-1)   T**2         TX         TY         TZ
-------------------------------------------------------------------
   6:       121.22   12.861201  ( -0.696062  -2.987044  -1.858566)
   7:       197.45    5.160983  ( -2.191385   0.469439  -0.372075)
   8:       218.87   12.122509  ( -3.458481   0.281787  -0.286379)
   9:       237.10   88.846475  ( -7.465178   5.556412  -1.497957)
  10:       255.27   14.266359  (  2.774807  -1.912408   1.705725)
  11:       334.55   12.971301  ( -2.254246   2.159985  -1.795589)
  12:       378.72    6.394454  (  0.615744  -1.009279   2.235323)
  13:       457.53   59.529479  (  0.752267  -6.252590   4.457432)
  14:       467.97   50.544217  (  1.125174  -6.759615   1.893622)
  15:       603.24    8.136968  (  0.112731  -0.417148  -2.819618)
  16:       703.73   15.072828  (  2.182004  -0.240477   3.202164)
  17:       787.28    4.803497  (  1.032332   1.871062   0.486736)
  18:       880.91    8.758391  (  0.119158   2.881918   0.662377)
  19:       898.06   17.690599  (  3.867846   1.637411  -0.221928)
  20:       910.69   30.922355  (  4.639242  -2.606706   1.613962)
  21:       949.99    6.595933  (  0.383097  -2.539039  -0.049483)
  22:      1025.64   36.000166  (  1.723310   0.054920   5.746943)
  23:      1059.33    1.340836  ( -0.749150   0.882085  -0.039188)
  24:      1084.05    3.921205  (  0.292517   1.311984   1.454076)
  25:      1138.84   80.415956  (  7.838038  -0.961838  -4.249233)
  26:      1180.85   25.796280  ( -4.846994  -1.495592  -0.257176)
  27:      1196.62    6.197589  (  0.180302   0.198068   2.475045)
  28:      1212.16  210.752172  ( 10.054177   4.999922   9.201438)
  29:      1229.46    7.530097  (  1.566125   1.199907  -1.907242)
  30:      1269.27    1.019845  (  0.715603  -0.605838   0.375123)
  31:      1275.77    8.357406  (  1.513897   2.327080   0.806363)
  32:      1316.26   10.902699  ( -1.640266   2.252237   1.771908)
  33:      1352.21    7.979555  (  1.027669   2.625435  -0.174760)
  34:      1407.56   23.987007  ( -0.491996   3.734033  -3.130806)
  35:      1415.97   50.237062  (  6.641662   2.474595   0.042004)
  36:      1434.77    5.195590  ( -2.175776   0.455774  -0.503843)
  37:      1473.51   32.267735  (  5.075060   1.545105  -2.030800)
  38:      1499.97  141.359158  (  2.396653  -1.364512  11.565177)
  39:      1654.67   39.894689  (  5.781433  -2.376072  -0.907746)
  40:      1657.99   48.080036  ( -2.553571  -6.293630  -1.396258)
  41:      3048.98   15.703074  (  1.585368   1.888138   3.102357)
  42:      3083.46    4.778717  (  1.174050   0.639124   1.729695)
  43:      3116.93   13.198510  (  0.287036   3.619252  -0.130888)
  44:      3142.90    0.688271  (  0.781554   0.012422  -0.278009)
  45:      3168.68    1.278818  ( -0.574806   0.265425   0.936998)
  46:      3410.50   46.432842  (  0.506396   2.679534  -6.244718)
  47:      3491.38   97.753569  ( -9.497469  -2.746052  -0.104165)
  48:      3500.31   86.063879  (  3.135354  -8.598305  -1.517427)
  49:      3766.57   95.754853  ( -2.306288  -2.636045  -9.137131)
  50:      3872.72  123.713139  ( -2.446838  -2.043089  10.656074)

--------------------------
THERMOCHEMISTRY AT 298.15K
--------------------------

Temperature         ... 298.15 K
Pressure            ... 1.00 atm
Total Mass          ... 104.13 AMU

Throughout the following assumptions are being made:
  (1) The electronic state is orbitally nondegenerate
  (2) There are no thermally accessible electronically excited states
  (3) Hindered rotations indicated by low frequency modes) are not
      treated as such but are treated as vibrations and this may
      case some error
  (4) All equations used are the standard statistical mechanics
      equations for an ideal gas
  (5) All vibrations are strinctly harmonic

------------
INNER ENERGY
------------

The inner energy is: U= E(el) + E(ZPE) + E(vib) + E(rot) + E(trans)
    E(el)   - is the total energy from the electronic structure calculation
              = E(kin-el) + E(nuc-el) + E(el-el) + E(nuc-nuc)
    E(ZPE)  - the the zero temperature vibrational energy from the frequency calculation
    E(vib)  - the the finite temperature correction to E(ZPE) due to population
              of excietd vibrational states
    E(rot)  - is the rotational thermal energy
    E(trans)- is the translational thermal energy

Summary of contributions to the inner energy U:
Electronic energy                ...   -363.10491537 Eh
Zero point energy                ...      0.15238643 Eh      95.62 kcal/mol
Thermal vibrational correction   ...      0.00480884 Eh       3.02 kcal/mol
Thermal rotational correction    ...      0.00141627 Eh       0.89 kcal/mol
Thermal translational correction ...      0.00141627 Eh       0.89 kcal/mol
-----------------------------------------------------------------------
Total thermal energy                   -362.94488755 Eh

Summary of corrections to the electronic energy:
(perhaps to be used in another calculation)
Total thermal correction                  0.00764138 Eh       4.80 kcal/mol
Non-thermal (ZPE) correction              0.15238643 Eh      95.62 kcal/mol
-----------------------------------------------------------------------
Total correction                          0.16002781 Eh     100.42 kcal/mol

--------
ENTHALPY
--------

The enthalpy is H = U + kB*T
                kB is Boltzmann's constant
Total free energy                 ...   -362.94488755 Eh
Thermal Enthalpy correction       ...      0.00094421 Eh       0.59 kcal/mol
-----------------------------------------------------------------------
Total Enthalpy                    ...   -362.94394334 Eh

-------
ENTROPY
-------

The entropy contributions are T*S = T*(S(el)+S(vib)+S(rot)+S(trans)
     S(el)   - electronic entropy
     S(vib)  - vibrational entropy
     S(rot)  - rotational entropy
     S(trans)- translational entropy
The entropies will be listed as mutliplied by the temperature to get
units of energy

Electronic entropy                ...      0.00000000 Eh      0.00 kcal/mol
Vibrational entropy               ...      0.00791706 Eh      4.97 kcal/mol
Rotational entropy                ...      0.01201641 Eh      7.54 kcal/mol
Translational entropy             ...      0.01892854 Eh     11.88 kcal/mol
-----------------------------------------------------------------------
Final entropy term                ...      0.03886201 Eh     24.39 kcal/mol

CAUTION: The rotational entropy is not quite correctly treated here
         because it includes a symmetry number that is not yet correctly
         implemented in ORCA!
For a nonlinear molecule the correct rotational entropy is:
    S(rot) = R*(ln(qrot/sn)+1.5)
    R    = 8.31441 J/mol/K = 1.987191683e-3 kcal/mol/K
    qrot = 225352.0808097
    sn is the rotational symmetry number. We have assumed 3 here
       if it is different for your molecule then you should correct
       the printed rotational entropy by manually evaluating the equation
       as given above

For convenience we print out the resulting values for sn=1 - 12:
 sn= 1  qrot/sn=  225352.0808 T*S(rot)=     8.19 kcal/mol T*S(tot)=    25.04 kcal/mol
 sn= 2  qrot/sn=  112676.0404 T*S(rot)=     7.78 kcal/mol T*S(tot)=    24.63 kcal/mol
 sn= 3  qrot/sn=   75117.3603 T*S(rot)=     7.54 kcal/mol T*S(tot)=    24.39 kcal/mol
 sn= 4  qrot/sn=   56338.0202 T*S(rot)=     7.37 kcal/mol T*S(tot)=    24.22 kcal/mol
 sn= 5  qrot/sn=   45070.4162 T*S(rot)=     7.24 kcal/mol T*S(tot)=    24.08 kcal/mol
 sn= 6  qrot/sn=   37558.6801 T*S(rot)=     7.13 kcal/mol T*S(tot)=    23.98 kcal/mol
 sn= 7  qrot/sn=   32193.1544 T*S(rot)=     7.04 kcal/mol T*S(tot)=    23.88 kcal/mol
 sn= 8  qrot/sn=   28169.0101 T*S(rot)=     6.96 kcal/mol T*S(tot)=    23.81 kcal/mol
 sn= 9  qrot/sn=   25039.1201 T*S(rot)=     6.89 kcal/mol T*S(tot)=    23.74 kcal/mol
 sn=10  qrot/sn=   22535.2081 T*S(rot)=     6.83 kcal/mol T*S(tot)=    23.67 kcal/mol
 sn=11  qrot/sn=   20486.5528 T*S(rot)=     6.77 kcal/mol T*S(tot)=    23.62 kcal/mol
 sn=12  qrot/sn=   18779.3401 T*S(rot)=     6.72 kcal/mol T*S(tot)=    23.56 kcal/mol

-------------------
GIBBS FREE ENTHALPY
-------------------

The Gibbs free enthalpy is G = H - T*S

Total enthalpy                    ...   -362.94394334 Eh
Total entropy correction          ...     -0.03886201 Eh    -24.39 kcal/mol
-----------------------------------------------------------------------
Final Gibbs free enthalpy         ...   -362.98280536 Eh

For completeness - the Gibbs free enthalpy minus the electronic energy
G-E(el)                           ...      0.12211001 Eh     76.63 kcal/mol

                             ****ORCA TERMINATED NORMALLY****
TOTAL RUN TIME: 0 days 0 hours 36 minutes 16 seconds 66 msec
