                         Program Version 3.0.3 - RELEASE   -
|  1> ! NORI PBE0 def2-TZVP UseSym TightOPT Freq TightSCF Grid3 FinalGrid5 XYZFile
|  2> % pal
|  3>     nprocs 8
|  4> end
|  5> %method
|  6>     SymThresh 5.0e-2
|  7> end
|  8> % geom
|  9>     MaxIter 10
| 10> end
| 11> % maxcore 2000
| 12> % output
| 13>     printlevel mini
| 14>     print[ P_Basis ] 0
| 15>     print[ P_SCFInfo ] 1
| 16>     print[ P_SCFIterInfo ] 1
| 17>     print[ P_OrbEn ] 0
| 18>     print[ P_Cartesian ] 0
| 19> end
| 20> % elprop
| 21>     Dipole false
| 22> end
| 23> *xyz 1 1
| 24>  N        1.0407485892     0.0418004029    -0.0768189429
| 25>  C        2.5138345797     0.2628517586    -0.0444919008
| 26>  C        3.0900100607     1.3253100007     0.8625045733
| 27>  C        4.4440274523     0.6819819304     1.1875344295
| 28>  O        4.2076621456    -0.7443777202     1.1808353410
| 29>  C        3.0946642830    -1.0253585067     0.5406442563
| 30>  O        2.5490410043    -2.0846269369     0.4454551859
| 31>  H        0.9262702721    -0.9875811597    -0.1692336596
| 32>  H        0.5700001806     0.5175932772    -0.8467841592
| 33>  H        0.5922557369     0.3245188804     0.7976831610
| 34>  H        2.8507679257     0.3637767407    -1.0794435381
| 35>  H        2.4962370003     1.4228303888     1.7767725280
| 36>  H        3.1947535742     2.3076775073     0.4046911743
| 37>  H        4.8211458995     0.9428812468     2.1732470841
| 38>  H        5.2038512957     0.9047121897     0.4362544673
| 39> *
| 40>
| 41>                          ****END OF INPUT****
 Total Charge           Charge          ....    1
 Multiplicity           Mult            ....    1
 Number of Electrons    NEL             ....   54
FINAL SINGLE POINT ENERGY      -361.934352802776

CARTESIAN COORDINATES (ANGSTROEM)
---------------------------------
  N      0.437603   -0.222889   -1.978434
  C     -0.248523    0.365320   -0.793955
  C     -1.542889   -0.240796   -0.303405
  C     -1.415902    0.055581    1.196331
  O     -0.000049   -0.000155    1.484280
  C      0.701226    0.115998    0.378626
  O      1.883146    0.000419    0.242709
  H      1.451908   -0.160341   -1.758966
  H      0.237378    0.262635   -2.853187
  H      0.209201   -1.212150   -2.100544
  H     -0.324748    1.442379   -0.963562
  H     -1.555108   -1.323003   -0.468160
  H     -2.442588    0.191193   -0.738762
  H     -1.903611   -0.684302    1.826255
  H     -1.777535    1.051577    1.457627

FINAL SINGLE POINT ENERGY      -361.934353073796
                    ***********************HURRAY********************
 Multiplicity           Mult            ....    1
 Number of Electrons    NEL             ....   54
 Basis Dimension        Dim             ....  265
FINAL SINGLE POINT ENERGY      -361.934353154382

VIBRATIONAL FREQUENCIES
-----------------------

   0:         0.00 cm**-1
   1:         0.00 cm**-1
   2:         0.00 cm**-1
   3:         0.00 cm**-1
   4:         0.00 cm**-1
   5:         0.00 cm**-1
   6:       140.46 cm**-1
   7:       210.13 cm**-1
   8:       239.26 cm**-1
   9:       282.68 cm**-1
  10:       378.45 cm**-1
  11:       513.75 cm**-1
  12:       584.67 cm**-1
  13:       670.85 cm**-1
  14:       730.86 cm**-1
  15:       806.83 cm**-1
  16:       864.51 cm**-1
  17:       944.62 cm**-1
  18:       983.74 cm**-1
  19:      1009.42 cm**-1
  20:      1053.25 cm**-1
  21:      1082.62 cm**-1
  22:      1114.41 cm**-1
  23:      1172.34 cm**-1
  24:      1213.14 cm**-1
  25:      1250.26 cm**-1
  26:      1264.16 cm**-1
  27:      1322.18 cm**-1
  28:      1332.81 cm**-1
  29:      1395.09 cm**-1
  30:      1432.68 cm**-1
  31:      1484.81 cm**-1
  32:      1490.63 cm**-1
  33:      1519.36 cm**-1
  34:      1635.73 cm**-1
  35:      1661.31 cm**-1
  36:      1890.95 cm**-1
  37:      3067.44 cm**-1
  38:      3103.64 cm**-1
  39:      3105.19 cm**-1
  40:      3157.80 cm**-1
  41:      3181.14 cm**-1
  42:      3223.28 cm**-1
  43:      3459.84 cm**-1
  44:      3521.90 cm**-1

IR SPECTRUM
-----------

 Mode    freq (cm**-1)   T**2         TX         TY         TZ
-------------------------------------------------------------------
   6:       140.46    6.205120  ( -0.552894  -2.385747  -0.455674)
   7:       210.13    5.551530  (  0.187688  -1.473270   1.829147)
   8:       239.26   12.443894  (  0.495211   0.226776   3.485288)
   9:       282.68   38.954908  ( -2.167396  -0.933574  -5.778040)
  10:       378.45    4.288909  (  0.914544  -0.582072  -1.764571)
  11:       513.75   12.432643  ( -1.764287  -0.564161   3.000276)
  12:       584.67    6.367312  ( -1.909048   0.824714   1.429229)
  13:       670.85    8.103703  ( -1.088100  -1.107072   2.386238)
  14:       730.86    5.907038  (  1.457296  -1.932020   0.225005)
  15:       806.83    7.723088  ( -0.662413  -1.669097   2.120946)
  16:       864.51    0.652700  (  0.108231  -0.791776  -0.118651)
  17:       944.62   13.323434  (  3.477510  -0.022886   1.108979)
  18:       983.74    2.213506  ( -0.647391   0.561293   1.216281)
  19:      1009.42    4.291377  ( -0.160664   2.063126   0.095264)
  20:      1053.25   78.483104  ( -8.305442   0.023136  -3.082564)
  21:      1082.62   31.200571  ( -1.962429  -0.544204  -5.201277)
  22:      1114.41   16.222135  ( -2.725441   1.097918  -2.754756)
  23:      1172.34   10.348418  ( -0.173369   1.915838   2.578357)
  24:      1213.14    9.696597  (  0.488646   1.065039  -2.885050)
  25:      1250.26    1.615489  (  1.247237   0.000236  -0.244723)
  26:      1264.16  146.786181  ( -7.433775  -1.005766   9.513864)
  27:      1322.18   13.448425  ( -1.078702   0.042060   3.504719)
  28:      1332.81   15.623006  (  2.571166   0.983747  -2.836257)
  29:      1395.09   26.603483  ( -2.036092  -1.177380   4.590380)
  30:      1432.68   25.041610  (  1.803205   0.481014  -4.643133)
  31:      1484.81  119.125430  (  7.377099  -2.507131  -7.643176)
  32:      1490.63  102.725993  ( -3.707529   3.941842   8.569837)
  33:      1519.36    8.305775  (  1.533561  -0.373841  -2.411267)
  34:      1635.73   50.186899  (  3.460737   6.130567   0.791418)
  35:      1661.31   35.873688  (  2.919783  -2.411113   4.640591)
  36:      1890.95  354.902049  ( 18.604218  -0.894025  -2.825924)
  37:      3067.44    3.706893  ( -0.566459   1.500586   1.065016)
  38:      3103.64    6.486734  ( -1.874534   1.481592   0.881897)
  39:      3105.19    2.288040  ( -0.754651   0.937296  -0.916524)
  40:      3157.80    0.380362  ( -0.472355   0.053638   0.392894)
  41:      3181.14    0.128187  (  0.024096  -0.190818  -0.301986)
  42:      3223.28  129.911448  (-10.222351  -0.695480  -4.993125)
  43:      3459.84   90.513604  ( -3.268774  -4.933938  -7.448824)
  44:      3521.90  116.584884  (  0.502787  -7.930794   7.309898)

--------------------------
THERMOCHEMISTRY AT 298.15K
--------------------------

Temperature         ... 298.15 K
Pressure            ... 1.00 atm
Total Mass          ... 102.11 AMU

Throughout the following assumptions are being made:
  (1) The electronic state is orbitally nondegenerate
  (2) There are no thermally accessible electronically excited states
  (3) Hindered rotations indicated by low frequency modes) are not
      treated as such but are treated as vibrations and this may
      case some error
  (4) All equations used are the standard statistical mechanics
      equations for an ideal gas
  (5) All vibrations are strinctly harmonic

------------
INNER ENERGY
------------

The inner energy is: U= E(el) + E(ZPE) + E(vib) + E(rot) + E(trans)
    E(el)   - is the total energy from the electronic structure calculation
              = E(kin-el) + E(nuc-el) + E(el-el) + E(nuc-nuc)
    E(ZPE)  - the the zero temperature vibrational energy from the frequency calculation
    E(vib)  - the the finite temperature correction to E(ZPE) due to population
              of excietd vibrational states
    E(rot)  - is the rotational thermal energy
    E(trans)- is the translational thermal energy

Summary of contributions to the inner energy U:
Electronic energy                ...   -361.93435315 Eh
Zero point energy                ...      0.13098604 Eh      82.19 kcal/mol
Thermal vibrational correction   ...      0.00354390 Eh       2.22 kcal/mol
Thermal rotational correction    ...      0.00141627 Eh       0.89 kcal/mol
Thermal translational correction ...      0.00141627 Eh       0.89 kcal/mol
-----------------------------------------------------------------------
Total thermal energy                   -361.79699067 Eh

Summary of corrections to the electronic energy:
(perhaps to be used in another calculation)
Total thermal correction                  0.00637645 Eh       4.00 kcal/mol
Non-thermal (ZPE) correction              0.13098604 Eh      82.19 kcal/mol
-----------------------------------------------------------------------
Total correction                          0.13736249 Eh      86.20 kcal/mol

--------
ENTHALPY
--------

The enthalpy is H = U + kB*T
                kB is Boltzmann's constant
Total free energy                 ...   -361.79699067 Eh
Thermal Enthalpy correction       ...      0.00094421 Eh       0.59 kcal/mol
-----------------------------------------------------------------------
Total Enthalpy                    ...   -361.79604646 Eh

-------
ENTROPY
-------

The entropy contributions are T*S = T*(S(el)+S(vib)+S(rot)+S(trans)
     S(el)   - electronic entropy
     S(vib)  - vibrational entropy
     S(rot)  - rotational entropy
     S(trans)- translational entropy
The entropies will be listed as mutliplied by the temperature to get
units of energy

Electronic entropy                ...      0.00000000 Eh      0.00 kcal/mol
Vibrational entropy               ...      0.00574032 Eh      3.60 kcal/mol
Rotational entropy                ...      0.01184558 Eh      7.43 kcal/mol
Translational entropy             ...      0.01890086 Eh     11.86 kcal/mol
-----------------------------------------------------------------------
Final entropy term                ...      0.03648676 Eh     22.90 kcal/mol

CAUTION: The rotational entropy is not quite correctly treated here
         because it includes a symmetry number that is not yet correctly
         implemented in ORCA!
For a nonlinear molecule the correct rotational entropy is:
    S(rot) = R*(ln(qrot/sn)+1.5)
    R    = 8.31441 J/mol/K = 1.987191683e-3 kcal/mol/K
    qrot = 188054.7012725
    sn is the rotational symmetry number. We have assumed 3 here
       if it is different for your molecule then you should correct
       the printed rotational entropy by manually evaluating the equation
       as given above

For convenience we print out the resulting values for sn=1 - 12:
 sn= 1  qrot/sn=  188054.7013 T*S(rot)=     8.08 kcal/mol T*S(tot)=    23.55 kcal/mol
 sn= 2  qrot/sn=   94027.3506 T*S(rot)=     7.67 kcal/mol T*S(tot)=    23.14 kcal/mol
 sn= 3  qrot/sn=   62684.9004 T*S(rot)=     7.43 kcal/mol T*S(tot)=    22.90 kcal/mol
 sn= 4  qrot/sn=   47013.6753 T*S(rot)=     7.26 kcal/mol T*S(tot)=    22.73 kcal/mol
 sn= 5  qrot/sn=   37610.9403 T*S(rot)=     7.13 kcal/mol T*S(tot)=    22.59 kcal/mol
 sn= 6  qrot/sn=   31342.4502 T*S(rot)=     7.02 kcal/mol T*S(tot)=    22.49 kcal/mol
 sn= 7  qrot/sn=   26864.9573 T*S(rot)=     6.93 kcal/mol T*S(tot)=    22.39 kcal/mol
 sn= 8  qrot/sn=   23506.8377 T*S(rot)=     6.85 kcal/mol T*S(tot)=    22.31 kcal/mol
 sn= 9  qrot/sn=   20894.9668 T*S(rot)=     6.78 kcal/mol T*S(tot)=    22.24 kcal/mol
 sn=10  qrot/sn=   18805.4701 T*S(rot)=     6.72 kcal/mol T*S(tot)=    22.18 kcal/mol
 sn=11  qrot/sn=   17095.8819 T*S(rot)=     6.66 kcal/mol T*S(tot)=    22.13 kcal/mol
 sn=12  qrot/sn=   15671.2251 T*S(rot)=     6.61 kcal/mol T*S(tot)=    22.07 kcal/mol

-------------------
GIBBS FREE ENTHALPY
-------------------

The Gibbs free enthalpy is G = H - T*S

Total enthalpy                    ...   -361.79604646 Eh
Total entropy correction          ...     -0.03648676 Eh    -22.90 kcal/mol
-----------------------------------------------------------------------
Final Gibbs free enthalpy         ...   -361.83253321 Eh

For completeness - the Gibbs free enthalpy minus the electronic energy
G-E(el)                           ...      0.10181994 Eh     63.89 kcal/mol

                             ****ORCA TERMINATED NORMALLY****
TOTAL RUN TIME: 0 days 0 hours 30 minutes 26 seconds 229 msec
