                         Program Version 3.0.3 - RELEASE   -
|  1> ! NORI PBE0 def2-TZVP UseSym TightOPT Freq TightSCF Grid3 FinalGrid5 XYZFile
|  2> % pal
|  3>     nprocs 8
|  4> end
|  5> %method
|  6>     SymThresh 5.0e-2
|  7> end
|  8> % geom
|  9>     MaxIter 10
| 10> end
| 11> % maxcore 2000
| 12> % output
| 13>     printlevel mini
| 14>     print[ P_Basis ] 0
| 15>     print[ P_SCFInfo ] 1
| 16>     print[ P_SCFIterInfo ] 1
| 17>     print[ P_OrbEn ] 0
| 18>     print[ P_Cartesian ] 0
| 19> end
| 20> % elprop
| 21>     Dipole false
| 22> end
| 23> *xyz 1 1
| 24>  N        0.9869911454     0.1054566035     0.2720616713
| 25>  C        2.5002326925     0.0562667568     0.1159996763
| 26>  C        2.9102703104    -1.3478014987    -0.2975966238
| 27>  C        2.5680869178    -1.6236008545    -1.7567492197
| 28>  O        3.1023546551    -0.6410287412    -2.6013447004
| 29>  C        2.5825037999     0.6328456976    -2.3325022459
| 30>  C        2.9256350520     1.0846688528    -0.9188617196
| 31>  H        0.6738645960     1.0381707003     0.5467844125
| 32>  H        0.6661953565    -0.5602203155     0.9773483698
| 33>  H        0.5282840398    -0.1303189085    -0.6112587567
| 34>  H        2.8847339247     0.3072622857     1.1066273614
| 35>  H        3.9937250581    -1.4135683877    -0.1713426633
| 36>  H        2.4722210056    -2.1064403876     0.3594240609
| 37>  H        2.9889959707    -2.5797281250    -2.0671833822
| 38>  H        1.4749806146    -1.6970985215    -1.9113121916
| 39>  H        1.4902571654     0.6365326263    -2.5080971057
| 40>  H        3.0151635607     1.3175987522    -3.0616879368
| 41>  H        2.4991931305     2.0708790070    -0.7058426676
| 42>  H        4.0099710045     1.1897344581    -0.8362563390
| 43> *
| 44>
| 45>                          ****END OF INPUT****
 Total Charge           Charge          ....    1
 Multiplicity           Mult            ....    1
 Number of Electrons    NEL             ....   56
FINAL SINGLE POINT ENERGY      -327.224268536593
FINAL SINGLE POINT ENERGY      -327.224269981740

CARTESIAN COORDINATES (ANGSTROEM)
---------------------------------
  N     -1.833618   -0.864955   -0.000000
  C     -1.124021    0.481680   -0.000000
  C     -0.273951    0.592802    1.255175
  C      0.973508   -0.276654    1.164354
  O      1.703779   -0.002000    0.000000
  C      0.973508   -0.276654   -1.164354
  C     -0.273951    0.592802   -1.255175
  H     -2.422446   -0.972933   -0.827835
  H     -2.422446   -0.972933    0.827835
  H     -1.151745   -1.627550   -0.000001
  H     -1.931924    1.215987    0.000000
  H      0.030607    1.638501    1.342382
  H     -0.851735    0.359273    2.155823
  H      1.631175   -0.080960    2.011241
  H      0.722537   -1.353285    1.204145
  H      0.722536   -1.353285   -1.204145
  H      1.631175   -0.080960   -2.011241
  H     -0.851735    0.359273   -2.155823
  H      0.030607    1.638501   -1.342382

FINAL SINGLE POINT ENERGY      -327.224270396608
                    ***********************HURRAY********************
 Multiplicity           Mult            ....    1
 Number of Electrons    NEL             ....   56
 Basis Dimension        Dim             ....  289
FINAL SINGLE POINT ENERGY      -327.224270464088

VIBRATIONAL FREQUENCIES
-----------------------

   0:         0.00 cm**-1
   1:         0.00 cm**-1
   2:         0.00 cm**-1
   3:         0.00 cm**-1
   4:         0.00 cm**-1
   5:         0.00 cm**-1
   6:       161.43 cm**-1
   7:       187.96 cm**-1
   8:       217.91 cm**-1
   9:       323.61 cm**-1
  10:       382.49 cm**-1
  11:       416.34 cm**-1
  12:       487.71 cm**-1
  13:       500.12 cm**-1
  14:       646.39 cm**-1
  15:       776.15 cm**-1
  16:       809.79 cm**-1
  17:       866.36 cm**-1
  18:       882.15 cm**-1
  19:       919.64 cm**-1
  20:       978.86 cm**-1
  21:       995.21 cm**-1
  22:      1022.92 cm**-1
  23:      1030.80 cm**-1
  24:      1068.58 cm**-1
  25:      1139.48 cm**-1
  26:      1164.58 cm**-1
  27:      1172.17 cm**-1
  28:      1224.85 cm**-1
  29:      1264.79 cm**-1
  30:      1279.72 cm**-1
  31:      1328.49 cm**-1
  32:      1359.84 cm**-1
  33:      1368.66 cm**-1
  34:      1390.95 cm**-1
  35:      1397.83 cm**-1
  36:      1399.41 cm**-1
  37:      1432.40 cm**-1
  38:      1457.88 cm**-1
  39:      1469.39 cm**-1
  40:      1486.09 cm**-1
  41:      1493.49 cm**-1
  42:      1506.25 cm**-1
  43:      1651.16 cm**-1
  44:      1655.46 cm**-1
  45:      2930.15 cm**-1
  46:      2937.14 cm**-1
  47:      3061.33 cm**-1
  48:      3061.97 cm**-1
  49:      3107.84 cm**-1
  50:      3117.22 cm**-1
  51:      3120.39 cm**-1
  52:      3135.60 cm**-1
  53:      3137.11 cm**-1
  54:      3416.50 cm**-1
  55:      3496.10 cm**-1
  56:      3515.19 cm**-1

IR SPECTRUM
-----------

 Mode    freq (cm**-1)   T**2         TX         TY         TZ
-------------------------------------------------------------------
   6:       161.43   12.053016  (  3.404753   0.678729  -0.000287)
   7:       187.96    1.270802  ( -0.000845  -0.000253  -1.127298)
   8:       217.91    0.811311  ( -0.000132  -0.000042   0.900728)
   9:       323.61   16.032769  ( -3.916417   0.833334  -0.000026)
  10:       382.49    4.154094  ( -0.000019   0.000013   2.038159)
  11:       416.34    3.950663  ( -0.546278  -1.911084   0.000003)
  12:       487.71    0.594938  (  0.000030  -0.000119   0.771322)
  13:       500.12    2.185064  ( -0.183220   1.466797   0.000079)
  14:       646.39    9.159778  (  2.994034  -0.442199   0.000044)
  15:       776.15   10.690745  (  3.209190  -0.625973  -0.000034)
  16:       809.79    1.227866  ( -0.000031   0.000006  -1.108091)
  17:       866.36   11.132271  (  3.000095   1.460034   0.000005)
  18:       882.15    1.468775  ( -0.000017   0.000010  -1.211930)
  19:       919.64    7.934496  (  2.628561  -1.012502  -0.000006)
  20:       978.86    2.985403  ( -0.000059   0.000073  -1.727832)
  21:       995.21    0.486417  ( -0.550580  -0.428111  -0.000101)
  22:      1022.92   11.500110  (  2.599121  -2.178228  -0.000064)
  23:      1030.80    1.393482  (  0.000032   0.000032  -1.180458)
  24:      1068.58   36.440565  ( -4.588529  -3.922495  -0.000034)
  25:      1139.48   54.632661  ( -0.000052  -0.000067  -7.391391)
  26:      1164.58   11.420924  ( -0.399967   3.355734  -0.000345)
  27:      1172.17   15.434176  (  0.000058  -0.000151  -3.928635)
  28:      1224.85    6.114783  ( -0.000013  -0.000003   2.472809)
  29:      1264.79   70.145809  ( -0.000001  -0.000052   8.375309)
  30:      1279.72    0.167841  ( -0.215914  -0.348170  -0.000207)
  31:      1328.49    6.351623  ( -1.857068  -1.703796  -0.000131)
  32:      1359.84    0.076565  (  0.000000   0.000010  -0.276704)
  33:      1368.66    0.636910  (  0.000043  -0.000012  -0.798066)
  34:      1390.95   15.540963  ( -3.756917   1.194376   0.000034)
  35:      1397.83   22.549450  (  4.706598  -0.630381  -0.000308)
  36:      1399.41    3.553702  (  0.000814  -0.000123   1.885126)
  37:      1432.40    0.529226  (  0.363802   0.629979   0.000027)
  38:      1457.88   12.065309  (  0.000009   0.000094  -3.473515)
  39:      1469.39   68.066569  (  3.223354   7.594508   0.000017)
  40:      1486.09   67.354658  (  5.821380   5.784998   0.000018)
  41:      1493.49    7.559277  ( -0.000282  -0.000445   2.749414)
  42:      1506.25   60.316050  ( -2.831077  -7.231947  -0.000138)
  43:      1651.16   46.499866  ( -6.056313   3.133836  -0.003952)
  44:      1655.46   29.901936  (  0.004373  -0.002340  -5.468264)
  45:      2930.15    9.390922  (  0.000008   0.000110  -3.064461)
  46:      2937.14  115.873422  ( -3.265903 -10.257061   0.000004)
  47:      3061.33    9.258195  ( -0.004447  -0.001082  -3.042725)
  48:      3061.97    7.813097  ( -2.717074  -0.656187   0.004931)
  49:      3107.84    5.286684  (  2.275442  -0.330226   0.000022)
  50:      3117.22    6.277946  (  0.000029  -0.000118  -2.505583)
  51:      3120.39    1.368078  ( -0.243976  -1.143920   0.000280)
  52:      3135.60    5.317176  (  0.000039  -0.000005  -2.305900)
  53:      3137.11    0.426833  (  0.553837   0.346551   0.000120)
  54:      3416.50   22.377673  ( -1.603895  -4.450303   0.000077)
  55:      3496.10  102.831326  ( -9.918312   2.111497   0.000420)
  56:      3515.19   80.654879  (  0.000472  -0.000046   8.980806)

--------------------------
THERMOCHEMISTRY AT 298.15K
--------------------------

Temperature         ... 298.15 K
Pressure            ... 1.00 atm
Total Mass          ... 102.16 AMU

Throughout the following assumptions are being made:
  (1) The electronic state is orbitally nondegenerate
  (2) There are no thermally accessible electronically excited states
  (3) Hindered rotations indicated by low frequency modes) are not
      treated as such but are treated as vibrations and this may
      case some error
  (4) All equations used are the standard statistical mechanics
      equations for an ideal gas
  (5) All vibrations are strinctly harmonic

------------
INNER ENERGY
------------

The inner energy is: U= E(el) + E(ZPE) + E(vib) + E(rot) + E(trans)
    E(el)   - is the total energy from the electronic structure calculation
              = E(kin-el) + E(nuc-el) + E(el-el) + E(nuc-nuc)
    E(ZPE)  - the the zero temperature vibrational energy from the frequency calculation
    E(vib)  - the the finite temperature correction to E(ZPE) due to population
              of excietd vibrational states
    E(rot)  - is the rotational thermal energy
    E(trans)- is the translational thermal energy

Summary of contributions to the inner energy U:
Electronic energy                ...   -327.22427046 Eh
Zero point energy                ...      0.17850313 Eh     112.01 kcal/mol
Thermal vibrational correction   ...      0.00403267 Eh       2.53 kcal/mol
Thermal rotational correction    ...      0.00141627 Eh       0.89 kcal/mol
Thermal translational correction ...      0.00141627 Eh       0.89 kcal/mol
-----------------------------------------------------------------------
Total thermal energy                   -327.03890212 Eh

Summary of corrections to the electronic energy:
(perhaps to be used in another calculation)
Total thermal correction                  0.00686521 Eh       4.31 kcal/mol
Non-thermal (ZPE) correction              0.17850313 Eh     112.01 kcal/mol
-----------------------------------------------------------------------
Total correction                          0.18536835 Eh     116.32 kcal/mol

--------
ENTHALPY
--------

The enthalpy is H = U + kB*T
                kB is Boltzmann's constant
Total free energy                 ...   -327.03890212 Eh
Thermal Enthalpy correction       ...      0.00094421 Eh       0.59 kcal/mol
-----------------------------------------------------------------------
Total Enthalpy                    ...   -327.03795791 Eh

-------
ENTROPY
-------

The entropy contributions are T*S = T*(S(el)+S(vib)+S(rot)+S(trans)
     S(el)   - electronic entropy
     S(vib)  - vibrational entropy
     S(rot)  - rotational entropy
     S(trans)- translational entropy
The entropies will be listed as mutliplied by the temperature to get
units of energy

Electronic entropy                ...      0.00000000 Eh      0.00 kcal/mol
Vibrational entropy               ...      0.00639858 Eh      4.02 kcal/mol
Rotational entropy                ...      0.01189587 Eh      7.46 kcal/mol
Translational entropy             ...      0.01890147 Eh     11.86 kcal/mol
-----------------------------------------------------------------------
Final entropy term                ...      0.03719591 Eh     23.34 kcal/mol

CAUTION: The rotational entropy is not quite correctly treated here
         because it includes a symmetry number that is not yet correctly
         implemented in ORCA!
For a nonlinear molecule the correct rotational entropy is:
    S(rot) = R*(ln(qrot/sn)+1.5)
    R    = 8.31441 J/mol/K = 1.987191683e-3 kcal/mol/K
    qrot = 198342.5698647
    sn is the rotational symmetry number. We have assumed 3 here
       if it is different for your molecule then you should correct
       the printed rotational entropy by manually evaluating the equation
       as given above

For convenience we print out the resulting values for sn=1 - 12:
 sn= 1  qrot/sn=  198342.5699 T*S(rot)=     8.12 kcal/mol T*S(tot)=    23.99 kcal/mol
 sn= 2  qrot/sn=   99171.2849 T*S(rot)=     7.70 kcal/mol T*S(tot)=    23.58 kcal/mol
 sn= 3  qrot/sn=   66114.1900 T*S(rot)=     7.46 kcal/mol T*S(tot)=    23.34 kcal/mol
 sn= 4  qrot/sn=   49585.6425 T*S(rot)=     7.29 kcal/mol T*S(tot)=    23.17 kcal/mol
 sn= 5  qrot/sn=   39668.5140 T*S(rot)=     7.16 kcal/mol T*S(tot)=    23.04 kcal/mol
 sn= 6  qrot/sn=   33057.0950 T*S(rot)=     7.05 kcal/mol T*S(tot)=    22.93 kcal/mol
 sn= 7  qrot/sn=   28334.6528 T*S(rot)=     6.96 kcal/mol T*S(tot)=    22.84 kcal/mol
 sn= 8  qrot/sn=   24792.8212 T*S(rot)=     6.88 kcal/mol T*S(tot)=    22.76 kcal/mol
 sn= 9  qrot/sn=   22038.0633 T*S(rot)=     6.81 kcal/mol T*S(tot)=    22.69 kcal/mol
 sn=10  qrot/sn=   19834.2570 T*S(rot)=     6.75 kcal/mol T*S(tot)=    22.63 kcal/mol
 sn=11  qrot/sn=   18031.1427 T*S(rot)=     6.69 kcal/mol T*S(tot)=    22.57 kcal/mol
 sn=12  qrot/sn=   16528.5475 T*S(rot)=     6.64 kcal/mol T*S(tot)=    22.52 kcal/mol

-------------------
GIBBS FREE ENTHALPY
-------------------

The Gibbs free enthalpy is G = H - T*S

Total enthalpy                    ...   -327.03795791 Eh
Total entropy correction          ...     -0.03719591 Eh    -23.34 kcal/mol
-----------------------------------------------------------------------
Final Gibbs free enthalpy         ...   -327.07515382 Eh

For completeness - the Gibbs free enthalpy minus the electronic energy
G-E(el)                           ...      0.14911665 Eh     93.57 kcal/mol

                             ****ORCA TERMINATED NORMALLY****
TOTAL RUN TIME: 0 days 0 hours 52 minutes 45 seconds 800 msec
