                         Program Version 3.0.3 - RELEASE   -
|  1> ! NORI PBE0 def2-TZVP UseSym TightOPT Freq TightSCF Grid3 FinalGrid5 XYZFile
|  2> % pal
|  3>     nprocs 8
|  4> end
|  5> %method
|  6>     SymThresh 5.0e-2
|  7> end
|  8> % geom
|  9>     MaxIter 10
| 10> end
| 11> % maxcore 2000
| 12> % output
| 13>     printlevel mini
| 14>     print[ P_Basis ] 0
| 15>     print[ P_SCFInfo ] 1
| 16>     print[ P_SCFIterInfo ] 1
| 17>     print[ P_OrbEn ] 0
| 18>     print[ P_Cartesian ] 0
| 19> end
| 20> % elprop
| 21>     Dipole false
| 22> end
| 23> *xyz 1 1
| 24>  N        0.8055302510    -0.2635568824     0.0312262530
| 25>  C        2.2459791218    -0.1049739427    -0.3164287362
| 26>  C        3.0942942536    -0.0684814072     0.9281355052
| 27>  C        2.8257856307     1.1371864936     1.8090903047
| 28>  O        1.4357929659     1.1279517007     2.1467212477
| 29>  C        2.6948258040    -0.7432180908    -1.5846521667
| 30>  C        2.5406206133     0.7490578913    -1.5038521489
| 31>  H        0.1922934493    -0.0288029000    -0.7483520987
| 32>  H        0.6322394615     0.3738812706     0.8439803747
| 33>  H        0.5982403301    -1.2198879773     0.3249299923
| 34>  H        4.1436772754    -0.0560063220     0.6267258264
| 35>  H        2.9496759163    -0.9891097834     1.5058994255
| 36>  H        3.0771476403     2.0628391578     1.2799663640
| 37>  H        3.4341677367     1.0765173978     2.7147731765
| 38>  H        1.2263681888     1.8541627332     2.7409569410
| 39>  H        3.6911528535    -1.1660254965    -1.5994294444
| 40>  H        1.9712750964    -1.2927035144    -2.1766318072
| 41>  H        1.7182569178     1.2037843306    -2.0447856084
| 42>  H        3.4314864936     1.3623553411    -1.4602334005
| 43> *
| 44>
| 45>                          ****END OF INPUT****
 Total Charge           Charge          ....    1
 Multiplicity           Mult            ....    1
 Number of Electrons    NEL             ....   56
FINAL SINGLE POINT ENERGY      -327.215821340253
FINAL SINGLE POINT ENERGY      -327.215822594948
FINAL SINGLE POINT ENERGY      -327.215822815486

CARTESIAN COORDINATES (ANGSTROEM)
---------------------------------
  N      1.497560   -0.002484    0.041598
  C      0.199016    0.058911   -0.687802
  C     -0.820602    0.835166    0.104520
  C     -1.197634    0.175080    1.417163
  O      0.001832    0.005547    2.178568
  C      0.276346    0.102251   -2.174056
  C     -0.164466   -1.153865   -1.477784
  H      2.112006   -0.728594   -0.324377
  H      1.258890   -0.189543    1.044279
  H      1.992072    0.890202   -0.007343
  H     -1.719769    0.940476   -0.505775
  H     -0.454269    1.850927    0.292952
  H     -1.668774   -0.797174    1.237777
  H     -1.902034    0.809979    1.960831
  H     -0.194861   -0.367037    3.042776
  H     -0.462728    0.701133   -2.690530
  H      1.252885    0.099646   -2.645042
  H      0.511261   -2.001933   -1.486509
  H     -1.211598   -1.426844   -1.507774

FINAL SINGLE POINT ENERGY      -327.215823641429
                    ***********************HURRAY********************
 Multiplicity           Mult            ....    1
 Number of Electrons    NEL             ....   56
 Basis Dimension        Dim             ....  289
FINAL SINGLE POINT ENERGY      -327.215823759999

VIBRATIONAL FREQUENCIES
-----------------------

   0:         0.00 cm**-1
   1:         0.00 cm**-1
   2:         0.00 cm**-1
   3:         0.00 cm**-1
   4:         0.00 cm**-1
   5:         0.00 cm**-1
   6:        86.13 cm**-1
   7:       200.23 cm**-1
   8:       258.96 cm**-1
   9:       303.23 cm**-1
  10:       310.66 cm**-1
  11:       339.95 cm**-1
  12:       357.60 cm**-1
  13:       380.67 cm**-1
  14:       426.91 cm**-1
  15:       546.56 cm**-1
  16:       691.33 cm**-1
  17:       769.53 cm**-1
  18:       866.72 cm**-1
  19:       889.18 cm**-1
  20:       913.70 cm**-1
  21:       936.14 cm**-1
  22:       962.44 cm**-1
  23:       985.03 cm**-1
  24:      1062.76 cm**-1
  25:      1066.95 cm**-1
  26:      1099.99 cm**-1
  27:      1104.80 cm**-1
  28:      1111.67 cm**-1
  29:      1175.08 cm**-1
  30:      1185.94 cm**-1
  31:      1200.72 cm**-1
  32:      1258.14 cm**-1
  33:      1282.42 cm**-1
  34:      1310.19 cm**-1
  35:      1373.23 cm**-1
  36:      1428.98 cm**-1
  37:      1441.50 cm**-1
  38:      1462.19 cm**-1
  39:      1464.38 cm**-1
  40:      1499.14 cm**-1
  41:      1512.47 cm**-1
  42:      1533.57 cm**-1
  43:      1634.28 cm**-1
  44:      1671.37 cm**-1
  45:      3034.86 cm**-1
  46:      3049.49 cm**-1
  47:      3056.44 cm**-1
  48:      3107.40 cm**-1
  49:      3127.72 cm**-1
  50:      3153.68 cm**-1
  51:      3157.15 cm**-1
  52:      3238.50 cm**-1
  53:      3249.90 cm**-1
  54:      3458.91 cm**-1
  55:      3529.11 cm**-1
  56:      3863.44 cm**-1

IR SPECTRUM
-----------

 Mode    freq (cm**-1)   T**2         TX         TY         TZ
-------------------------------------------------------------------
   6:        86.13    4.629807  (  0.516001   2.007928  -0.575998)
   7:       200.23    8.018707  (  1.047711  -2.258610  -1.348959)
   8:       258.96   21.293021  ( -3.241271  -0.275104   3.272843)
   9:       303.23    9.630360  ( -0.261980   0.274402  -3.080005)
  10:       310.66   60.350800  ( -1.358536  -6.829260  -3.444763)
  11:       339.95   34.943922  ( -1.337871  -5.686065   0.907020)
  12:       357.60    2.502528  ( -1.493226   0.185538   0.488242)
  13:       380.67   69.247662  (  3.201684  -5.193265  -5.659230)
  14:       426.91    2.853330  ( -0.227782  -1.218254  -1.147738)
  15:       546.56   19.151361  ( -0.316464   1.616025  -4.054587)
  16:       691.33    5.035218  (  1.011664  -0.246684  -1.987687)
  17:       769.53    0.540201  (  0.489797  -0.163710  -0.522971)
  18:       866.72   13.162416  ( -1.517049   0.831167  -3.189066)
  19:       889.18    1.458455  ( -0.247351   0.707341   0.947070)
  20:       913.70    0.789272  ( -0.208944  -0.012037   0.863406)
  21:       936.14    8.209512  (  0.732944  -0.531742  -2.718374)
  22:       962.44   17.429073  (  0.725560  -1.755030  -3.717863)
  23:       985.03   13.872445  (  1.715347   0.995909   3.152490)
  24:      1062.76   18.534047  (  3.825794  -1.969985   0.128471)
  25:      1066.95    7.460320  (  0.112457   1.673573   2.155650)
  26:      1099.99   50.663096  ( -5.568060   0.023521  -4.433875)
  27:      1104.80    7.320994  (  0.464101  -1.058761   2.446350)
  28:      1111.67   14.645200  (  1.328567  -1.714120  -3.153078)
  29:      1175.08   19.082866  (  0.779646  -1.017745   4.176028)
  30:      1185.94    0.549468  ( -0.511539  -0.509503  -0.167938)
  31:      1200.72   21.982706  ( -2.639252  -2.878592   2.594371)
  32:      1258.14   27.098728  (  3.870043  -0.317200   3.467114)
  33:      1282.42   27.746761  (  4.981709  -0.470306   1.645644)
  34:      1310.19   15.200782  ( -3.545988  -0.113349  -1.616758)
  35:      1373.23    3.507604  ( -0.562492  -1.280307  -1.245801)
  36:      1428.98    3.925381  (  1.073551   0.590008  -1.557164)
  37:      1441.50   10.363318  (  2.242733  -1.679644   1.585012)
  38:      1462.19   16.286075  ( -0.000227   3.730517  -1.539258)
  39:      1464.38    7.339539  (  2.649387   0.365663  -0.431948)
  40:      1499.14  106.604183  ( 10.030325  -0.926182   2.266926)
  41:      1512.47    3.595270  ( -0.097711  -1.855783   0.376552)
  42:      1533.57  101.621971  (  9.508076  -1.300196  -3.086739)
  43:      1634.28   12.907012  ( -0.379249  -3.534086  -0.522895)
  44:      1671.37   38.651427  ( -3.146248   4.050589   3.513585)
  45:      3034.86  501.744485  ( 10.533214   1.248420 -19.729099)
  46:      3049.49   60.994315  (  0.823932   0.012047  -7.766293)
  47:      3056.44   16.509111  ( -2.091519  -2.650141  -2.260843)
  48:      3107.40   11.979129  (  1.148495  -2.889743  -1.519695)
  49:      3127.72    2.266847  (  0.484384   1.269228   0.649061)
  50:      3153.68    0.611921  ( -0.181254   0.464375  -0.602847)
  51:      3157.15    1.754752  ( -1.190533  -0.130035  -0.566103)
  52:      3238.50    0.076494  ( -0.028957   0.268376  -0.060250)
  53:      3249.90    0.175183  (  0.158540  -0.069159   0.381137)
  54:      3458.91   64.140103  ( -6.745483  -2.928427   3.172203)
  55:      3529.11   65.925067  (  2.521011  -7.472353  -1.932230)
  56:      3863.44  120.409967  (  0.284942   3.577057 -10.369833)

--------------------------
THERMOCHEMISTRY AT 298.15K
--------------------------

Temperature         ... 298.15 K
Pressure            ... 1.00 atm
Total Mass          ... 102.16 AMU

Throughout the following assumptions are being made:
  (1) The electronic state is orbitally nondegenerate
  (2) There are no thermally accessible electronically excited states
  (3) Hindered rotations indicated by low frequency modes) are not
      treated as such but are treated as vibrations and this may
      case some error
  (4) All equations used are the standard statistical mechanics
      equations for an ideal gas
  (5) All vibrations are strinctly harmonic

------------
INNER ENERGY
------------

The inner energy is: U= E(el) + E(ZPE) + E(vib) + E(rot) + E(trans)
    E(el)   - is the total energy from the electronic structure calculation
              = E(kin-el) + E(nuc-el) + E(el-el) + E(nuc-nuc)
    E(ZPE)  - the the zero temperature vibrational energy from the frequency calculation
    E(vib)  - the the finite temperature correction to E(ZPE) due to population
              of excietd vibrational states
    E(rot)  - is the rotational thermal energy
    E(trans)- is the translational thermal energy

Summary of contributions to the inner energy U:
Electronic energy                ...   -327.21582376 Eh
Zero point energy                ...      0.17571817 Eh     110.26 kcal/mol
Thermal vibrational correction   ...      0.00492182 Eh       3.09 kcal/mol
Thermal rotational correction    ...      0.00141627 Eh       0.89 kcal/mol
Thermal translational correction ...      0.00141627 Eh       0.89 kcal/mol
-----------------------------------------------------------------------
Total thermal energy                   -327.03235122 Eh

Summary of corrections to the electronic energy:
(perhaps to be used in another calculation)
Total thermal correction                  0.00775436 Eh       4.87 kcal/mol
Non-thermal (ZPE) correction              0.17571817 Eh     110.26 kcal/mol
-----------------------------------------------------------------------
Total correction                          0.18347254 Eh     115.13 kcal/mol

--------
ENTHALPY
--------

The enthalpy is H = U + kB*T
                kB is Boltzmann's constant
Total free energy                 ...   -327.03235122 Eh
Thermal Enthalpy correction       ...      0.00094421 Eh       0.59 kcal/mol
-----------------------------------------------------------------------
Total Enthalpy                    ...   -327.03140701 Eh

-------
ENTROPY
-------

The entropy contributions are T*S = T*(S(el)+S(vib)+S(rot)+S(trans)
     S(el)   - electronic entropy
     S(vib)  - vibrational entropy
     S(rot)  - rotational entropy
     S(trans)- translational entropy
The entropies will be listed as mutliplied by the temperature to get
units of energy

Electronic entropy                ...      0.00000000 Eh      0.00 kcal/mol
Vibrational entropy               ...      0.00812106 Eh      5.10 kcal/mol
Rotational entropy                ...      0.01204121 Eh      7.56 kcal/mol
Translational entropy             ...      0.01890147 Eh     11.86 kcal/mol
-----------------------------------------------------------------------
Final entropy term                ...      0.03906374 Eh     24.51 kcal/mol

CAUTION: The rotational entropy is not quite correctly treated here
         because it includes a symmetry number that is not yet correctly
         implemented in ORCA!
For a nonlinear molecule the correct rotational entropy is:
    S(rot) = R*(ln(qrot/sn)+1.5)
    R    = 8.31441 J/mol/K = 1.987191683e-3 kcal/mol/K
    qrot = 231348.9984754
    sn is the rotational symmetry number. We have assumed 3 here
       if it is different for your molecule then you should correct
       the printed rotational entropy by manually evaluating the equation
       as given above

For convenience we print out the resulting values for sn=1 - 12:
 sn= 1  qrot/sn=  231348.9985 T*S(rot)=     8.21 kcal/mol T*S(tot)=    25.16 kcal/mol
 sn= 2  qrot/sn=  115674.4992 T*S(rot)=     7.80 kcal/mol T*S(tot)=    24.75 kcal/mol
 sn= 3  qrot/sn=   77116.3328 T*S(rot)=     7.56 kcal/mol T*S(tot)=    24.51 kcal/mol
 sn= 4  qrot/sn=   57837.2496 T*S(rot)=     7.39 kcal/mol T*S(tot)=    24.34 kcal/mol
 sn= 5  qrot/sn=   46269.7997 T*S(rot)=     7.25 kcal/mol T*S(tot)=    24.21 kcal/mol
 sn= 6  qrot/sn=   38558.1664 T*S(rot)=     7.15 kcal/mol T*S(tot)=    24.10 kcal/mol
 sn= 7  qrot/sn=   33049.8569 T*S(rot)=     7.05 kcal/mol T*S(tot)=    24.01 kcal/mol
 sn= 8  qrot/sn=   28918.6248 T*S(rot)=     6.97 kcal/mol T*S(tot)=    23.93 kcal/mol
 sn= 9  qrot/sn=   25705.4443 T*S(rot)=     6.91 kcal/mol T*S(tot)=    23.86 kcal/mol
 sn=10  qrot/sn=   23134.8998 T*S(rot)=     6.84 kcal/mol T*S(tot)=    23.80 kcal/mol
 sn=11  qrot/sn=   21031.7271 T*S(rot)=     6.79 kcal/mol T*S(tot)=    23.74 kcal/mol
 sn=12  qrot/sn=   19279.0832 T*S(rot)=     6.73 kcal/mol T*S(tot)=    23.69 kcal/mol

-------------------
GIBBS FREE ENTHALPY
-------------------

The Gibbs free enthalpy is G = H - T*S

Total enthalpy                    ...   -327.03140701 Eh
Total entropy correction          ...     -0.03906374 Eh    -24.51 kcal/mol
-----------------------------------------------------------------------
Final Gibbs free enthalpy         ...   -327.07047075 Eh

For completeness - the Gibbs free enthalpy minus the electronic energy
G-E(el)                           ...      0.14535301 Eh     91.21 kcal/mol

                             ****ORCA TERMINATED NORMALLY****
TOTAL RUN TIME: 0 days 0 hours 48 minutes 34 seconds 327 msec
