                         Program Version 3.0.3 - RELEASE   -
|  1> ! NORI PBE0 def2-TZVP UseSym TightOPT Freq TightSCF Grid3 FinalGrid5 XYZFile
|  2> % pal
|  3>     nprocs 8
|  4> end
|  5> %method
|  6>     SymThresh 5.0e-2
|  7> end
|  8> % geom
|  9>     MaxIter 10
| 10> end
| 11> % maxcore 2000
| 12> % output
| 13>     printlevel mini
| 14>     print[ P_Basis ] 0
| 15>     print[ P_SCFInfo ] 1
| 16>     print[ P_SCFIterInfo ] 1
| 17>     print[ P_OrbEn ] 0
| 18>     print[ P_Cartesian ] 0
| 19> end
| 20> % elprop
| 21>     Dipole false
| 22> end
| 23> *xyz 1 1
| 24>  N        0.9220304725     0.0080575786    -0.1006448172
| 25>  C        2.4961900600     0.0316529667    -0.0005012723
| 26>  C        2.9015369151     1.2493057644     0.7350144201
| 27>  C        3.4158624227     1.1706553103     1.9633542734
| 28>  O        3.6571048634     0.0169938943     2.6118138096
| 29>  C        3.4520170984    -1.1270181081     1.9343947394
| 30>  C        2.9399132032    -1.1907816298     0.7043098452
| 31>  H        0.5945556710    -0.8227110985    -0.5981940608
| 32>  H        0.5683751141     0.8361743124    -0.5844905841
| 33>  H        0.5272930512    -0.0059861959     0.8415041693
| 34>  H        2.7864187749     0.0495935199    -1.0548946612
| 35>  H        2.8130953279     2.2243698458     0.2715579974
| 36>  H        3.7213178783     2.0291501078     2.5466416279
| 37>  H        3.7846527328    -1.9898567822     2.4959796506
| 38>  H        2.8820164145    -2.1560594855     0.2162048625
| 39> *
| 40>
| 41>                          ****END OF INPUT****
 Total Charge           Charge          ....    1
 Multiplicity           Mult            ....    1
 Number of Electrons    NEL             ....   52
FINAL SINGLE POINT ENERGY      -324.787534631963
FINAL SINGLE POINT ENERGY      -324.787535490542

CARTESIAN COORDINATES (ANGSTROEM)
---------------------------------
  N     -1.979705   -0.981192   -0.000000
  C     -1.093305    0.325295   -0.000000
  C     -0.257454    0.326654    1.220337
  C      1.061953    0.144055    1.148952
  O      1.746078   -0.002195    0.000000
  C      1.061953    0.144055   -1.148952
  C     -0.257454    0.326654   -1.220337
  H     -2.575213   -1.025157   -0.829566
  H     -2.575212   -1.025158    0.829567
  H     -1.368551   -1.799825   -0.000001
  H     -1.855040    1.110445   -0.000000
  H     -0.704376    0.506932    2.190266
  H      1.717501    0.129382    2.009781
  H      1.717501    0.129382   -2.009781
  H     -0.704376    0.506932   -2.190266

FINAL SINGLE POINT ENERGY      -324.787535880008
                    ***********************HURRAY********************
 Multiplicity           Mult            ....    1
 Number of Electrons    NEL             ....   52
 Basis Dimension        Dim             ....  265
FINAL SINGLE POINT ENERGY      -324.787536010198

VIBRATIONAL FREQUENCIES
-----------------------

   0:         0.00 cm**-1
   1:         0.00 cm**-1
   2:         0.00 cm**-1
   3:         0.00 cm**-1
   4:         0.00 cm**-1
   5:         0.00 cm**-1
   6:       115.44 cm**-1
   7:       184.90 cm**-1
   8:       278.14 cm**-1
   9:       370.98 cm**-1
  10:       478.54 cm**-1
  11:       500.94 cm**-1
  12:       582.35 cm**-1
  13:       657.14 cm**-1
  14:       724.95 cm**-1
  15:       797.54 cm**-1
  16:       812.03 cm**-1
  17:       904.02 cm**-1
  18:       927.61 cm**-1
  19:       959.17 cm**-1
  20:       990.07 cm**-1
  21:       997.50 cm**-1
  22:      1032.82 cm**-1
  23:      1072.10 cm**-1
  24:      1086.58 cm**-1
  25:      1160.41 cm**-1
  26:      1253.02 cm**-1
  27:      1325.26 cm**-1
  28:      1371.76 cm**-1
  29:      1376.86 cm**-1
  30:      1439.17 cm**-1
  31:      1442.99 cm**-1
  32:      1461.26 cm**-1
  33:      1642.03 cm**-1
  34:      1644.69 cm**-1
  35:      1672.87 cm**-1
  36:      1744.51 cm**-1
  37:      3076.10 cm**-1
  38:      3215.84 cm**-1
  39:      3215.88 cm**-1
  40:      3246.23 cm**-1
  41:      3249.33 cm**-1
  42:      3407.18 cm**-1
  43:      3515.18 cm**-1
  44:      3517.31 cm**-1

IR SPECTRUM
-----------

 Mode    freq (cm**-1)   T**2         TX         TY         TZ
-------------------------------------------------------------------
   6:       115.44    7.029444  ( -2.567676   0.660669   0.000064)
   7:       184.90    0.018856  (  0.000170   0.000088   0.137318)
   8:       278.14    7.141576  ( -0.000005  -0.000022   2.672373)
   9:       370.98    6.238488  (  1.000981  -2.288345   0.000037)
  10:       478.54    1.411092  (  0.000089  -0.000064   1.187894)
  11:       500.94   16.137516  ( -2.187877   3.369082   0.000008)
  12:       582.35   18.938686  (  4.349493  -0.143522  -0.000006)
  13:       657.14    0.683816  ( -0.000015  -0.000031  -0.826932)
  14:       724.95   44.723887  ( -6.009549  -2.934144   0.000026)
  15:       797.54  100.653527  (  4.244336   9.090607   0.000058)
  16:       812.03    0.145627  ( -0.000075  -0.000069  -0.381611)
  17:       904.02   50.198320  ( -5.312104  -4.688270   0.000018)
  18:       927.61    5.073173  ( -0.000172  -0.000007   2.252370)
  19:       959.17   36.340631  ( -4.563429   3.939003  -0.000059)
  20:       990.07    0.560431  ( -0.636777   0.393631   0.000084)
  21:       997.50    0.417112  (  0.000047   0.000068   0.645842)
  22:      1032.82   10.006189  ( -2.144789  -2.325096   0.000091)
  23:      1072.10    3.330292  (  0.000007   0.000174   1.824909)
  24:      1086.58   11.872637  (  1.213165  -3.225038   0.000074)
  25:      1160.41   30.153056  (  0.000021   0.000060  -5.491180)
  26:      1253.02   14.068745  (  3.750467   0.052354  -0.000013)
  27:      1325.26  114.821112  (  0.000024   0.000001 -10.715461)
  28:      1371.76   16.143918  (  0.000134   0.000085   4.017949)
  29:      1376.86   52.063392  ( -7.064234  -1.469689  -0.000016)
  30:      1439.17   30.301859  ( -0.001930  -0.001948   5.504712)
  31:      1442.99  128.230759  (  7.998668   8.015738   0.001271)
  32:      1461.26   41.943992  ( -1.830107  -6.212463  -0.000101)
  33:      1642.03   46.141502  ( -5.687685   3.713722  -0.004075)
  34:      1644.69   23.277804  (  0.004706  -0.003016  -4.824704)
  35:      1672.87   24.271798  (  0.000190  -0.000083  -4.926642)
  36:      1744.51  143.545396  ( 11.964418   0.630951   0.000036)
  37:      3076.10    6.888210  (  2.576568  -0.499505   0.000002)
  38:      3215.84    0.980059  ( -0.000372   0.000203   0.989979)
  39:      3215.88    2.344962  ( -1.376340   0.671304  -0.000261)
  40:      3246.23    1.461868  (  0.000052  -0.000016   1.209077)
  41:      3249.33    3.010144  (  1.733585   0.069482  -0.000045)
  42:      3407.18   33.676837  (  4.204246   4.000144   0.000125)
  43:      3515.18   74.015770  ( -0.002167   0.001387   8.603241)
  44:      3517.31   72.657043  ( -6.907009   4.995024  -0.002559)

--------------------------
THERMOCHEMISTRY AT 298.15K
--------------------------

Temperature         ... 298.15 K
Pressure            ... 1.00 atm
Total Mass          ... 98.12 AMU

Throughout the following assumptions are being made:
  (1) The electronic state is orbitally nondegenerate
  (2) There are no thermally accessible electronically excited states
  (3) Hindered rotations indicated by low frequency modes) are not
      treated as such but are treated as vibrations and this may
      case some error
  (4) All equations used are the standard statistical mechanics
      equations for an ideal gas
  (5) All vibrations are strinctly harmonic

------------
INNER ENERGY
------------

The inner energy is: U= E(el) + E(ZPE) + E(vib) + E(rot) + E(trans)
    E(el)   - is the total energy from the electronic structure calculation
              = E(kin-el) + E(nuc-el) + E(el-el) + E(nuc-nuc)
    E(ZPE)  - the the zero temperature vibrational energy from the frequency calculation
    E(vib)  - the the finite temperature correction to E(ZPE) due to population
              of excietd vibrational states
    E(rot)  - is the rotational thermal energy
    E(trans)- is the translational thermal energy

Summary of contributions to the inner energy U:
Electronic energy                ...   -324.78753601 Eh
Zero point energy                ...      0.13088233 Eh      82.13 kcal/mol
Thermal vibrational correction   ...      0.00349405 Eh       2.19 kcal/mol
Thermal rotational correction    ...      0.00141627 Eh       0.89 kcal/mol
Thermal translational correction ...      0.00141627 Eh       0.89 kcal/mol
-----------------------------------------------------------------------
Total thermal energy                   -324.65032709 Eh

Summary of corrections to the electronic energy:
(perhaps to be used in another calculation)
Total thermal correction                  0.00632659 Eh       3.97 kcal/mol
Non-thermal (ZPE) correction              0.13088233 Eh      82.13 kcal/mol
-----------------------------------------------------------------------
Total correction                          0.13720892 Eh      86.10 kcal/mol

--------
ENTHALPY
--------

The enthalpy is H = U + kB*T
                kB is Boltzmann's constant
Total free energy                 ...   -324.65032709 Eh
Thermal Enthalpy correction       ...      0.00094421 Eh       0.59 kcal/mol
-----------------------------------------------------------------------
Total Enthalpy                    ...   -324.64938288 Eh

-------
ENTROPY
-------

The entropy contributions are T*S = T*(S(el)+S(vib)+S(rot)+S(trans)
     S(el)   - electronic entropy
     S(vib)  - vibrational entropy
     S(rot)  - rotational entropy
     S(trans)- translational entropy
The entropies will be listed as mutliplied by the temperature to get
units of energy

Electronic entropy                ...      0.00000000 Eh      0.00 kcal/mol
Vibrational entropy               ...      0.00568598 Eh      3.57 kcal/mol
Rotational entropy                ...      0.01180265 Eh      7.41 kcal/mol
Translational entropy             ...      0.01884443 Eh     11.83 kcal/mol
-----------------------------------------------------------------------
Final entropy term                ...      0.03633306 Eh     22.80 kcal/mol

CAUTION: The rotational entropy is not quite correctly treated here
         because it includes a symmetry number that is not yet correctly
         implemented in ORCA!
For a nonlinear molecule the correct rotational entropy is:
    S(rot) = R*(ln(qrot/sn)+1.5)
    R    = 8.31441 J/mol/K = 1.987191683e-3 kcal/mol/K
    qrot = 179696.7402840
    sn is the rotational symmetry number. We have assumed 3 here
       if it is different for your molecule then you should correct
       the printed rotational entropy by manually evaluating the equation
       as given above

For convenience we print out the resulting values for sn=1 - 12:
 sn= 1  qrot/sn=  179696.7403 T*S(rot)=     8.06 kcal/mol T*S(tot)=    23.45 kcal/mol
 sn= 2  qrot/sn=   89848.3701 T*S(rot)=     7.65 kcal/mol T*S(tot)=    23.04 kcal/mol
 sn= 3  qrot/sn=   59898.9134 T*S(rot)=     7.41 kcal/mol T*S(tot)=    22.80 kcal/mol
 sn= 4  qrot/sn=   44924.1851 T*S(rot)=     7.24 kcal/mol T*S(tot)=    22.63 kcal/mol
 sn= 5  qrot/sn=   35939.3481 T*S(rot)=     7.10 kcal/mol T*S(tot)=    22.50 kcal/mol
 sn= 6  qrot/sn=   29949.4567 T*S(rot)=     7.00 kcal/mol T*S(tot)=    22.39 kcal/mol
 sn= 7  qrot/sn=   25670.9629 T*S(rot)=     6.90 kcal/mol T*S(tot)=    22.30 kcal/mol
 sn= 8  qrot/sn=   22462.0925 T*S(rot)=     6.83 kcal/mol T*S(tot)=    22.22 kcal/mol
 sn= 9  qrot/sn=   19966.3045 T*S(rot)=     6.76 kcal/mol T*S(tot)=    22.15 kcal/mol
 sn=10  qrot/sn=   17969.6740 T*S(rot)=     6.69 kcal/mol T*S(tot)=    22.09 kcal/mol
 sn=11  qrot/sn=   16336.0673 T*S(rot)=     6.64 kcal/mol T*S(tot)=    22.03 kcal/mol
 sn=12  qrot/sn=   14974.7284 T*S(rot)=     6.58 kcal/mol T*S(tot)=    21.98 kcal/mol

-------------------
GIBBS FREE ENTHALPY
-------------------

The Gibbs free enthalpy is G = H - T*S

Total enthalpy                    ...   -324.64938288 Eh
Total entropy correction          ...     -0.03633306 Eh    -22.80 kcal/mol
-----------------------------------------------------------------------
Final Gibbs free enthalpy         ...   -324.68571594 Eh

For completeness - the Gibbs free enthalpy minus the electronic energy
G-E(el)                           ...      0.10182007 Eh     63.89 kcal/mol

                             ****ORCA TERMINATED NORMALLY****
TOTAL RUN TIME: 0 days 0 hours 35 minutes 36 seconds 192 msec
