                         Program Version 3.0.3 - RELEASE   -
|  1> ! NORI PBE0 def2-TZVP UseSym TightOPT Freq TightSCF Grid3 FinalGrid5 XYZFile
|  2> % pal
|  3>     nprocs 8
|  4> end
|  5> %method
|  6>     SymThresh 5.0e-2
|  7> end
|  8> % geom
|  9>     MaxIter 10
| 10> end
| 11> % maxcore 2000
| 12> % output
| 13>     printlevel mini
| 14>     print[ P_Basis ] 0
| 15>     print[ P_SCFInfo ] 1
| 16>     print[ P_SCFIterInfo ] 1
| 17>     print[ P_OrbEn ] 0
| 18>     print[ P_Cartesian ] 0
| 19> end
| 20> % elprop
| 21>     Dipole false
| 22> end
| 23> *xyz 1 1
| 24>  N        0.9018070290    -0.0036932434    -0.1358802632
| 25>  C        2.4332585506    -0.0461045977    -0.0922176956
| 26>  C        2.9117239126    -1.3326382939     0.5750391040
| 27>  C        3.2846844995    -0.9475815440     2.0249067348
| 28>  O        4.4289356568    -1.5813630206     2.5095199367
| 29>  C        3.3709468293     0.5534397876     1.9563173871
| 30>  C        2.9268084100     1.0472553076     0.8048512828
| 31>  H        0.5207246494    -0.7537580469    -0.7164157343
| 32>  H        0.5694285340     0.8869762934    -0.5112451846
| 33>  H        0.5189569400    -0.1001489834     0.8071854777
| 34>  H        2.7285414246     0.0552602451    -1.1385929936
| 35>  H        3.8162667551    -1.6692688469     0.0650929546
| 36>  H        2.1978637897    -2.1584152473     0.5118173404
| 37>  H        2.4971303768    -1.2381391129     2.7306829480
| 38>  H        5.2064302500    -1.2787961277     2.0282117423
| 39>  H        3.7667354640     1.1376647529     2.7790247767
| 40>  H        2.9043869287     2.0938106781     0.5228121862
| 41> *
| 42>
| 43>                          ****END OF INPUT****
 Total Charge           Charge          ....    1
 Multiplicity           Mult            ....    1
 Number of Electrons    NEL             ....   54
FINAL SINGLE POINT ENERGY      -326.003469976832

CARTESIAN COORDINATES (ANGSTROEM)
---------------------------------
  N      0.922947    0.000594   -2.159451
  C     -0.022768    0.633513   -1.132266
  C      0.689430    0.817749    0.204926
  C      0.222988   -0.351880    1.101282
  O     -0.000211    0.000601    2.432320
  C     -0.987090   -0.866915    0.369276
  C     -1.135185   -0.325089   -0.835450
  H      1.714717    0.612121   -2.369010
  H      0.434886   -0.196663   -3.035501
  H      1.286254   -0.886904   -1.804973
  H     -0.338811    1.565118   -1.606168
  H      0.345204    1.752140    0.652341
  H      1.776348    0.898763    0.122120
  H      0.982660   -1.140861    1.155754
  H     -0.751797    0.599520    2.496660
  H     -1.650376   -1.599794    0.813815
  H     -1.936746   -0.530082   -1.535701

FINAL SINGLE POINT ENERGY      -326.003470743939
                    ***********************HURRAY********************
 Multiplicity           Mult            ....    1
 Number of Electrons    NEL             ....   54
 Basis Dimension        Dim             ....  277
FINAL SINGLE POINT ENERGY      -326.003471006433

VIBRATIONAL FREQUENCIES
-----------------------

   0:         0.00 cm**-1
   1:         0.00 cm**-1
   2:         0.00 cm**-1
   3:         0.00 cm**-1
   4:         0.00 cm**-1
   5:         0.00 cm**-1
   6:        73.08 cm**-1
   7:       196.79 cm**-1
   8:       221.49 cm**-1
   9:       316.65 cm**-1
  10:       344.16 cm**-1
  11:       405.64 cm**-1
  12:       431.44 cm**-1
  13:       546.49 cm**-1
  14:       670.16 cm**-1
  15:       736.31 cm**-1
  16:       799.39 cm**-1
  17:       809.77 cm**-1
  18:       872.94 cm**-1
  19:       914.40 cm**-1
  20:       949.03 cm**-1
  21:       983.59 cm**-1
  22:      1008.05 cm**-1
  23:      1033.46 cm**-1
  24:      1094.07 cm**-1
  25:      1111.27 cm**-1
  26:      1128.43 cm**-1
  27:      1169.47 cm**-1
  28:      1210.57 cm**-1
  29:      1258.83 cm**-1
  30:      1303.34 cm**-1
  31:      1324.40 cm**-1
  32:      1345.88 cm**-1
  33:      1378.13 cm**-1
  34:      1403.39 cm**-1
  35:      1429.18 cm**-1
  36:      1469.62 cm**-1
  37:      1488.61 cm**-1
  38:      1648.67 cm**-1
  39:      1658.33 cm**-1
  40:      1686.69 cm**-1
  41:      3048.03 cm**-1
  42:      3081.91 cm**-1
  43:      3106.40 cm**-1
  44:      3131.66 cm**-1
  45:      3208.42 cm**-1
  46:      3231.16 cm**-1
  47:      3415.55 cm**-1
  48:      3507.41 cm**-1
  49:      3510.70 cm**-1
  50:      3829.87 cm**-1

IR SPECTRUM
-----------

 Mode    freq (cm**-1)   T**2         TX         TY         TZ
-------------------------------------------------------------------
   6:        73.08    6.958475  (  0.301391  -0.811492   2.491810)
   7:       196.79    9.497225  ( -1.352471  -2.748183   0.339908)
   8:       221.49    0.151762  ( -0.001681  -0.292610   0.257174)
   9:       316.65    8.734631  ( -1.719853  -1.039001  -2.167305)
  10:       344.16   87.337360  (  5.997208   7.114191  -0.871289)
  11:       405.64   22.528925  (  3.328537   3.347487  -0.494062)
  12:       431.44    5.925418  (  0.139846  -0.251612  -2.417137)
  13:       546.49    0.587513  (  0.706245  -0.233678  -0.184731)
  14:       670.16    0.962078  (  0.686093  -0.158224   0.682876)
  15:       736.31    9.661227  ( -0.521084   2.754455  -1.342637)
  16:       799.39   15.943411  (  2.654307  -0.988193  -2.814523)
  17:       809.77   30.594017  (  3.569312  -3.553704  -2.285874)
  18:       872.94    3.590965  ( -0.548060   1.335355   1.227771)
  19:       914.40    9.082418  (  0.123353   0.493105   2.970530)
  20:       949.03    4.054320  (  1.227138   0.978282   1.261513)
  21:       983.59   54.849041  (  3.275392  -2.605100  -6.110180)
  22:      1008.05    5.607508  (  2.109467   0.896025   0.595647)
  23:      1033.46   15.691123  ( -2.606233   1.229521   2.717895)
  24:      1094.07   28.287906  ( -2.315115  -3.653824   3.094789)
  25:      1111.27   38.538525  (  0.990705  -3.059393  -5.310098)
  26:      1128.43    2.187993  ( -1.217311   0.212322  -0.813060)
  27:      1169.47   98.286104  ( -0.291474   1.564027   9.785447)
  28:      1210.57    3.847861  ( -1.863918   0.235255   0.564204)
  29:      1258.83    4.499896  (  0.228304  -0.316964   2.085020)
  30:      1303.34    2.076595  ( -0.521699  -0.023206  -1.343089)
  31:      1324.40    2.272362  (  0.646657   0.129734  -1.355495)
  32:      1345.88    4.093456  (  0.849029   1.700831  -0.692661)
  33:      1378.13    2.786435  ( -0.057350   1.134015  -1.223583)
  34:      1403.39   50.721790  (  1.997413   2.642337  -6.304775)
  35:      1429.18   68.451336  (  0.473022  -0.316677  -8.253926)
  36:      1469.62   32.144410  ( -0.489752   3.846158   4.136620)
  37:      1488.61  126.235610  (  7.770654  -4.266203  -6.903047)
  38:      1648.67   35.957105  (  4.037601  -0.845200   4.352071)
  39:      1658.33   42.019589  ( -1.671300  -5.935716   1.998406)
  40:      1686.69    3.659756  (  0.059904   0.656469  -1.795889)
  41:      3048.03    7.227132  (  1.383393  -2.091468  -0.969081)
  42:      3081.91    4.283682  ( -1.958311  -0.489566   0.457193)
  43:      3106.40    6.145715  ( -0.842461  -1.407601   1.858664)
  44:      3131.66    3.054534  (  1.660152   0.215430  -0.502016)
  45:      3208.42    0.314713  ( -0.022391  -0.473154   0.300562)
  46:      3231.16    1.140969  (  0.791642   0.571564  -0.433111)
  47:      3415.55   40.505552  (  3.596270  -1.708522  -4.965213)
  48:      3507.41   81.354526  ( -2.551394   5.587825  -6.604629)
  49:      3510.70   83.827788  (  6.444188   5.824160   2.894718)
  50:      3829.87   48.957870  (  4.576523  -3.492051  -3.977297)

--------------------------
THERMOCHEMISTRY AT 298.15K
--------------------------

Temperature         ... 298.15 K
Pressure            ... 1.00 atm
Total Mass          ... 100.14 AMU

Throughout the following assumptions are being made:
  (1) The electronic state is orbitally nondegenerate
  (2) There are no thermally accessible electronically excited states
  (3) Hindered rotations indicated by low frequency modes) are not
      treated as such but are treated as vibrations and this may
      case some error
  (4) All equations used are the standard statistical mechanics
      equations for an ideal gas
  (5) All vibrations are strinctly harmonic

------------
INNER ENERGY
------------

The inner energy is: U= E(el) + E(ZPE) + E(vib) + E(rot) + E(trans)
    E(el)   - is the total energy from the electronic structure calculation
              = E(kin-el) + E(nuc-el) + E(el-el) + E(nuc-nuc)
    E(ZPE)  - the the zero temperature vibrational energy from the frequency calculation
    E(vib)  - the the finite temperature correction to E(ZPE) due to population
              of excietd vibrational states
    E(rot)  - is the rotational thermal energy
    E(trans)- is the translational thermal energy

Summary of contributions to the inner energy U:
Electronic energy                ...   -326.00347101 Eh
Zero point energy                ...      0.15375995 Eh      96.49 kcal/mol
Thermal vibrational correction   ...      0.00425666 Eh       2.67 kcal/mol
Thermal rotational correction    ...      0.00141627 Eh       0.89 kcal/mol
Thermal translational correction ...      0.00141627 Eh       0.89 kcal/mol
-----------------------------------------------------------------------
Total thermal energy                   -325.84262186 Eh

Summary of corrections to the electronic energy:
(perhaps to be used in another calculation)
Total thermal correction                  0.00708920 Eh       4.45 kcal/mol
Non-thermal (ZPE) correction              0.15375995 Eh      96.49 kcal/mol
-----------------------------------------------------------------------
Total correction                          0.16084914 Eh     100.93 kcal/mol

--------
ENTHALPY
--------

The enthalpy is H = U + kB*T
                kB is Boltzmann's constant
Total free energy                 ...   -325.84262186 Eh
Thermal Enthalpy correction       ...      0.00094421 Eh       0.59 kcal/mol
-----------------------------------------------------------------------
Total Enthalpy                    ...   -325.84167765 Eh

-------
ENTROPY
-------

The entropy contributions are T*S = T*(S(el)+S(vib)+S(rot)+S(trans)
     S(el)   - electronic entropy
     S(vib)  - vibrational entropy
     S(rot)  - rotational entropy
     S(trans)- translational entropy
The entropies will be listed as mutliplied by the temperature to get
units of energy

Electronic entropy                ...      0.00000000 Eh      0.00 kcal/mol
Vibrational entropy               ...      0.00722501 Eh      4.53 kcal/mol
Rotational entropy                ...      0.01194927 Eh      7.50 kcal/mol
Translational entropy             ...      0.01887324 Eh     11.84 kcal/mol
-----------------------------------------------------------------------
Final entropy term                ...      0.03804752 Eh     23.88 kcal/mol

CAUTION: The rotational entropy is not quite correctly treated here
         because it includes a symmetry number that is not yet correctly
         implemented in ORCA!
For a nonlinear molecule the correct rotational entropy is:
    S(rot) = R*(ln(qrot/sn)+1.5)
    R    = 8.31441 J/mol/K = 1.987191683e-3 kcal/mol/K
    qrot = 209883.6681062
    sn is the rotational symmetry number. We have assumed 3 here
       if it is different for your molecule then you should correct
       the printed rotational entropy by manually evaluating the equation
       as given above

For convenience we print out the resulting values for sn=1 - 12:
 sn= 1  qrot/sn=  209883.6681 T*S(rot)=     8.15 kcal/mol T*S(tot)=    24.53 kcal/mol
 sn= 2  qrot/sn=  104941.8341 T*S(rot)=     7.74 kcal/mol T*S(tot)=    24.12 kcal/mol
 sn= 3  qrot/sn=   69961.2227 T*S(rot)=     7.50 kcal/mol T*S(tot)=    23.88 kcal/mol
 sn= 4  qrot/sn=   52470.9170 T*S(rot)=     7.33 kcal/mol T*S(tot)=    23.70 kcal/mol
 sn= 5  qrot/sn=   41976.7336 T*S(rot)=     7.20 kcal/mol T*S(tot)=    23.57 kcal/mol
 sn= 6  qrot/sn=   34980.6114 T*S(rot)=     7.09 kcal/mol T*S(tot)=    23.46 kcal/mol
 sn= 7  qrot/sn=   29983.3812 T*S(rot)=     7.00 kcal/mol T*S(tot)=    23.37 kcal/mol
 sn= 8  qrot/sn=   26235.4585 T*S(rot)=     6.92 kcal/mol T*S(tot)=    23.29 kcal/mol
 sn= 9  qrot/sn=   23320.4076 T*S(rot)=     6.85 kcal/mol T*S(tot)=    23.22 kcal/mol
 sn=10  qrot/sn=   20988.3668 T*S(rot)=     6.78 kcal/mol T*S(tot)=    23.16 kcal/mol
 sn=11  qrot/sn=   19080.3335 T*S(rot)=     6.73 kcal/mol T*S(tot)=    23.11 kcal/mol
 sn=12  qrot/sn=   17490.3057 T*S(rot)=     6.68 kcal/mol T*S(tot)=    23.05 kcal/mol

-------------------
GIBBS FREE ENTHALPY
-------------------

The Gibbs free enthalpy is G = H - T*S

Total enthalpy                    ...   -325.84167765 Eh
Total entropy correction          ...     -0.03804752 Eh    -23.88 kcal/mol
-----------------------------------------------------------------------
Final Gibbs free enthalpy         ...   -325.87972517 Eh

For completeness - the Gibbs free enthalpy minus the electronic energy
G-E(el)                           ...      0.12374584 Eh     77.65 kcal/mol

                             ****ORCA TERMINATED NORMALLY****
TOTAL RUN TIME: 0 days 0 hours 33 minutes 28 seconds 208 msec
