                         Program Version 3.0.3 - RELEASE   -
|  1> ! NORI PBE0 def2-TZVP UseSym TightOPT Freq TightSCF Grid3 FinalGrid5 XYZFile
|  2> % pal
|  3>     nprocs 8
|  4> end
|  5> %method
|  6>     SymThresh 5.0e-2
|  7> end
|  8> % geom
|  9>     MaxIter 10
| 10> end
| 11> % maxcore 2000
| 12> % output
| 13>     printlevel mini
| 14>     print[ P_Basis ] 0
| 15>     print[ P_SCFInfo ] 1
| 16>     print[ P_SCFIterInfo ] 1
| 17>     print[ P_OrbEn ] 0
| 18>     print[ P_Cartesian ] 0
| 19> end
| 20> % elprop
| 21>     Dipole false
| 22> end
| 23> *xyz 1 1
| 24>  N        0.8653798207     0.2696591135    -0.2291071726
| 25>  C        2.3644798120     0.1149302631     0.0891423960
| 26>  C        3.1168009083     1.3481881743    -0.3792738363
| 27>  C        3.4178414498     1.2571734978    -1.8616523252
| 28>  O        4.1588088748     0.0883240524    -2.1771774189
| 29>  C        3.7684601181    -1.0257764921    -1.5692967680
| 30>  C        2.8876669175    -1.1085609524    -0.5606858999
| 31>  H        0.3623263806    -0.5855030927     0.0152069363
| 32>  H        0.7366387381     0.4168707991    -1.2325218129
| 33>  H        0.4398471185     1.0509270548     0.2754169934
| 34>  H        2.3871322917     0.0330771939     1.1786115724
| 35>  H        2.5784043516     2.2753943952    -0.1612073577
| 36>  H        4.0527277994     1.3910449896     0.1822012840
| 37>  H        2.4986735719     1.2423330284    -2.4647657994
| 38>  H        4.0186315728     2.1000268736    -2.1987097409
| 39>  H        4.2683956948    -1.9001635540    -1.9703183141
| 40>  H        2.6782145793    -2.0808353448    -0.1334427360
| 41> *
| 42>
| 43>                          ****END OF INPUT****
 Total Charge           Charge          ....    1
 Multiplicity           Mult            ....    1
 Number of Electrons    NEL             ....   54
FINAL SINGLE POINT ENERGY      -326.008009502666
FINAL SINGLE POINT ENERGY      -326.008010555552

CARTESIAN COORDINATES (ANGSTROEM)
---------------------------------
  N      0.880077   -0.000579   -1.970487
  C     -0.391176   -0.081898   -1.104637
  C     -0.537862    1.191450   -0.290421
  C      0.318540    1.127912    0.958208
  O     -0.000415    0.000167    1.758520
  C     -0.199865   -1.136884    1.102852
  C     -0.319429   -1.272150   -0.226767
  H      1.024665   -0.880845   -2.468470
  H      1.697593    0.144432   -1.374157
  H      0.834584    0.756372   -2.656962
  H     -1.195169   -0.171360   -1.839424
  H     -0.294807    2.088055   -0.868008
  H     -1.589877    1.277570   -0.007896
  H      1.390548    1.073365    0.716747
  H      0.168758    2.002400    1.588917
  H     -0.282030   -1.982052    1.777262
  H     -0.510293   -2.257250   -0.632879

FINAL SINGLE POINT ENERGY      -326.008010947097
                    ***********************HURRAY********************
 Multiplicity           Mult            ....    1
 Number of Electrons    NEL             ....   54
 Basis Dimension        Dim             ....  277
FINAL SINGLE POINT ENERGY      -326.008011107369

VIBRATIONAL FREQUENCIES
-----------------------

   0:         0.00 cm**-1
   1:         0.00 cm**-1
   2:         0.00 cm**-1
   3:         0.00 cm**-1
   4:         0.00 cm**-1
   5:         0.00 cm**-1
   6:       130.98 cm**-1
   7:       205.50 cm**-1
   8:       234.85 cm**-1
   9:       330.00 cm**-1
  10:       381.21 cm**-1
  11:       485.00 cm**-1
  12:       530.28 cm**-1
  13:       583.93 cm**-1
  14:       738.54 cm**-1
  15:       772.74 cm**-1
  16:       789.63 cm**-1
  17:       868.73 cm**-1
  18:       920.72 cm**-1
  19:       946.30 cm**-1
  20:       998.90 cm**-1
  21:      1001.66 cm**-1
  22:      1022.35 cm**-1
  23:      1055.74 cm**-1
  24:      1110.56 cm**-1
  25:      1133.05 cm**-1
  26:      1163.94 cm**-1
  27:      1245.24 cm**-1
  28:      1292.08 cm**-1
  29:      1309.09 cm**-1
  30:      1367.62 cm**-1
  31:      1378.25 cm**-1
  32:      1392.28 cm**-1
  33:      1410.94 cm**-1
  34:      1449.81 cm**-1
  35:      1463.48 cm**-1
  36:      1481.67 cm**-1
  37:      1500.21 cm**-1
  38:      1641.97 cm**-1
  39:      1653.54 cm**-1
  40:      1695.16 cm**-1
  41:      3001.97 cm**-1
  42:      3072.97 cm**-1
  43:      3096.47 cm**-1
  44:      3123.49 cm**-1
  45:      3154.18 cm**-1
  46:      3212.13 cm**-1
  47:      3227.86 cm**-1
  48:      3407.60 cm**-1
  49:      3502.48 cm**-1
  50:      3511.38 cm**-1

IR SPECTRUM
-----------

 Mode    freq (cm**-1)   T**2         TX         TY         TZ
-------------------------------------------------------------------
   6:       130.98    7.680936  (  0.323862   0.401345   2.723045)
   7:       205.50    1.021963  (  0.208398  -0.694226  -0.704687)
   8:       234.85    1.225233  (  0.050019  -0.951666  -0.563084)
   9:       330.00    9.154391  ( -1.767588   1.953244  -1.488241)
  10:       381.21    6.069291  ( -0.445203   2.132846   1.149806)
  11:       485.00    6.129008  (  1.701163  -0.564505  -1.707743)
  12:       530.28   11.868937  ( -3.371050  -0.101418   0.703330)
  13:       583.93    3.824984  ( -1.600906   0.681305   0.893256)
  14:       738.54   13.725825  (  0.254473   0.171505  -3.692107)
  15:       772.74   19.795888  (  4.395529  -0.214489  -0.655140)
  16:       789.63   44.567563  ( -4.066795   1.021850   5.194667)
  17:       868.73   22.109154  ( -1.694016  -1.867556   3.968841)
  18:       920.72    5.403273  (  1.887212  -0.231874   1.337138)
  19:       946.30   12.192981  (  1.018664  -1.129665  -3.143113)
  20:       998.90    1.793613  (  0.637578  -1.144364  -0.278458)
  21:      1001.66    0.612923  ( -0.645338   0.404281   0.181710)
  22:      1022.35   18.740599  (  2.496277  -1.782945   3.054555)
  23:      1055.74   22.372754  (  2.487394   1.205886  -3.838159)
  24:      1110.56   16.579572  (  3.930726  -0.902221  -0.561213)
  25:      1133.05   20.275625  ( -0.798020  -4.308844  -1.035691)
  26:      1163.94   21.635424  (  1.244930   4.480702  -0.094276)
  27:      1245.24    2.876063  ( -0.084803   1.376483   0.986999)
  28:      1292.08   11.794137  ( -0.038238   3.403235   0.458984)
  29:      1309.09  138.390189  (  2.016016   8.937418   7.378918)
  30:      1367.62   18.548410  ( -0.608319  -3.893554   1.737410)
  31:      1378.25    9.767658  ( -0.684197  -0.945078   2.899373)
  32:      1392.28   22.774641  ( -0.010396   0.146518   4.770017)
  33:      1410.94    7.416280  ( -0.356196   1.772610  -2.036482)
  34:      1449.81   36.281243  ( -2.048221  -4.339945   3.640180)
  35:      1463.48   69.132031  ( -7.034064   1.350221   4.222663)
  36:      1481.67   77.438013  ( -6.720542   0.821239   5.621201)
  37:      1500.21   30.396536  (  4.569216   2.644929  -1.588443)
  38:      1641.97   40.548054  ( -2.516435  -3.986151  -4.280912)
  39:      1653.54   45.942425  ( -3.142115   2.948472  -5.232212)
  40:      1695.16  156.287197  ( -0.307482  -5.189396 -11.369381)
  41:      3001.97   37.135310  (  5.798765   1.437688  -1.201117)
  42:      3072.97    3.495920  ( -0.413575  -1.394643   1.174669)
  43:      3096.47    4.661569  ( -0.334977   0.630986  -2.037453)
  44:      3123.49    2.044855  ( -0.501743  -1.295037   0.340571)
  45:      3154.18    1.440153  (  0.184945  -1.161950  -0.236265)
  46:      3212.13    1.668782  (  0.304516   0.614184   1.094911)
  47:      3227.86    0.248540  (  0.341190   0.352278  -0.089610)
  48:      3407.60   22.317579  (  3.477795   0.221610  -3.189578)
  49:      3502.48   63.475784  (  4.403192  -1.963342   6.342946)
  50:      3511.38   87.992589  (  0.125699  -8.466084  -4.037599)

--------------------------
THERMOCHEMISTRY AT 298.15K
--------------------------

Temperature         ... 298.15 K
Pressure            ... 1.00 atm
Total Mass          ... 100.14 AMU

Throughout the following assumptions are being made:
  (1) The electronic state is orbitally nondegenerate
  (2) There are no thermally accessible electronically excited states
  (3) Hindered rotations indicated by low frequency modes) are not
      treated as such but are treated as vibrations and this may
      case some error
  (4) All equations used are the standard statistical mechanics
      equations for an ideal gas
  (5) All vibrations are strinctly harmonic

------------
INNER ENERGY
------------

The inner energy is: U= E(el) + E(ZPE) + E(vib) + E(rot) + E(trans)
    E(el)   - is the total energy from the electronic structure calculation
              = E(kin-el) + E(nuc-el) + E(el-el) + E(nuc-nuc)
    E(ZPE)  - the the zero temperature vibrational energy from the frequency calculation
    E(vib)  - the the finite temperature correction to E(ZPE) due to population
              of excietd vibrational states
    E(rot)  - is the rotational thermal energy
    E(trans)- is the translational thermal energy

Summary of contributions to the inner energy U:
Electronic energy                ...   -326.00801111 Eh
Zero point energy                ...      0.15490743 Eh      97.21 kcal/mol
Thermal vibrational correction   ...      0.00377822 Eh       2.37 kcal/mol
Thermal rotational correction    ...      0.00141627 Eh       0.89 kcal/mol
Thermal translational correction ...      0.00141627 Eh       0.89 kcal/mol
-----------------------------------------------------------------------
Total thermal energy                   -325.84649292 Eh

Summary of corrections to the electronic energy:
(perhaps to be used in another calculation)
Total thermal correction                  0.00661076 Eh       4.15 kcal/mol
Non-thermal (ZPE) correction              0.15490743 Eh      97.21 kcal/mol
-----------------------------------------------------------------------
Total correction                          0.16151819 Eh     101.35 kcal/mol

--------
ENTHALPY
--------

The enthalpy is H = U + kB*T
                kB is Boltzmann's constant
Total free energy                 ...   -325.84649292 Eh
Thermal Enthalpy correction       ...      0.00094421 Eh       0.59 kcal/mol
-----------------------------------------------------------------------
Total Enthalpy                    ...   -325.84554871 Eh

-------
ENTROPY
-------

The entropy contributions are T*S = T*(S(el)+S(vib)+S(rot)+S(trans)
     S(el)   - electronic entropy
     S(vib)  - vibrational entropy
     S(rot)  - rotational entropy
     S(trans)- translational entropy
The entropies will be listed as mutliplied by the temperature to get
units of energy

Electronic entropy                ...      0.00000000 Eh      0.00 kcal/mol
Vibrational entropy               ...      0.00606743 Eh      3.81 kcal/mol
Rotational entropy                ...      0.01185686 Eh      7.44 kcal/mol
Translational entropy             ...      0.01887324 Eh     11.84 kcal/mol
-----------------------------------------------------------------------
Final entropy term                ...      0.03679753 Eh     23.09 kcal/mol

CAUTION: The rotational entropy is not quite correctly treated here
         because it includes a symmetry number that is not yet correctly
         implemented in ORCA!
For a nonlinear molecule the correct rotational entropy is:
    S(rot) = R*(ln(qrot/sn)+1.5)
    R    = 8.31441 J/mol/K = 1.987191683e-3 kcal/mol/K
    qrot = 190315.7567380
    sn is the rotational symmetry number. We have assumed 3 here
       if it is different for your molecule then you should correct
       the printed rotational entropy by manually evaluating the equation
       as given above

For convenience we print out the resulting values for sn=1 - 12:
 sn= 1  qrot/sn=  190315.7567 T*S(rot)=     8.09 kcal/mol T*S(tot)=    23.74 kcal/mol
 sn= 2  qrot/sn=   95157.8784 T*S(rot)=     7.68 kcal/mol T*S(tot)=    23.33 kcal/mol
 sn= 3  qrot/sn=   63438.5856 T*S(rot)=     7.44 kcal/mol T*S(tot)=    23.09 kcal/mol
 sn= 4  qrot/sn=   47578.9392 T*S(rot)=     7.27 kcal/mol T*S(tot)=    22.92 kcal/mol
 sn= 5  qrot/sn=   38063.1513 T*S(rot)=     7.14 kcal/mol T*S(tot)=    22.79 kcal/mol
 sn= 6  qrot/sn=   31719.2928 T*S(rot)=     7.03 kcal/mol T*S(tot)=    22.68 kcal/mol
 sn= 7  qrot/sn=   27187.9652 T*S(rot)=     6.94 kcal/mol T*S(tot)=    22.59 kcal/mol
 sn= 8  qrot/sn=   23789.4696 T*S(rot)=     6.86 kcal/mol T*S(tot)=    22.51 kcal/mol
 sn= 9  qrot/sn=   21146.1952 T*S(rot)=     6.79 kcal/mol T*S(tot)=    22.44 kcal/mol
 sn=10  qrot/sn=   19031.5757 T*S(rot)=     6.73 kcal/mol T*S(tot)=    22.38 kcal/mol
 sn=11  qrot/sn=   17301.4324 T*S(rot)=     6.67 kcal/mol T*S(tot)=    22.32 kcal/mol
 sn=12  qrot/sn=   15859.6464 T*S(rot)=     6.62 kcal/mol T*S(tot)=    22.27 kcal/mol

-------------------
GIBBS FREE ENTHALPY
-------------------

The Gibbs free enthalpy is G = H - T*S

Total enthalpy                    ...   -325.84554871 Eh
Total entropy correction          ...     -0.03679753 Eh    -23.09 kcal/mol
-----------------------------------------------------------------------
Final Gibbs free enthalpy         ...   -325.88234624 Eh

For completeness - the Gibbs free enthalpy minus the electronic energy
G-E(el)                           ...      0.12566487 Eh     78.86 kcal/mol

                             ****ORCA TERMINATED NORMALLY****
TOTAL RUN TIME: 0 days 0 hours 41 minutes 31 seconds 868 msec
