                         Program Version 3.0.3 - RELEASE   -
|  1> ! NORI PBE0 def2-TZVP UseSym TightOPT Freq TightSCF Grid3 FinalGrid5 XYZFile
|  2> % pal
|  3>     nprocs 8
|  4> end
|  5> %method
|  6>     SymThresh 5.0e-2
|  7> end
|  8> % geom
|  9>     MaxIter 10
| 10> end
| 11> % maxcore 2000
| 12> % output
| 13>     printlevel mini
| 14>     print[ P_Basis ] 0
| 15>     print[ P_SCFInfo ] 1
| 16>     print[ P_SCFIterInfo ] 1
| 17>     print[ P_OrbEn ] 0
| 18>     print[ P_Cartesian ] 0
| 19> end
| 20> % elprop
| 21>     Dipole false
| 22> end
| 23> *xyz 1 1
| 24>  N        0.9694897183     0.1731282428    -0.1518418053
| 25>  C        2.4552575912     0.1079809952     0.1884921725
| 26>  C        3.1559190641     1.3725732059    -0.2582968138
| 27>  C        3.4984889028     1.2290079389    -1.7233515295
| 28>  O        4.3226168479     0.0936938130    -1.9523250182
| 29>  N        3.9547503984    -1.0637830502    -1.3874809027
| 30>  C        3.0676999318    -1.0875888525    -0.4696776571
| 31>  H        0.5026311982    -0.7122579648     0.0597582534
| 32>  H        0.8411030711     0.3528409228    -1.1511658458
| 33>  H        0.4972814086     0.9152471448     0.3710179665
| 34>  H        2.4825091284    -0.0149981775     1.2738462870
| 35>  H        2.5595816216     2.2712360439    -0.0764661288
| 36>  H        4.0713978774     1.4750835101     0.3286649617
| 37>  H        2.5980957205     1.1212463017    -2.3479270016
| 38>  H        4.0671193583     2.0765901665    -2.1018294446
| 39>  H        2.8660081613    -2.0791602408    -0.0741074939
| 40> *
| 41>
| 42>                          ****END OF INPUT****
 Total Charge           Charge          ....    1
 Multiplicity           Mult            ....    1
 Number of Electrons    NEL             ....   54
FINAL SINGLE POINT ENERGY      -341.982704428439
FINAL SINGLE POINT ENERGY      -341.982705559710

CARTESIAN COORDINATES (ANGSTROEM)
---------------------------------
  N      0.823140   -0.001249   -1.993472
  C     -0.402687   -0.065537   -1.087527
  C     -0.545864    1.217066   -0.297496
  C      0.341874    1.122598    0.922348
  O      0.001811   -0.000624    1.723994
  N     -0.163873   -1.177236    1.106054
  C     -0.280538   -1.235796   -0.163957
  H      0.982420   -0.895993   -2.462895
  H      1.660827    0.206793   -1.443906
  H      0.721910    0.721412   -2.710987
  H     -1.240624   -0.221928   -1.771121
  H     -0.312267    2.105587   -0.890637
  H     -1.590137    1.306994    0.010798
  H      1.406016    1.032968    0.652363
  H      0.237507    1.984630    1.578835
  H     -0.430281   -2.240522   -0.549278

FINAL SINGLE POINT ENERGY      -341.982706104330
                    ***********************HURRAY********************
 Multiplicity           Mult            ....    1
 Number of Electrons    NEL             ....   54
 Basis Dimension        Dim             ....  271
FINAL SINGLE POINT ENERGY      -341.982706210238

VIBRATIONAL FREQUENCIES
-----------------------

   0:         0.00 cm**-1
   1:         0.00 cm**-1
   2:         0.00 cm**-1
   3:         0.00 cm**-1
   4:         0.00 cm**-1
   5:         0.00 cm**-1
   6:       122.42 cm**-1
   7:       212.11 cm**-1
   8:       239.69 cm**-1
   9:       320.75 cm**-1
  10:       380.02 cm**-1
  11:       505.84 cm**-1
  12:       538.66 cm**-1
  13:       607.92 cm**-1
  14:       765.74 cm**-1
  15:       784.55 cm**-1
  16:       863.30 cm**-1
  17:       884.16 cm**-1
  18:       934.62 cm**-1
  19:       941.38 cm**-1
  20:       996.80 cm**-1
  21:      1024.71 cm**-1
  22:      1037.38 cm**-1
  23:      1097.77 cm**-1
  24:      1112.47 cm**-1
  25:      1163.18 cm**-1
  26:      1242.66 cm**-1
  27:      1279.69 cm**-1
  28:      1338.33 cm**-1
  29:      1373.78 cm**-1
  30:      1377.50 cm**-1
  31:      1394.08 cm**-1
  32:      1416.67 cm**-1
  33:      1465.34 cm**-1
  34:      1484.61 cm**-1
  35:      1498.98 cm**-1
  36:      1648.27 cm**-1
  37:      1651.97 cm**-1
  38:      1666.87 cm**-1
  39:      2989.27 cm**-1
  40:      3075.34 cm**-1
  41:      3102.70 cm**-1
  42:      3126.92 cm**-1
  43:      3157.38 cm**-1
  44:      3181.71 cm**-1
  45:      3403.56 cm**-1
  46:      3490.86 cm**-1
  47:      3497.11 cm**-1

IR SPECTRUM
-----------

 Mode    freq (cm**-1)   T**2         TX         TY         TZ
-------------------------------------------------------------------
   6:       122.42    7.755783  (  0.092347  -0.408528  -2.753245)
   7:       212.11    0.775747  ( -0.370533  -0.690190  -0.402604)
   8:       239.69    1.712664  ( -1.092614  -0.718936   0.044595)
   9:       320.75    6.473277  (  0.573142   1.261897  -2.133636)
  10:       380.02    5.202019  (  0.977953  -1.993990  -0.519260)
  11:       505.84    1.298274  ( -0.224364   0.548822  -0.973000)
  12:       538.66    0.198677  ( -0.318886   0.052404  -0.306990)
  13:       607.92    8.522007  (  0.268766  -0.614744  -2.841102)
  14:       765.74    5.554009  (  0.060239   0.957937  -2.152379)
  15:       784.55    4.026323  ( -0.708992  -0.679747  -1.749742)
  16:       863.30   32.149830  ( -3.508829   0.230868   4.447994)
  17:       884.16   10.677920  ( -0.588985  -0.728940   3.130441)
  18:       934.62   28.706931  (  1.395703  -2.947017  -4.251357)
  19:       941.38   14.180506  (  1.410329   1.351737   3.219361)
  20:       996.80    9.706663  ( -1.104588   0.990952  -2.739446)
  21:      1024.71   37.755708  ( -0.018444  -1.040668  -6.055772)
  22:      1037.38   14.226530  (  3.208464  -1.850456  -0.712812)
  23:      1097.77   55.588766  (  3.351604   6.334443   2.056782)
  24:      1112.47   16.118137  ( -2.974146   2.694569   0.109037)
  25:      1163.18   12.748359  ( -1.063225  -3.386943  -0.382794)
  26:      1242.66    2.035259  ( -0.400299  -0.259298  -1.344539)
  27:      1279.69   17.791432  (  0.311149   3.396409   2.481739)
  28:      1338.33   17.750648  (  0.887623   2.248250   3.450818)
  29:      1373.78    2.237244  ( -0.265878  -0.475815   1.392894)
  30:      1377.50    3.293998  ( -0.188217   0.278280   1.783573)
  31:      1394.08   20.971896  (  0.604140  -0.286650   4.530424)
  32:      1416.67    1.877479  ( -0.596536  -0.413504   1.162170)
  33:      1465.34   25.766776  (  3.957393  -2.899772  -1.302743)
  34:      1484.61   27.935706  ( -2.793250   0.769934   4.420482)
  35:      1498.98  135.070196  (  9.411816   1.309705  -6.691232)
  36:      1648.27   46.997988  ( -3.067879  -3.699438  -4.888789)
  37:      1651.97   37.524511  ( -2.936629   2.353787  -4.833261)
  38:      1666.87   34.377444  ( -0.846391   4.835072   3.206734)
  39:      2989.27   37.982781  ( -5.850120  -0.952965   1.688413)
  40:      3075.34    3.849046  ( -0.540538  -1.166660   1.481812)
  41:      3102.70    0.702534  (  0.212772  -0.011974  -0.810628)
  42:      3126.92    1.128515  (  0.006240  -1.037288   0.229150)
  43:      3157.38    0.094937  (  0.152408  -0.199131   0.179041)
  44:      3181.71    0.492250  (  0.408904   0.565941  -0.068980)
  45:      3403.56   31.684944  (  4.053068   0.065282  -3.905550)
  46:      3490.86   80.849467  ( -4.767982   0.179310  -7.621264)
  47:      3497.11   92.114781  ( -0.850574   9.366715   1.912057)

--------------------------
THERMOCHEMISTRY AT 298.15K
--------------------------

Temperature         ... 298.15 K
Pressure            ... 1.00 atm
Total Mass          ... 101.13 AMU

Throughout the following assumptions are being made:
  (1) The electronic state is orbitally nondegenerate
  (2) There are no thermally accessible electronically excited states
  (3) Hindered rotations indicated by low frequency modes) are not
      treated as such but are treated as vibrations and this may
      case some error
  (4) All equations used are the standard statistical mechanics
      equations for an ideal gas
  (5) All vibrations are strinctly harmonic

------------
INNER ENERGY
------------

The inner energy is: U= E(el) + E(ZPE) + E(vib) + E(rot) + E(trans)
    E(el)   - is the total energy from the electronic structure calculation
              = E(kin-el) + E(nuc-el) + E(el-el) + E(nuc-nuc)
    E(ZPE)  - the the zero temperature vibrational energy from the frequency calculation
    E(vib)  - the the finite temperature correction to E(ZPE) due to population
              of excietd vibrational states
    E(rot)  - is the rotational thermal energy
    E(trans)- is the translational thermal energy

Summary of contributions to the inner energy U:
Electronic energy                ...   -341.98270621 Eh
Zero point energy                ...      0.14215100 Eh      89.20 kcal/mol
Thermal vibrational correction   ...      0.00367858 Eh       2.31 kcal/mol
Thermal rotational correction    ...      0.00141627 Eh       0.89 kcal/mol
Thermal translational correction ...      0.00141627 Eh       0.89 kcal/mol
-----------------------------------------------------------------------
Total thermal energy                   -341.83404409 Eh

Summary of corrections to the electronic energy:
(perhaps to be used in another calculation)
Total thermal correction                  0.00651112 Eh       4.09 kcal/mol
Non-thermal (ZPE) correction              0.14215100 Eh      89.20 kcal/mol
-----------------------------------------------------------------------
Total correction                          0.14866212 Eh      93.29 kcal/mol

--------
ENTHALPY
--------

The enthalpy is H = U + kB*T
                kB is Boltzmann's constant
Total free energy                 ...   -341.83404409 Eh
Thermal Enthalpy correction       ...      0.00094421 Eh       0.59 kcal/mol
-----------------------------------------------------------------------
Total Enthalpy                    ...   -341.83309988 Eh

-------
ENTROPY
-------

The entropy contributions are T*S = T*(S(el)+S(vib)+S(rot)+S(trans)
     S(el)   - electronic entropy
     S(vib)  - vibrational entropy
     S(rot)  - rotational entropy
     S(trans)- translational entropy
The entropies will be listed as mutliplied by the temperature to get
units of energy

Electronic entropy                ...      0.00000000 Eh      0.00 kcal/mol
Vibrational entropy               ...      0.00595944 Eh      3.74 kcal/mol
Rotational entropy                ...      0.01183151 Eh      7.42 kcal/mol
Translational entropy             ...      0.01888714 Eh     11.85 kcal/mol
-----------------------------------------------------------------------
Final entropy term                ...      0.03667809 Eh     23.02 kcal/mol

CAUTION: The rotational entropy is not quite correctly treated here
         because it includes a symmetry number that is not yet correctly
         implemented in ORCA!
For a nonlinear molecule the correct rotational entropy is:
    S(rot) = R*(ln(qrot/sn)+1.5)
    R    = 8.31441 J/mol/K = 1.987191683e-3 kcal/mol/K
    qrot = 185273.1541404
    sn is the rotational symmetry number. We have assumed 3 here
       if it is different for your molecule then you should correct
       the printed rotational entropy by manually evaluating the equation
       as given above

For convenience we print out the resulting values for sn=1 - 12:
 sn= 1  qrot/sn=  185273.1541 T*S(rot)=     8.08 kcal/mol T*S(tot)=    23.67 kcal/mol
 sn= 2  qrot/sn=   92636.5771 T*S(rot)=     7.66 kcal/mol T*S(tot)=    23.26 kcal/mol
 sn= 3  qrot/sn=   61757.7180 T*S(rot)=     7.42 kcal/mol T*S(tot)=    23.02 kcal/mol
 sn= 4  qrot/sn=   46318.2885 T*S(rot)=     7.25 kcal/mol T*S(tot)=    22.85 kcal/mol
 sn= 5  qrot/sn=   37054.6308 T*S(rot)=     7.12 kcal/mol T*S(tot)=    22.71 kcal/mol
 sn= 6  qrot/sn=   30878.8590 T*S(rot)=     7.01 kcal/mol T*S(tot)=    22.61 kcal/mol
 sn= 7  qrot/sn=   26467.5934 T*S(rot)=     6.92 kcal/mol T*S(tot)=    22.51 kcal/mol
 sn= 8  qrot/sn=   23159.1443 T*S(rot)=     6.84 kcal/mol T*S(tot)=    22.43 kcal/mol
 sn= 9  qrot/sn=   20585.9060 T*S(rot)=     6.77 kcal/mol T*S(tot)=    22.36 kcal/mol
 sn=10  qrot/sn=   18527.3154 T*S(rot)=     6.71 kcal/mol T*S(tot)=    22.30 kcal/mol
 sn=11  qrot/sn=   16843.0140 T*S(rot)=     6.65 kcal/mol T*S(tot)=    22.25 kcal/mol
 sn=12  qrot/sn=   15439.4295 T*S(rot)=     6.60 kcal/mol T*S(tot)=    22.19 kcal/mol

-------------------
GIBBS FREE ENTHALPY
-------------------

The Gibbs free enthalpy is G = H - T*S

Total enthalpy                    ...   -341.83309988 Eh
Total entropy correction          ...     -0.03667809 Eh    -23.02 kcal/mol
-----------------------------------------------------------------------
Final Gibbs free enthalpy         ...   -341.86977797 Eh

For completeness - the Gibbs free enthalpy minus the electronic energy
G-E(el)                           ...      0.11292824 Eh     70.86 kcal/mol

                             ****ORCA TERMINATED NORMALLY****
TOTAL RUN TIME: 0 days 0 hours 32 minutes 27 seconds 810 msec
