                         Program Version 3.0.3 - RELEASE   -
|  1> ! NORI PBE0 def2-TZVP UseSym TightOPT Freq TightSCF Grid3 FinalGrid5 XYZFile
|  2> % pal
|  3>     nprocs 8
|  4> end
|  5> %method
|  6>     SymThresh 5.0e-2
|  7> end
|  8> % geom
|  9>     MaxIter 10
| 10> end
| 11> % maxcore 2000
| 12> % output
| 13>     printlevel mini
| 14>     print[ P_Basis ] 0
| 15>     print[ P_SCFInfo ] 1
| 16>     print[ P_SCFIterInfo ] 1
| 17>     print[ P_OrbEn ] 0
| 18>     print[ P_Cartesian ] 0
| 19> end
| 20> % elprop
| 21>     Dipole false
| 22> end
| 23> *xyz 1 1
| 24>  N        1.0630912719     0.0654886842     0.4298658975
| 25>  C        2.4627214786     0.0691318401    -0.1179686521
| 26>  C        3.3039869083     1.1484857776     0.5790720283
| 27>  N        3.7474843364     0.1003909216     1.4987885377
| 28>  C        3.3127722086    -0.9774866197     0.6168737493
| 29>  C        4.8633071460     0.0385652972     2.3012528582
| 30>  O        5.3763036719    -1.0043504960     2.5924037066
| 31>  H        0.5279552478     0.8804950037     0.1200689365
| 32>  H        1.1004571900     0.0798532050     1.4546451768
| 33>  H        0.5516255471    -0.7744750606     0.1470396018
| 34>  H        2.3985726638     0.0532630485    -1.2032122217
| 35>  H        2.7728597024     1.9940227976     1.0271080942
| 36>  H        4.0895774795     1.5305663646    -0.0801618644
| 37>  H        4.1163321886    -1.3800183915    -0.0070044233
| 38>  H        2.7940938291    -1.8114098888     1.0982994058
| 39>  H        5.2004691300     1.0267875165     2.6603891690
| 40> *
| 41>
| 42>                          ****END OF INPUT****
 Total Charge           Charge          ....    1
 Multiplicity           Mult            ....    1
 Number of Electrons    NEL             ....   54
FINAL SINGLE POINT ENERGY      -342.025548250098
FINAL SINGLE POINT ENERGY      -342.025548486508
FINAL SINGLE POINT ENERGY      -342.025549025504

CARTESIAN COORDINATES (ANGSTROEM)
---------------------------------
  N      1.066943   -0.000416   -2.207417
  C     -0.107032    0.570985   -1.462371
  C     -0.928919   -0.555552   -0.818861
  N     -0.143633   -0.330484    0.395342
  C      0.322974    0.979641   -0.046081
  C     -0.423176   -0.649217    1.704233
  O      0.000488   -0.000051    2.617866
  H      0.781230   -0.473051   -3.068229
  H      1.545832   -0.684402   -1.612416
  H      1.742956    0.726040   -2.455990
  H     -0.597342    1.292427   -2.111062
  H     -0.858247   -1.552527   -1.263961
  H     -1.983961   -0.278848   -0.730169
  H     -0.270281    1.809124    0.350148
  H      1.381281    1.194232    0.125990
  H     -1.034588   -1.562340    1.812318

FINAL SINGLE POINT ENERGY      -342.025549143095
                    ***********************HURRAY********************
 Multiplicity           Mult            ....    1
 Number of Electrons    NEL             ....   54
 Basis Dimension        Dim             ....  271
FINAL SINGLE POINT ENERGY      -342.025549182724

VIBRATIONAL FREQUENCIES
-----------------------

   0:         0.00 cm**-1
   1:         0.00 cm**-1
   2:         0.00 cm**-1
   3:         0.00 cm**-1
   4:         0.00 cm**-1
   5:         0.00 cm**-1
   6:        71.34 cm**-1
   7:       144.03 cm**-1
   8:       183.10 cm**-1
   9:       270.90 cm**-1
  10:       303.49 cm**-1
  11:       373.79 cm**-1
  12:       399.38 cm**-1
  13:       558.23 cm**-1
  14:       786.47 cm**-1
  15:       815.29 cm**-1
  16:       874.13 cm**-1
  17:       898.06 cm**-1
  18:       933.50 cm**-1
  19:       982.44 cm**-1
  20:      1032.76 cm**-1
  21:      1054.72 cm**-1
  22:      1104.45 cm**-1
  23:      1140.75 cm**-1
  24:      1144.86 cm**-1
  25:      1190.61 cm**-1
  26:      1218.80 cm**-1
  27:      1284.61 cm**-1
  28:      1292.10 cm**-1
  29:      1324.56 cm**-1
  30:      1369.91 cm**-1
  31:      1403.49 cm**-1
  32:      1417.06 cm**-1
  33:      1494.36 cm**-1
  34:      1501.70 cm**-1
  35:      1520.05 cm**-1
  36:      1655.58 cm**-1
  37:      1658.92 cm**-1
  38:      1826.02 cm**-1
  39:      3000.69 cm**-1
  40:      3054.14 cm**-1
  41:      3064.97 cm**-1
  42:      3105.90 cm**-1
  43:      3114.21 cm**-1
  44:      3170.92 cm**-1
  45:      3401.08 cm**-1
  46:      3480.63 cm**-1
  47:      3499.15 cm**-1

IR SPECTRUM
-----------

 Mode    freq (cm**-1)   T**2         TX         TY         TZ
-------------------------------------------------------------------
   6:        71.34    7.778274  ( -0.021797  -0.899334   2.639886)
   7:       144.03   24.590573  (  1.139987   0.807586  -4.758026)
   8:       183.10    8.107864  ( -0.771844  -0.643982   2.664096)
   9:       270.90    2.359020  ( -0.854432   0.602797   1.124990)
  10:       303.49   28.235369  (  3.404740  -3.415596  -2.230879)
  11:       373.79    9.062523  (  2.224615   1.901182  -0.706484)
  12:       399.38    3.202944  (  0.914195  -0.198292   1.525736)
  13:       558.23    3.822911  ( -1.643339   0.722255   0.775045)
  14:       786.47   36.250824  (  1.461205   1.657885  -5.600636)
  15:       815.29    0.032741  (  0.160207  -0.084006   0.004154)
  16:       874.13    1.873614  ( -0.953556  -0.272355  -0.943487)
  17:       898.06    6.240733  ( -1.501512   1.391778   1.431485)
  18:       933.50    6.816328  (  1.379940   1.758149   1.349446)
  19:       982.44   28.737045  ( -0.875248  -1.125954   5.167515)
  20:      1032.76    1.072002  ( -0.135446  -0.312770  -0.977666)
  21:      1054.72    1.914674  (  1.097107  -0.351556   0.766446)
  22:      1104.45    2.652177  (  0.698290   1.129947   0.942225)
  23:      1140.75    2.929275  (  0.031737  -0.424750   1.657665)
  24:      1144.86   12.131717  ( -0.821684  -0.665922   3.318599)
  25:      1190.61   40.323697  ( -3.726197  -4.708311  -2.066632)
  26:      1218.80   13.021425  (  2.646388  -0.174809  -2.446937)
  27:      1284.61    5.826717  (  0.868997   0.185825   2.244333)
  28:      1292.10    2.373053  (  0.416613   1.100828  -0.993814)
  29:      1324.56   50.162833  (  1.257593   3.928349  -5.757549)
  30:      1369.91  146.939932  (  0.871067   3.506160 -11.570999)
  31:      1403.49   17.096936  (  1.078754   1.397653  -3.738956)
  32:      1417.06   83.376361  (  0.831308   2.688330  -8.686666)
  33:      1494.36   11.115836  (  0.978127   2.732623   1.640693)
  34:      1501.70  162.095639  (  9.528504  -4.581194  -7.093371)
  35:      1520.05   15.807906  ( -2.851280   2.334754  -1.492324)
  36:      1655.58   39.137490  ( -0.632929   4.279997  -4.518685)
  37:      1658.92   28.772082  (  3.292059   3.245097   2.720988)
  38:      1826.02  324.696700  ( -3.135194  -3.625594 -17.370156)
  39:      3000.69   36.149851  (  3.107751   5.116199  -0.562358)
  40:      3054.14   21.213475  ( -2.158218  -2.220938  -3.409253)
  41:      3064.97   12.548899  ( -1.269775  -1.725238   2.821369)
  42:      3105.90    4.441375  ( -1.012938   1.674243   0.782459)
  43:      3114.21    2.992837  (  1.718896   0.068422  -0.183173)
  44:      3170.92    1.186261  (  0.283545   0.131869  -1.043299)
  45:      3401.08   40.955812  (  5.206016  -2.768597  -2.487585)
  46:      3480.63  113.458638  ( -0.157519   5.618690  -9.047881)
  47:      3499.15   98.133615  ( -5.803575  -6.817707  -4.239221)

--------------------------
THERMOCHEMISTRY AT 298.15K
--------------------------

Temperature         ... 298.15 K
Pressure            ... 1.00 atm
Total Mass          ... 101.13 AMU

Throughout the following assumptions are being made:
  (1) The electronic state is orbitally nondegenerate
  (2) There are no thermally accessible electronically excited states
  (3) Hindered rotations indicated by low frequency modes) are not
      treated as such but are treated as vibrations and this may
      case some error
  (4) All equations used are the standard statistical mechanics
      equations for an ideal gas
  (5) All vibrations are strinctly harmonic

------------
INNER ENERGY
------------

The inner energy is: U= E(el) + E(ZPE) + E(vib) + E(rot) + E(trans)
    E(el)   - is the total energy from the electronic structure calculation
              = E(kin-el) + E(nuc-el) + E(el-el) + E(nuc-nuc)
    E(ZPE)  - the the zero temperature vibrational energy from the frequency calculation
    E(vib)  - the the finite temperature correction to E(ZPE) due to population
              of excietd vibrational states
    E(rot)  - is the rotational thermal energy
    E(trans)- is the translational thermal energy

Summary of contributions to the inner energy U:
Electronic energy                ...   -342.02554918 Eh
Zero point energy                ...      0.14152246 Eh      88.81 kcal/mol
Thermal vibrational correction   ...      0.00433266 Eh       2.72 kcal/mol
Thermal rotational correction    ...      0.00141627 Eh       0.89 kcal/mol
Thermal translational correction ...      0.00141627 Eh       0.89 kcal/mol
-----------------------------------------------------------------------
Total thermal energy                   -341.87686152 Eh

Summary of corrections to the electronic energy:
(perhaps to be used in another calculation)
Total thermal correction                  0.00716520 Eh       4.50 kcal/mol
Non-thermal (ZPE) correction              0.14152246 Eh      88.81 kcal/mol
-----------------------------------------------------------------------
Total correction                          0.14868766 Eh      93.30 kcal/mol

--------
ENTHALPY
--------

The enthalpy is H = U + kB*T
                kB is Boltzmann's constant
Total free energy                 ...   -341.87686152 Eh
Thermal Enthalpy correction       ...      0.00094421 Eh       0.59 kcal/mol
-----------------------------------------------------------------------
Total Enthalpy                    ...   -341.87591731 Eh

-------
ENTROPY
-------

The entropy contributions are T*S = T*(S(el)+S(vib)+S(rot)+S(trans)
     S(el)   - electronic entropy
     S(vib)  - vibrational entropy
     S(rot)  - rotational entropy
     S(trans)- translational entropy
The entropies will be listed as mutliplied by the temperature to get
units of energy

Electronic entropy                ...      0.00000000 Eh      0.00 kcal/mol
Vibrational entropy               ...      0.00771106 Eh      4.84 kcal/mol
Rotational entropy                ...      0.01195831 Eh      7.50 kcal/mol
Translational entropy             ...      0.01888714 Eh     11.85 kcal/mol
-----------------------------------------------------------------------
Final entropy term                ...      0.03855651 Eh     24.19 kcal/mol

CAUTION: The rotational entropy is not quite correctly treated here
         because it includes a symmetry number that is not yet correctly
         implemented in ORCA!
For a nonlinear molecule the correct rotational entropy is:
    S(rot) = R*(ln(qrot/sn)+1.5)
    R    = 8.31441 J/mol/K = 1.987191683e-3 kcal/mol/K
    qrot = 211902.4954475
    sn is the rotational symmetry number. We have assumed 3 here
       if it is different for your molecule then you should correct
       the printed rotational entropy by manually evaluating the equation
       as given above

For convenience we print out the resulting values for sn=1 - 12:
 sn= 1  qrot/sn=  211902.4954 T*S(rot)=     8.15 kcal/mol T*S(tot)=    24.85 kcal/mol
 sn= 2  qrot/sn=  105951.2477 T*S(rot)=     7.74 kcal/mol T*S(tot)=    24.43 kcal/mol
 sn= 3  qrot/sn=   70634.1651 T*S(rot)=     7.50 kcal/mol T*S(tot)=    24.19 kcal/mol
 sn= 4  qrot/sn=   52975.6239 T*S(rot)=     7.33 kcal/mol T*S(tot)=    24.02 kcal/mol
 sn= 5  qrot/sn=   42380.4991 T*S(rot)=     7.20 kcal/mol T*S(tot)=    23.89 kcal/mol
 sn= 6  qrot/sn=   35317.0826 T*S(rot)=     7.09 kcal/mol T*S(tot)=    23.78 kcal/mol
 sn= 7  qrot/sn=   30271.7851 T*S(rot)=     7.00 kcal/mol T*S(tot)=    23.69 kcal/mol
 sn= 8  qrot/sn=   26487.8119 T*S(rot)=     6.92 kcal/mol T*S(tot)=    23.61 kcal/mol
 sn= 9  qrot/sn=   23544.7217 T*S(rot)=     6.85 kcal/mol T*S(tot)=    23.54 kcal/mol
 sn=10  qrot/sn=   21190.2495 T*S(rot)=     6.79 kcal/mol T*S(tot)=    23.48 kcal/mol
 sn=11  qrot/sn=   19263.8632 T*S(rot)=     6.73 kcal/mol T*S(tot)=    23.42 kcal/mol
 sn=12  qrot/sn=   17658.5413 T*S(rot)=     6.68 kcal/mol T*S(tot)=    23.37 kcal/mol

-------------------
GIBBS FREE ENTHALPY
-------------------

The Gibbs free enthalpy is G = H - T*S

Total enthalpy                    ...   -341.87591731 Eh
Total entropy correction          ...     -0.03855651 Eh    -24.19 kcal/mol
-----------------------------------------------------------------------
Final Gibbs free enthalpy         ...   -341.91447382 Eh

For completeness - the Gibbs free enthalpy minus the electronic energy
G-E(el)                           ...      0.11107536 Eh     69.70 kcal/mol

                             ****ORCA TERMINATED NORMALLY****
TOTAL RUN TIME: 0 days 0 hours 31 minutes 18 seconds 327 msec
