                         Program Version 3.0.3 - RELEASE   -
|  1> ! NORI PBE0 def2-TZVP UseSym TightOPT Freq TightSCF Grid3 FinalGrid5 XYZFile
|  2> % pal
|  3>     nprocs 8
|  4> end
|  5> %method
|  6>     SymThresh 5.0e-2
|  7> end
|  8> % geom
|  9>     MaxIter 10
| 10> end
| 11> % maxcore 2000
| 12> % output
| 13>     printlevel mini
| 14>     print[ P_Basis ] 0
| 15>     print[ P_SCFInfo ] 1
| 16>     print[ P_SCFIterInfo ] 1
| 17>     print[ P_OrbEn ] 0
| 18>     print[ P_Cartesian ] 0
| 19> end
| 20> % elprop
| 21>     Dipole false
| 22> end
| 23> *xyz 1 1
| 24>  N        0.9001103190    -0.0343488518     0.0319029670
| 25>  C        2.4048921264    -0.0779480993     0.0486339750
| 26>  C        2.9849995866     1.0809452368     0.8711807571
| 27>  N        4.2180766134     0.5100256590     1.3263174432
| 28>  C        4.2683380508    -0.8557865184     1.3178857036
| 29>  O        5.1515154130    -1.5507871677     1.7228131796
| 30>  C        2.9513997685    -1.3355048376     0.6917322059
| 31>  H        0.5183060009    -0.8078773773    -0.5177766842
| 32>  H        0.5478431219     0.8376488752    -0.3724500405
| 33>  H        0.5223437022    -0.1131320199     0.9796238628
| 34>  H        2.7138838073     0.0009513159    -0.9947129688
| 35>  H        2.3138768210     1.3496089973     1.7030668364
| 36>  H        3.1434316707     1.9767528031     0.2658099984
| 37>  H        4.9475254695     1.0503790280     1.7646900560
| 38>  H        3.1299687839    -2.1596453701     0.0028881080
| 39>  H        2.3203187449    -1.7003716730     1.5108546002
| 40> *
| 41>
| 42>                          ****END OF INPUT****
 Total Charge           Charge          ....    1
 Multiplicity           Mult            ....    1
 Number of Electrons    NEL             ....   54
FINAL SINGLE POINT ENERGY      -342.076247629572

CARTESIAN COORDINATES (ANGSTROEM)
---------------------------------
  N      1.014496    0.000370   -2.261809
  C      0.247563    0.456780   -1.049077
  C     -1.054572   -0.339191   -0.883894
  N     -1.237822   -0.282060    0.536127
  C     -0.109782   -0.016669    1.260898
  O      0.000109   -0.000029    2.450201
  C      1.008674    0.246629    0.243067
  H      1.881183    0.533059   -2.367896
  H      0.471819    0.115234   -3.122060
  H      1.267206   -0.988170   -2.182391
  H      0.032287    1.513141   -1.216267
  H     -0.935405   -1.371720   -1.251243
  H     -1.886916    0.115495   -1.426267
  H     -2.090912   -0.562992    0.993883
  H      1.621767    1.090925    0.553835
  H      1.640502   -0.649297    0.220510

FINAL SINGLE POINT ENERGY      -342.076248610886
                    ***********************HURRAY********************
 Multiplicity           Mult            ....    1
 Number of Electrons    NEL             ....   54
 Basis Dimension        Dim             ....  271
FINAL SINGLE POINT ENERGY      -342.076249292864

VIBRATIONAL FREQUENCIES
-----------------------

   0:         0.00 cm**-1
   1:         0.00 cm**-1
   2:         0.00 cm**-1
   3:         0.00 cm**-1
   4:         0.00 cm**-1
   5:         0.00 cm**-1
   6:        98.59 cm**-1
   7:       158.28 cm**-1
   8:       224.91 cm**-1
   9:       292.93 cm**-1
  10:       418.70 cm**-1
  11:       487.52 cm**-1
  12:       498.44 cm**-1
  13:       531.35 cm**-1
  14:       617.43 cm**-1
  15:       695.39 cm**-1
  16:       846.02 cm**-1
  17:       875.89 cm**-1
  18:       913.80 cm**-1
  19:       963.96 cm**-1
  20:       978.20 cm**-1
  21:      1030.70 cm**-1
  22:      1096.95 cm**-1
  23:      1114.48 cm**-1
  24:      1175.47 cm**-1
  25:      1207.07 cm**-1
  26:      1261.86 cm**-1
  27:      1274.89 cm**-1
  28:      1280.78 cm**-1
  29:      1348.43 cm**-1
  30:      1376.23 cm**-1
  31:      1408.50 cm**-1
  32:      1461.23 cm**-1
  33:      1472.90 cm**-1
  34:      1509.45 cm**-1
  35:      1526.83 cm**-1
  36:      1653.38 cm**-1
  37:      1658.81 cm**-1
  38:      1888.71 cm**-1
  39:      2971.68 cm**-1
  40:      3057.47 cm**-1
  41:      3098.62 cm**-1
  42:      3123.10 cm**-1
  43:      3159.82 cm**-1
  44:      3408.84 cm**-1
  45:      3489.47 cm**-1
  46:      3497.53 cm**-1
  47:      3644.09 cm**-1

IR SPECTRUM
-----------

 Mode    freq (cm**-1)   T**2         TX         TY         TZ
-------------------------------------------------------------------
   6:        98.59    1.271044  (  0.279857  -0.805591   0.737393)
   7:       158.28    1.273912  (  0.909919  -0.658505   0.111044)
   8:       224.91    0.121519  ( -0.179837   0.244097  -0.172029)
   9:       292.93    3.955768  ( -0.926523  -0.604131  -1.652982)
  10:       418.70   21.422700  (  1.113781   3.051512  -3.297039)
  11:       487.52   46.175109  ( -3.956590   5.258773   1.692870)
  12:       498.44   16.293247  (  0.588604   3.966357   0.463470)
  13:       531.35   33.255834  ( -3.627666   4.031126  -1.961096)
  14:       617.43   37.668845  ( -2.264445   5.704353   0.038550)
  15:       695.39    5.003875  (  0.107313   1.376021   1.760377)
  16:       846.02    2.137330  (  0.524921  -1.353563  -0.172206)
  17:       875.89   19.696987  ( -0.801661  -0.845549   4.282449)
  18:       913.80    2.533331  (  1.084831   0.642108   0.971685)
  19:       963.96   12.906466  (  1.805836   1.989221   2.385041)
  20:       978.20    8.291737  (  0.375944   1.962437  -2.073462)
  21:      1030.70    9.557543  ( -0.855247   0.799121   2.861381)
  22:      1096.95    8.629590  (  2.498695  -1.497250  -0.379941)
  23:      1114.48   23.381367  (  3.751086   1.495560  -2.659704)
  24:      1175.47    6.169180  (  0.628971   0.448156   2.360663)
  25:      1207.07    3.848158  (  1.869166   0.562316  -0.195389)
  26:      1261.86   41.911549  (  4.991690   1.703970   3.753807)
  27:      1274.89   48.127629  (  6.749353   1.454911  -0.676091)
  28:      1280.78   35.198710  ( -5.131706  -1.047894  -2.786794)
  29:      1348.43   26.158776  (  1.905582   0.703091   4.693953)
  30:      1376.23   20.000953  ( -3.623812  -0.925928   2.451855)
  31:      1408.50   16.991407  (  3.089191   2.143458  -1.689347)
  32:      1461.23    1.386814  (  0.439998  -0.938255  -0.559369)
  33:      1472.90   41.179998  ( -3.613391  -0.900648  -5.226111)
  34:      1509.45  147.700838  (  7.352577  -3.167218  -9.143805)
  35:      1526.83   14.694962  (  0.668243  -2.443053  -2.877482)
  36:      1653.38   36.461126  (  5.308006   1.902624   2.160142)
  37:      1658.81   52.037296  ( -0.739639   6.372286  -3.299121)
  38:      1888.71  492.567985  (  4.345959   1.139627  21.734348)
  39:      2971.68   49.263970  ( -0.633551   4.155968   5.620544)
  40:      3057.47    1.356493  (  0.293617  -0.971518  -0.571345)
  41:      3098.62    5.888505  ( -1.298735   0.556742  -1.972773)
  42:      3123.10    0.769749  ( -0.197261   0.607458  -0.601524)
  43:      3159.82    0.471581  ( -0.361731  -0.580569  -0.060587)
  44:      3408.84   45.153889  ( -3.125175   1.413085   5.778439)
  45:      3489.47   83.311198  ( -4.797262   5.987271  -4.944700)
  46:      3497.53  100.868201  (  7.560175   6.579244   0.652300)
  47:      3644.09  101.102935  ( -9.129678  -2.628939   3.292506)

--------------------------
THERMOCHEMISTRY AT 298.15K
--------------------------

Temperature         ... 298.15 K
Pressure            ... 1.00 atm
Total Mass          ... 101.13 AMU

Throughout the following assumptions are being made:
  (1) The electronic state is orbitally nondegenerate
  (2) There are no thermally accessible electronically excited states
  (3) Hindered rotations indicated by low frequency modes) are not
      treated as such but are treated as vibrations and this may
      case some error
  (4) All equations used are the standard statistical mechanics
      equations for an ideal gas
  (5) All vibrations are strinctly harmonic

------------
INNER ENERGY
------------

The inner energy is: U= E(el) + E(ZPE) + E(vib) + E(rot) + E(trans)
    E(el)   - is the total energy from the electronic structure calculation
              = E(kin-el) + E(nuc-el) + E(el-el) + E(nuc-nuc)
    E(ZPE)  - the the zero temperature vibrational energy from the frequency calculation
    E(vib)  - the the finite temperature correction to E(ZPE) due to population
              of excietd vibrational states
    E(rot)  - is the rotational thermal energy
    E(trans)- is the translational thermal energy

Summary of contributions to the inner energy U:
Electronic energy                ...   -342.07624929 Eh
Zero point energy                ...      0.14306603 Eh      89.78 kcal/mol
Thermal vibrational correction   ...      0.00399956 Eh       2.51 kcal/mol
Thermal rotational correction    ...      0.00141627 Eh       0.89 kcal/mol
Thermal translational correction ...      0.00141627 Eh       0.89 kcal/mol
-----------------------------------------------------------------------
Total thermal energy                   -341.92635116 Eh

Summary of corrections to the electronic energy:
(perhaps to be used in another calculation)
Total thermal correction                  0.00683211 Eh       4.29 kcal/mol
Non-thermal (ZPE) correction              0.14306603 Eh      89.78 kcal/mol
-----------------------------------------------------------------------
Total correction                          0.14989814 Eh      94.06 kcal/mol

--------
ENTHALPY
--------

The enthalpy is H = U + kB*T
                kB is Boltzmann's constant
Total free energy                 ...   -341.92635116 Eh
Thermal Enthalpy correction       ...      0.00094421 Eh       0.59 kcal/mol
-----------------------------------------------------------------------
Total Enthalpy                    ...   -341.92540695 Eh

-------
ENTROPY
-------

The entropy contributions are T*S = T*(S(el)+S(vib)+S(rot)+S(trans)
     S(el)   - electronic entropy
     S(vib)  - vibrational entropy
     S(rot)  - rotational entropy
     S(trans)- translational entropy
The entropies will be listed as mutliplied by the temperature to get
units of energy

Electronic entropy                ...      0.00000000 Eh      0.00 kcal/mol
Vibrational entropy               ...      0.00673158 Eh      4.22 kcal/mol
Rotational entropy                ...      0.01193413 Eh      7.49 kcal/mol
Translational entropy             ...      0.01888714 Eh     11.85 kcal/mol
-----------------------------------------------------------------------
Final entropy term                ...      0.03755285 Eh     23.56 kcal/mol

CAUTION: The rotational entropy is not quite correctly treated here
         because it includes a symmetry number that is not yet correctly
         implemented in ORCA!
For a nonlinear molecule the correct rotational entropy is:
    S(rot) = R*(ln(qrot/sn)+1.5)
    R    = 8.31441 J/mol/K = 1.987191683e-3 kcal/mol/K
    qrot = 206545.0072556
    sn is the rotational symmetry number. We have assumed 3 here
       if it is different for your molecule then you should correct
       the printed rotational entropy by manually evaluating the equation
       as given above

For convenience we print out the resulting values for sn=1 - 12:
 sn= 1  qrot/sn=  206545.0073 T*S(rot)=     8.14 kcal/mol T*S(tot)=    24.22 kcal/mol
 sn= 2  qrot/sn=  103272.5036 T*S(rot)=     7.73 kcal/mol T*S(tot)=    23.80 kcal/mol
 sn= 3  qrot/sn=   68848.3358 T*S(rot)=     7.49 kcal/mol T*S(tot)=    23.56 kcal/mol
 sn= 4  qrot/sn=   51636.2518 T*S(rot)=     7.32 kcal/mol T*S(tot)=    23.39 kcal/mol
 sn= 5  qrot/sn=   41309.0015 T*S(rot)=     7.19 kcal/mol T*S(tot)=    23.26 kcal/mol
 sn= 6  qrot/sn=   34424.1679 T*S(rot)=     7.08 kcal/mol T*S(tot)=    23.15 kcal/mol
 sn= 7  qrot/sn=   29506.4296 T*S(rot)=     6.99 kcal/mol T*S(tot)=    23.06 kcal/mol
 sn= 8  qrot/sn=   25818.1259 T*S(rot)=     6.91 kcal/mol T*S(tot)=    22.98 kcal/mol
 sn= 9  qrot/sn=   22949.4453 T*S(rot)=     6.84 kcal/mol T*S(tot)=    22.91 kcal/mol
 sn=10  qrot/sn=   20654.5007 T*S(rot)=     6.78 kcal/mol T*S(tot)=    22.85 kcal/mol
 sn=11  qrot/sn=   18776.8188 T*S(rot)=     6.72 kcal/mol T*S(tot)=    22.79 kcal/mol
 sn=12  qrot/sn=   17212.0839 T*S(rot)=     6.67 kcal/mol T*S(tot)=    22.74 kcal/mol

-------------------
GIBBS FREE ENTHALPY
-------------------

The Gibbs free enthalpy is G = H - T*S

Total enthalpy                    ...   -341.92540695 Eh
Total entropy correction          ...     -0.03755285 Eh    -23.56 kcal/mol
-----------------------------------------------------------------------
Final Gibbs free enthalpy         ...   -341.96295979 Eh

For completeness - the Gibbs free enthalpy minus the electronic energy
G-E(el)                           ...      0.11328950 Eh     71.09 kcal/mol

                             ****ORCA TERMINATED NORMALLY****
TOTAL RUN TIME: 0 days 0 hours 30 minutes 54 seconds 704 msec
