                         Program Version 3.0.3 - RELEASE   -
|  1> ! NORI PBE0 def2-TZVP UseSym TightOPT Freq TightSCF Grid3 FinalGrid5 XYZFile
|  2> % pal
|  3>     nprocs 8
|  4> end
|  5> %method
|  6>     SymThresh 5.0e-2
|  7> end
|  8> % geom
|  9>     MaxIter 10
| 10> end
| 11> % maxcore 2000
| 12> % output
| 13>     printlevel mini
| 14>     print[ P_Basis ] 0
| 15>     print[ P_SCFInfo ] 1
| 16>     print[ P_SCFIterInfo ] 1
| 17>     print[ P_OrbEn ] 0
| 18>     print[ P_Cartesian ] 0
| 19> end
| 20> % elprop
| 21>     Dipole false
| 22> end
| 23> *xyz 1 1
| 24>  N        1.0717301898     0.4190979336     0.0942441911
| 25>  C        2.5463423620     0.1766925036    -0.0826860398
| 26>  C        3.2651205051     0.8277144788     1.1132045639
| 27>  O        3.0748335661    -0.3645730028     1.8836611234
| 28>  C        2.8930178324    -1.1156864253     0.6784963151
| 29>  C        2.9760867972     0.4059507141    -1.4799903160
| 30>  C        2.2137945474     0.7875947268    -2.4949879763
| 31>  H        0.5190454363    -0.2070389830    -0.4960187448
| 32>  H        0.8221656751     1.3819529153    -0.1436449578
| 33>  H        0.8261774643     0.2484721004     1.0745366989
| 34>  H        2.8212241014     1.7157490339     1.5712658959
| 35>  H        4.3203082243     1.0151120905     0.8932227133
| 36>  H        3.8282025478    -1.5540639626     0.3179222136
| 37>  H        2.1300331621    -1.8949490720     0.7635605439
| 38>  H        4.0358196202     0.2305380825    -1.6412146658
| 39>  H        1.1475307333     0.9842956536    -2.4229056522
| 40>  H        2.6382472352     0.9260912125    -3.4811759063
| 41> *
| 42>
| 43>                          ****END OF INPUT****
 Total Charge           Charge          ....    1
 Multiplicity           Mult            ....    1
 Number of Electrons    NEL             ....   54
FINAL SINGLE POINT ENERGY      -325.952798979522

CARTESIAN COORDINATES (ANGSTROEM)
---------------------------------
  N     -0.374296   -1.445987   -0.000000
  C     -0.085916    0.030901   -0.000000
  C      1.047230    0.276591    1.013021
  O      2.020774   -0.000304    0.000000
  C      1.047230    0.276591   -1.013021
  C     -1.329679    0.832695   -0.000000
  C     -2.573145    0.373591    0.000000
  H     -0.908518   -1.720183   -0.827964
  H     -0.908518   -1.720183    0.827964
  H      0.515825   -1.954230   -0.000000
  H      1.125551   -0.382856    1.881998
  H      1.073939    1.320535    1.339504
  H      1.073939    1.320535   -1.339504
  H      1.125551   -0.382856   -1.881998
  H     -1.153643    1.904404   -0.000000
  H     -2.839402   -0.679903    0.000000
  H     -3.412783    1.056967    0.000000

FINAL SINGLE POINT ENERGY      -325.952799215629
                    ***********************HURRAY********************
 Multiplicity           Mult            ....    1
 Number of Electrons    NEL             ....   54
 Basis Dimension        Dim             ....  277
FINAL SINGLE POINT ENERGY      -325.952799284096

VIBRATIONAL FREQUENCIES
-----------------------

   0:         0.00 cm**-1
   1:         0.00 cm**-1
   2:         0.00 cm**-1
   3:         0.00 cm**-1
   4:         0.00 cm**-1
   5:         0.00 cm**-1
   6:        95.01 cm**-1
   7:       154.88 cm**-1
   8:       261.49 cm**-1
   9:       273.92 cm**-1
  10:       315.84 cm**-1
  11:       384.10 cm**-1
  12:       407.43 cm**-1
  13:       454.87 cm**-1
  14:       650.85 cm**-1
  15:       665.48 cm**-1
  16:       813.76 cm**-1
  17:       910.14 cm**-1
  18:       929.19 cm**-1
  19:       953.81 cm**-1
  20:       961.94 cm**-1
  21:       985.69 cm**-1
  22:      1030.54 cm**-1
  23:      1032.19 cm**-1
  24:      1053.55 cm**-1
  25:      1059.20 cm**-1
  26:      1141.42 cm**-1
  27:      1181.75 cm**-1
  28:      1211.04 cm**-1
  29:      1230.95 cm**-1
  30:      1299.50 cm**-1
  31:      1306.66 cm**-1
  32:      1333.03 cm**-1
  33:      1374.75 cm**-1
  34:      1469.07 cm**-1
  35:      1486.28 cm**-1
  36:      1495.52 cm**-1
  37:      1521.66 cm**-1
  38:      1648.62 cm**-1
  39:      1655.21 cm**-1
  40:      1726.55 cm**-1
  41:      3056.47 cm**-1
  42:      3063.23 cm**-1
  43:      3118.98 cm**-1
  44:      3119.21 cm**-1
  45:      3155.14 cm**-1
  46:      3187.63 cm**-1
  47:      3250.95 cm**-1
  48:      3398.55 cm**-1
  49:      3480.63 cm**-1
  50:      3496.51 cm**-1

IR SPECTRUM
-----------

 Mode    freq (cm**-1)   T**2         TX         TY         TZ
-------------------------------------------------------------------
   6:        95.01    2.096922  ( -0.000050  -0.000014  -1.448075)
   7:       154.88   25.809077  ( -2.320685  -4.519236   0.000000)
   8:       261.49    2.180435  (  0.000010   0.000022  -1.476630)
   9:       273.92   12.919300  ( -3.109377   1.803074  -0.000005)
  10:       315.84    0.025164  (  0.000084  -0.000031   0.158631)
  11:       384.10    5.238592  ( -0.000009  -0.000004  -2.288797)
  12:       407.43    2.155092  ( -1.419917  -0.372729   0.000040)
  13:       454.87    0.309195  ( -0.424492   0.359168   0.000000)
  14:       650.85    1.664186  ( -0.083532   1.287326   0.000025)
  15:       665.48   15.882459  ( -0.000011  -0.000014   3.985280)
  16:       813.76    5.765703  ( -2.339741  -0.539737  -0.000001)
  17:       910.14   24.326350  ( -4.368901   2.288898   0.000007)
  18:       929.19    0.452799  (  0.000022   0.000007   0.672903)
  19:       953.81   22.015601  (  4.678872   0.351790  -0.000014)
  20:       961.94    0.050922  ( -0.000004  -0.000003  -0.225659)
  21:       985.69   47.380485  (  0.000037   0.000029  -6.883348)
  22:      1030.54    8.817927  ( -2.747244   1.127199   0.000405)
  23:      1032.19    9.046716  ( -0.000281   0.000172  -3.007776)
  24:      1053.55   85.022717  ( -0.000027   0.000006  -9.220776)
  25:      1059.20    6.072247  (  2.376733   0.650682  -0.000072)
  26:      1141.42    0.031001  ( -0.000001  -0.000000   0.176070)
  27:      1181.75    7.064097  (  2.639897  -0.308287   0.000004)
  28:      1211.04    4.504811  ( -0.000006   0.000000  -2.122454)
  29:      1230.95    4.508066  (  1.769265   1.173783   0.000001)
  30:      1299.50    0.198338  (  0.000006  -0.000002   0.445351)
  31:      1306.66   20.698666  (  3.578164  -2.809877   0.000001)
  32:      1333.03    1.282748  (  0.410295  -1.055654  -0.000007)
  33:      1374.75    0.781021  (  0.650640   0.598070  -0.000012)
  34:      1469.07   57.736820  (  3.556758  -6.714633   0.000001)
  35:      1486.28  150.107099  (  3.514500  11.736924  -0.000010)
  36:      1495.52    7.861893  (  0.000007   0.000023   2.803907)
  37:      1521.66    1.101553  (  0.836534  -0.633848   0.000002)
  38:      1648.62   39.288009  (  0.000264  -0.000152  -6.268015)
  39:      1655.21   29.956364  ( -4.896716   2.445105  -0.000348)
  40:      1726.55    1.097689  (  0.846980   0.616696  -0.000014)
  41:      3056.47   23.386861  (  0.000001   0.000000  -4.835996)
  42:      3063.23    2.474298  (  1.526907  -0.377961  -0.000000)
  43:      3118.98    8.468645  ( -0.491000   2.868373   0.000000)
  44:      3119.21    3.081838  ( -0.000000  -0.000000   1.755517)
  45:      3155.14    9.781618  ( -1.094687   2.929723   0.000003)
  46:      3187.63    1.378519  (  0.039996   1.173422   0.000003)
  47:      3250.95    1.775703  (  1.323897   0.151653   0.000000)
  48:      3398.55   39.916571  (  1.644935  -6.100062   0.000003)
  49:      3480.63   89.505683  (  9.420442  -0.872325  -0.000014)
  50:      3496.51   77.283429  ( -0.000007  -0.000000  -8.791099)

--------------------------
THERMOCHEMISTRY AT 298.15K
--------------------------

Temperature         ... 298.15 K
Pressure            ... 1.00 atm
Total Mass          ... 100.14 AMU

Throughout the following assumptions are being made:
  (1) The electronic state is orbitally nondegenerate
  (2) There are no thermally accessible electronically excited states
  (3) Hindered rotations indicated by low frequency modes) are not
      treated as such but are treated as vibrations and this may
      case some error
  (4) All equations used are the standard statistical mechanics
      equations for an ideal gas
  (5) All vibrations are strinctly harmonic

------------
INNER ENERGY
------------

The inner energy is: U= E(el) + E(ZPE) + E(vib) + E(rot) + E(trans)
    E(el)   - is the total energy from the electronic structure calculation
              = E(kin-el) + E(nuc-el) + E(el-el) + E(nuc-nuc)
    E(ZPE)  - the the zero temperature vibrational energy from the frequency calculation
    E(vib)  - the the finite temperature correction to E(ZPE) due to population
              of excietd vibrational states
    E(rot)  - is the rotational thermal energy
    E(trans)- is the translational thermal energy

Summary of contributions to the inner energy U:
Electronic energy                ...   -325.95279928 Eh
Zero point energy                ...      0.15218886 Eh      95.50 kcal/mol
Thermal vibrational correction   ...      0.00441527 Eh       2.77 kcal/mol
Thermal rotational correction    ...      0.00141627 Eh       0.89 kcal/mol
Thermal translational correction ...      0.00141627 Eh       0.89 kcal/mol
-----------------------------------------------------------------------
Total thermal energy                   -325.79336261 Eh

Summary of corrections to the electronic energy:
(perhaps to be used in another calculation)
Total thermal correction                  0.00724781 Eh       4.55 kcal/mol
Non-thermal (ZPE) correction              0.15218886 Eh      95.50 kcal/mol
-----------------------------------------------------------------------
Total correction                          0.15943667 Eh     100.05 kcal/mol

--------
ENTHALPY
--------

The enthalpy is H = U + kB*T
                kB is Boltzmann's constant
Total free energy                 ...   -325.79336261 Eh
Thermal Enthalpy correction       ...      0.00094421 Eh       0.59 kcal/mol
-----------------------------------------------------------------------
Total Enthalpy                    ...   -325.79241841 Eh

-------
ENTROPY
-------

The entropy contributions are T*S = T*(S(el)+S(vib)+S(rot)+S(trans)
     S(el)   - electronic entropy
     S(vib)  - vibrational entropy
     S(rot)  - rotational entropy
     S(trans)- translational entropy
The entropies will be listed as mutliplied by the temperature to get
units of energy

Electronic entropy                ...      0.00000000 Eh      0.00 kcal/mol
Vibrational entropy               ...      0.00741489 Eh      4.65 kcal/mol
Rotational entropy                ...      0.01191787 Eh      7.48 kcal/mol
Translational entropy             ...      0.01887324 Eh     11.84 kcal/mol
-----------------------------------------------------------------------
Final entropy term                ...      0.03820600 Eh     23.97 kcal/mol

CAUTION: The rotational entropy is not quite correctly treated here
         because it includes a symmetry number that is not yet correctly
         implemented in ORCA!
For a nonlinear molecule the correct rotational entropy is:
    S(rot) = R*(ln(qrot/sn)+1.5)
    R    = 8.31441 J/mol/K = 1.987191683e-3 kcal/mol/K
    qrot = 203019.1147500
    sn is the rotational symmetry number. We have assumed 3 here
       if it is different for your molecule then you should correct
       the printed rotational entropy by manually evaluating the equation
       as given above

For convenience we print out the resulting values for sn=1 - 12:
 sn= 1  qrot/sn=  203019.1148 T*S(rot)=     8.13 kcal/mol T*S(tot)=    24.63 kcal/mol
 sn= 2  qrot/sn=  101509.5574 T*S(rot)=     7.72 kcal/mol T*S(tot)=    24.21 kcal/mol
 sn= 3  qrot/sn=   67673.0383 T*S(rot)=     7.48 kcal/mol T*S(tot)=    23.97 kcal/mol
 sn= 4  qrot/sn=   50754.7787 T*S(rot)=     7.31 kcal/mol T*S(tot)=    23.80 kcal/mol
 sn= 5  qrot/sn=   40603.8230 T*S(rot)=     7.18 kcal/mol T*S(tot)=    23.67 kcal/mol
 sn= 6  qrot/sn=   33836.5191 T*S(rot)=     7.07 kcal/mol T*S(tot)=    23.56 kcal/mol
 sn= 7  qrot/sn=   29002.7307 T*S(rot)=     6.98 kcal/mol T*S(tot)=    23.47 kcal/mol
 sn= 8  qrot/sn=   25377.3893 T*S(rot)=     6.90 kcal/mol T*S(tot)=    23.39 kcal/mol
 sn= 9  qrot/sn=   22557.6794 T*S(rot)=     6.83 kcal/mol T*S(tot)=    23.32 kcal/mol
 sn=10  qrot/sn=   20301.9115 T*S(rot)=     6.77 kcal/mol T*S(tot)=    23.26 kcal/mol
 sn=11  qrot/sn=   18456.2832 T*S(rot)=     6.71 kcal/mol T*S(tot)=    23.20 kcal/mol
 sn=12  qrot/sn=   16918.2596 T*S(rot)=     6.66 kcal/mol T*S(tot)=    23.15 kcal/mol

-------------------
GIBBS FREE ENTHALPY
-------------------

The Gibbs free enthalpy is G = H - T*S

Total enthalpy                    ...   -325.79241841 Eh
Total entropy correction          ...     -0.03820600 Eh    -23.97 kcal/mol
-----------------------------------------------------------------------
Final Gibbs free enthalpy         ...   -325.83062441 Eh

For completeness - the Gibbs free enthalpy minus the electronic energy
G-E(el)                           ...      0.12217488 Eh     76.67 kcal/mol

                             ****ORCA TERMINATED NORMALLY****
TOTAL RUN TIME: 0 days 0 hours 37 minutes 11 seconds 494 msec
