                         Program Version 3.0.3 - RELEASE   -
|  1> ! NORI PBE0 def2-TZVP UseSym TightOPT Freq TightSCF Grid3 FinalGrid5 XYZFile
|  2> % pal
|  3>     nprocs 8
|  4> end
|  5> %method
|  6>     SymThresh 5.0e-2
|  7> end
|  8> % geom
|  9>     MaxIter 10
| 10> end
| 11> % maxcore 2000
| 12> % output
| 13>     printlevel mini
| 14>     print[ P_Basis ] 0
| 15>     print[ P_SCFInfo ] 1
| 16>     print[ P_SCFIterInfo ] 1
| 17>     print[ P_OrbEn ] 0
| 18>     print[ P_Cartesian ] 0
| 19> end
| 20> % elprop
| 21>     Dipole false
| 22> end
| 23> *xyz 1 1
| 24>  N        0.8925898238    -0.0973754646     0.2125961695
| 25>  C        2.3793524991    -0.0789415374    -0.0925818392
| 26>  C        3.0436385798     0.9271651834     0.8652209325
| 27>  O        3.1751819724    -0.1043132093     1.8487702167
| 28>  C        3.0622307102    -1.1044473169     0.8310412645
| 29>  C        2.5744914273    -0.0531771731    -1.5145300816
| 30>  C        2.7476604025    -0.0303405955    -2.7004375656
| 31>  H        0.4460311643    -0.9219151791    -0.1961168434
| 32>  H        0.4312117985     0.7313661004    -0.1704151317
| 33>  H        0.7585225419    -0.1145866667     1.2293141997
| 34>  H        2.4577132066     1.7835477336     1.2097504348
| 35>  H        4.0091466792     1.2632966289     0.4782708956
| 36>  H        4.0337365828    -1.4087927217     0.4329486637
| 37>  H        2.4927171288    -1.9827452465     1.1465601809
| 38>  H        2.9126854828    -0.0100605357    -3.7560114964
| 39> *
| 40>
| 41>                          ****END OF INPUT****
 Total Charge           Charge          ....    1
 Multiplicity           Mult            ....    1
 Number of Electrons    NEL             ....   52
FINAL SINGLE POINT ENERGY      -324.695328343729

CARTESIAN COORDINATES (ANGSTROEM)
---------------------------------
  N     -0.364419   -1.593679   -0.000000
  C     -0.148107   -0.091102   -0.000000
  C      0.965122    0.223873    1.016049
  O      1.948166   -0.000304    0.000000
  C      0.965122    0.223873   -1.016049
  C     -1.420201    0.574172    0.000000
  C     -2.477755    1.138705    0.000000
  H     -0.890681   -1.886692   -0.826740
  H     -0.890681   -1.886692    0.826740
  H      0.546947   -2.064286    0.000000
  H      1.079795   -0.431517    1.883486
  H      0.923814    1.268498    1.336452
  H      0.923814    1.268498   -1.336452
  H      1.079795   -0.431517   -1.883486
  H     -3.415302    1.651268    0.000000

FINAL SINGLE POINT ENERGY      -324.695328580805
                    ***********************HURRAY********************
 Multiplicity           Mult            ....    1
 Number of Electrons    NEL             ....   52
 Basis Dimension        Dim             ....  265
FINAL SINGLE POINT ENERGY      -324.695328614321

VIBRATIONAL FREQUENCIES
-----------------------

   0:         0.00 cm**-1
   1:         0.00 cm**-1
   2:         0.00 cm**-1
   3:         0.00 cm**-1
   4:         0.00 cm**-1
   5:         0.00 cm**-1
   6:       138.90 cm**-1
   7:       164.10 cm**-1
   8:       185.63 cm**-1
   9:       292.89 cm**-1
  10:       352.87 cm**-1
  11:       395.29 cm**-1
  12:       504.59 cm**-1
  13:       516.38 cm**-1
  14:       585.03 cm**-1
  15:       740.36 cm**-1
  16:       773.32 cm**-1
  17:       795.55 cm**-1
  18:       902.47 cm**-1
  19:       930.93 cm**-1
  20:       957.86 cm**-1
  21:       977.33 cm**-1
  22:      1032.85 cm**-1
  23:      1054.42 cm**-1
  24:      1139.39 cm**-1
  25:      1147.81 cm**-1
  26:      1206.32 cm**-1
  27:      1222.24 cm**-1
  28:      1297.53 cm**-1
  29:      1310.49 cm**-1
  30:      1379.90 cm**-1
  31:      1484.63 cm**-1
  32:      1494.75 cm**-1
  33:      1520.60 cm**-1
  34:      1647.29 cm**-1
  35:      1651.34 cm**-1
  36:      2252.81 cm**-1
  37:      3063.48 cm**-1
  38:      3069.58 cm**-1
  39:      3128.80 cm**-1
  40:      3129.13 cm**-1
  41:      3393.09 cm**-1
  42:      3448.51 cm**-1
  43:      3482.06 cm**-1
  44:      3499.34 cm**-1

IR SPECTRUM
-----------

 Mode    freq (cm**-1)   T**2         TX         TY         TZ
-------------------------------------------------------------------
   6:       138.90   10.615880  (  0.286158   3.245611   0.000005)
   7:       164.10    0.062051  ( -0.000126  -0.000141   0.249100)
   8:       185.63   25.559065  (  4.171955   2.855496  -0.000014)
   9:       292.89    0.263088  ( -0.000009  -0.000002  -0.512921)
  10:       352.87   15.294409  ( -0.000019  -0.000008  -3.910807)
  11:       395.29    2.187995  ( -1.334438   0.638177  -0.000005)
  12:       504.59   11.233991  ( -0.000070  -0.000012  -3.351715)
  13:       516.38   18.093012  ( -0.978811  -4.139437   0.000022)
  14:       585.03    7.730681  (  0.066533  -2.779614   0.000013)
  15:       740.36   36.207651  (  0.000007  -0.000001  -6.017279)
  16:       773.32   26.425353  ( -2.932299  -4.222200  -0.000001)
  17:       795.55    8.628189  ( -1.635570  -2.439897   0.000000)
  18:       902.47   38.613804  (  5.383681  -3.103189  -0.000004)
  19:       930.93    1.414495  ( -0.000005  -0.000011  -1.189326)
  20:       957.86    0.090585  ( -0.000033   0.000011  -0.300973)
  21:       977.33   19.630333  (  4.122225   1.624066  -0.000003)
  22:      1032.85    3.603112  (  1.278577  -1.402980  -0.000030)
  23:      1054.42   84.153845  ( -0.000001   0.000003  -9.173540)
  24:      1139.39    0.182471  ( -0.000002  -0.000006   0.427166)
  25:      1147.81    6.417656  (  0.509484   2.481548   0.000005)
  26:      1206.32    5.668276  (  0.000038  -0.000020   2.380814)
  27:      1222.24   12.410788  (  1.018610  -3.372421   0.000001)
  28:      1297.53    0.115541  (  0.000054  -0.000021  -0.339913)
  29:      1310.49   57.968825  (  6.999552  -2.995846   0.000005)
  30:      1379.90   11.835856  ( -3.418099  -0.390457   0.000003)
  31:      1484.63  176.854137  (  0.464178  13.290548  -0.000001)
  32:      1494.75    8.667973  ( -0.000003   0.000001   2.944142)
  33:      1520.60    1.377724  ( -1.075790   0.469469  -0.000000)
  34:      1647.29   35.189006  ( -0.000002   0.000002   5.932032)
  35:      1651.34   33.667872  (  5.781005  -0.497850  -0.000001)
  36:      2252.81   37.595059  ( -4.799355   3.815921   0.000000)
  37:      3063.48   18.747405  (  0.000000  -0.000000   4.329827)
  38:      3069.58    3.060645  (  1.685440   0.468972  -0.000000)
  39:      3128.80    4.916837  ( -0.589247   2.137668  -0.000000)
  40:      3129.13    2.529084  ( -0.000000  -0.000000  -1.590309)
  41:      3393.09   49.422982  ( -1.836009   6.786166   0.000001)
  42:      3448.51  102.919503  ( -9.070336   4.544062   0.000000)
  43:      3482.06   97.733310  (  9.834703   1.005944   0.000001)
  44:      3499.34   92.897267  (  0.000000  -0.000000  -9.638323)

--------------------------
THERMOCHEMISTRY AT 298.15K
--------------------------

Temperature         ... 298.15 K
Pressure            ... 1.00 atm
Total Mass          ... 98.12 AMU

Throughout the following assumptions are being made:
  (1) The electronic state is orbitally nondegenerate
  (2) There are no thermally accessible electronically excited states
  (3) Hindered rotations indicated by low frequency modes) are not
      treated as such but are treated as vibrations and this may
      case some error
  (4) All equations used are the standard statistical mechanics
      equations for an ideal gas
  (5) All vibrations are strinctly harmonic

------------
INNER ENERGY
------------

The inner energy is: U= E(el) + E(ZPE) + E(vib) + E(rot) + E(trans)
    E(el)   - is the total energy from the electronic structure calculation
              = E(kin-el) + E(nuc-el) + E(el-el) + E(nuc-nuc)
    E(ZPE)  - the the zero temperature vibrational energy from the frequency calculation
    E(vib)  - the the finite temperature correction to E(ZPE) due to population
              of excietd vibrational states
    E(rot)  - is the rotational thermal energy
    E(trans)- is the translational thermal energy

Summary of contributions to the inner energy U:
Electronic energy                ...   -324.69532861 Eh
Zero point energy                ...      0.12819214 Eh      80.44 kcal/mol
Thermal vibrational correction   ...      0.00420336 Eh       2.64 kcal/mol
Thermal rotational correction    ...      0.00141627 Eh       0.89 kcal/mol
Thermal translational correction ...      0.00141627 Eh       0.89 kcal/mol
-----------------------------------------------------------------------
Total thermal energy                   -324.56010057 Eh

Summary of corrections to the electronic energy:
(perhaps to be used in another calculation)
Total thermal correction                  0.00703590 Eh       4.42 kcal/mol
Non-thermal (ZPE) correction              0.12819214 Eh      80.44 kcal/mol
-----------------------------------------------------------------------
Total correction                          0.13522804 Eh      84.86 kcal/mol

--------
ENTHALPY
--------

The enthalpy is H = U + kB*T
                kB is Boltzmann's constant
Total free energy                 ...   -324.56010057 Eh
Thermal Enthalpy correction       ...      0.00094421 Eh       0.59 kcal/mol
-----------------------------------------------------------------------
Total Enthalpy                    ...   -324.55915637 Eh

-------
ENTROPY
-------

The entropy contributions are T*S = T*(S(el)+S(vib)+S(rot)+S(trans)
     S(el)   - electronic entropy
     S(vib)  - vibrational entropy
     S(rot)  - rotational entropy
     S(trans)- translational entropy
The entropies will be listed as mutliplied by the temperature to get
units of energy

Electronic entropy                ...      0.00000000 Eh      0.00 kcal/mol
Vibrational entropy               ...      0.00691947 Eh      4.34 kcal/mol
Rotational entropy                ...      0.01191304 Eh      7.48 kcal/mol
Translational entropy             ...      0.01884443 Eh     11.83 kcal/mol
-----------------------------------------------------------------------
Final entropy term                ...      0.03767695 Eh     23.64 kcal/mol

CAUTION: The rotational entropy is not quite correctly treated here
         because it includes a symmetry number that is not yet correctly
         implemented in ORCA!
For a nonlinear molecule the correct rotational entropy is:
    S(rot) = R*(ln(qrot/sn)+1.5)
    R    = 8.31441 J/mol/K = 1.987191683e-3 kcal/mol/K
    qrot = 201983.2010174
    sn is the rotational symmetry number. We have assumed 3 here
       if it is different for your molecule then you should correct
       the printed rotational entropy by manually evaluating the equation
       as given above

For convenience we print out the resulting values for sn=1 - 12:
 sn= 1  qrot/sn=  201983.2010 T*S(rot)=     8.13 kcal/mol T*S(tot)=    24.29 kcal/mol
 sn= 2  qrot/sn=  100991.6005 T*S(rot)=     7.72 kcal/mol T*S(tot)=    23.88 kcal/mol
 sn= 3  qrot/sn=   67327.7337 T*S(rot)=     7.48 kcal/mol T*S(tot)=    23.64 kcal/mol
 sn= 4  qrot/sn=   50495.8003 T*S(rot)=     7.31 kcal/mol T*S(tot)=    23.47 kcal/mol
 sn= 5  qrot/sn=   40396.6402 T*S(rot)=     7.17 kcal/mol T*S(tot)=    23.34 kcal/mol
 sn= 6  qrot/sn=   33663.8668 T*S(rot)=     7.06 kcal/mol T*S(tot)=    23.23 kcal/mol
 sn= 7  qrot/sn=   28854.7430 T*S(rot)=     6.97 kcal/mol T*S(tot)=    23.14 kcal/mol
 sn= 8  qrot/sn=   25247.9001 T*S(rot)=     6.89 kcal/mol T*S(tot)=    23.06 kcal/mol
 sn= 9  qrot/sn=   22442.5779 T*S(rot)=     6.82 kcal/mol T*S(tot)=    22.99 kcal/mol
 sn=10  qrot/sn=   20198.3201 T*S(rot)=     6.76 kcal/mol T*S(tot)=    22.93 kcal/mol
 sn=11  qrot/sn=   18362.1092 T*S(rot)=     6.71 kcal/mol T*S(tot)=    22.87 kcal/mol
 sn=12  qrot/sn=   16831.9334 T*S(rot)=     6.65 kcal/mol T*S(tot)=    22.82 kcal/mol

-------------------
GIBBS FREE ENTHALPY
-------------------

The Gibbs free enthalpy is G = H - T*S

Total enthalpy                    ...   -324.55915637 Eh
Total entropy correction          ...     -0.03767695 Eh    -23.64 kcal/mol
-----------------------------------------------------------------------
Final Gibbs free enthalpy         ...   -324.59683331 Eh

For completeness - the Gibbs free enthalpy minus the electronic energy
G-E(el)                           ...      0.09849530 Eh     61.81 kcal/mol

                             ****ORCA TERMINATED NORMALLY****
TOTAL RUN TIME: 0 days 0 hours 30 minutes 16 seconds 509 msec
