                         Program Version 3.0.3 - RELEASE   -
|  1> ! NORI PBE0 def2-TZVP UseSym TightOPT Freq TightSCF Grid3 FinalGrid5 XYZFile
|  2> % pal
|  3>     nprocs 8
|  4> end
|  5> %method
|  6>     SymThresh 5.0e-2
|  7> end
|  8> % geom
|  9>     MaxIter 10
| 10> end
| 11> % maxcore 2000
| 12> % output
| 13>     printlevel mini
| 14>     print[ P_Basis ] 0
| 15>     print[ P_SCFInfo ] 1
| 16>     print[ P_SCFIterInfo ] 1
| 17>     print[ P_OrbEn ] 0
| 18>     print[ P_Cartesian ] 0
| 19> end
| 20> % elprop
| 21>     Dipole false
| 22> end
| 23> *xyz 1 1
| 24>  N        1.0493244579    -0.1708804650     0.4343346964
| 25>  C        2.4963425107    -0.0587028311     0.1655390176
| 26>  C        2.8787367933    -0.5860011135    -1.1831738574
| 27>  O        1.7679872737    -1.0657909345    -1.8708694301
| 28>  C        2.9459750002     0.8853890756    -0.9188561509
| 29>  C        4.2260603072     1.6140188277    -0.7434421619
| 30>  C        5.3874582883     1.2293114151    -1.2497244059
| 31>  H        0.8532243926    -0.8934325317     1.1298785283
| 32>  H        0.6128709061    -0.4649710656    -0.4576943419
| 33>  H        0.6307217228     0.7042682059     0.7531554492
| 34>  H        3.1149823657    -0.2252079203     1.0364163909
| 35>  H        3.7828603696    -1.1790421306    -1.2615751461
| 36>  H        1.8699530930    -0.9304369020    -2.8190138705
| 37>  H        2.1418243420     1.4527940226    -1.3865734247
| 38>  H        4.1646143877     2.5300494254    -0.1619515585
| 39>  H        5.4934461354     0.3320159069    -1.8499364568
| 40>  H        6.2846776540     1.8136690150    -1.0883632778
| 41> *
| 42>
| 43>                          ****END OF INPUT****
 Total Charge           Charge          ....    1
 Multiplicity           Mult            ....    1
 Number of Electrons    NEL             ....   54
FINAL SINGLE POINT ENERGY      -325.968463992869
FINAL SINGLE POINT ENERGY      -325.968465087820
FINAL SINGLE POINT ENERGY      -325.968466114237
FINAL SINGLE POINT ENERGY      -325.968466524952

CARTESIAN COORDINATES (ANGSTROEM)
---------------------------------
  N      2.140628    0.004448    0.581204
  C      0.934635   -0.450178   -0.138733
  C     -0.291459   -0.438666    0.721585
  O      0.000331   -0.003825    2.010378
  C     -0.159771    0.553817   -0.390715
  C     -0.937612    0.458017   -1.650064
  C     -2.119053   -0.129139   -1.762115
  H      2.777469   -0.771627    0.771453
  H      1.809407    0.371310    1.491377
  H      2.657064    0.729928    0.081643
  H      1.124023   -1.243984   -0.847955
  H     -0.977835   -1.274346    0.641800
  H     -0.750363    0.464217    2.390932
  H      0.066865    1.565017   -0.053258
  H     -0.479333    0.925410   -2.517687
  H     -2.622005   -0.592500   -0.919986
  H     -2.638128   -0.156696   -2.712100

FINAL SINGLE POINT ENERGY      -325.968466849490
                    ***********************HURRAY********************
 Multiplicity           Mult            ....    1
 Number of Electrons    NEL             ....   54
 Basis Dimension        Dim             ....  277
FINAL SINGLE POINT ENERGY      -325.968466925346

VIBRATIONAL FREQUENCIES
-----------------------

   0:         0.00 cm**-1
   1:         0.00 cm**-1
   2:         0.00 cm**-1
   3:         0.00 cm**-1
   4:         0.00 cm**-1
   5:         0.00 cm**-1
   6:        74.51 cm**-1
   7:       179.14 cm**-1
   8:       225.03 cm**-1
   9:       248.08 cm**-1
  10:       282.94 cm**-1
  11:       326.30 cm**-1
  12:       340.72 cm**-1
  13:       401.39 cm**-1
  14:       543.18 cm**-1
  15:       622.61 cm**-1
  16:       649.36 cm**-1
  17:       844.41 cm**-1
  18:       885.70 cm**-1
  19:       900.77 cm**-1
  20:       993.35 cm**-1
  21:      1000.13 cm**-1
  22:      1015.34 cm**-1
  23:      1026.08 cm**-1
  24:      1048.48 cm**-1
  25:      1095.59 cm**-1
  26:      1120.71 cm**-1
  27:      1141.93 cm**-1
  28:      1175.64 cm**-1
  29:      1186.14 cm**-1
  30:      1224.24 cm**-1
  31:      1268.43 cm**-1
  32:      1319.72 cm**-1
  33:      1331.58 cm**-1
  34:      1361.33 cm**-1
  35:      1450.93 cm**-1
  36:      1481.34 cm**-1
  37:      1497.73 cm**-1
  38:      1643.97 cm**-1
  39:      1661.83 cm**-1
  40:      1724.48 cm**-1
  41:      3125.55 cm**-1
  42:      3164.82 cm**-1
  43:      3173.04 cm**-1
  44:      3189.58 cm**-1
  45:      3228.03 cm**-1
  46:      3257.69 cm**-1
  47:      3265.22 cm**-1
  48:      3459.89 cm**-1
  49:      3510.32 cm**-1
  50:      3841.38 cm**-1

IR SPECTRUM
-----------

 Mode    freq (cm**-1)   T**2         TX         TY         TZ
-------------------------------------------------------------------
   6:        74.51    1.794676  ( -0.407962   1.178728   0.488715)
   7:       179.14    0.334775  (  0.060032  -0.065866  -0.571693)
   8:       225.03    3.532493  (  1.301356   0.593965  -1.219086)
   9:       248.08    8.089928  (  0.625745  -2.716109   0.566678)
  10:       282.94   34.351157  ( -3.312501  -2.060594   4.374065)
  11:       326.30   19.706287  ( -3.807848   0.874266   2.107662)
  12:       340.72  104.199150  ( -1.739789  -8.572764   5.261179)
  13:       401.39   13.073179  ( -2.761091  -2.138441   0.936283)
  14:       543.18    4.475504  ( -1.353063  -1.545582   0.505868)
  15:       622.61   14.585554  ( -1.881078  -2.758998  -1.853383)
  16:       649.36   18.080446  ( -1.704546   3.855626   0.555986)
  17:       844.41   14.555387  (  2.958097  -2.310060  -0.684596)
  18:       885.70   21.507194  ( -1.968302   1.491919  -3.925196)
  19:       900.77    8.870199  (  2.201852  -2.004792  -0.053442)
  20:       993.35   15.485306  (  2.909168   1.538139  -2.157818)
  21:      1000.13   48.768556  (  3.754952  -5.528457  -2.026092)
  22:      1015.34   11.271728  ( -0.440978  -0.672797   3.259541)
  23:      1026.08   19.941558  (  1.930584  -3.478621  -2.028201)
  24:      1048.48   32.259798  (  1.381946   0.932083  -5.429663)
  25:      1095.59    8.851668  (  2.282566   1.348485   1.350240)
  26:      1120.71    6.167480  ( -1.061152  -0.311353   2.223622)
  27:      1141.93   31.845068  (  1.184276  -1.600742  -5.280169)
  28:      1175.64    0.521679  ( -0.612748  -0.371952  -0.088718)
  29:      1186.14   24.331808  ( -0.964782  -2.764127  -3.969963)
  30:      1224.24   25.767439  ( -1.564095   0.774277  -4.766712)
  31:      1268.43   64.239396  ( -3.048737  -1.381487  -7.282588)
  32:      1319.72    2.303335  ( -0.052635   0.160363   1.508260)
  33:      1331.58    3.523364  (  1.561910  -0.152845  -1.029777)
  34:      1361.33   11.011785  (  1.584109  -1.774995  -2.313390)
  35:      1450.93   10.425066  ( -2.759224  -1.528120   0.690363)
  36:      1481.34  109.527306  (  8.505851   2.477927   5.571148)
  37:      1497.73   69.776483  (  7.288540   3.630633   1.863375)
  38:      1643.97   26.399801  (  3.775799  -2.728376  -2.167742)
  39:      1661.83   34.181036  (  0.938234   3.908498  -4.245515)
  40:      1724.48    3.154639  ( -1.510288  -0.287836  -0.889281)
  41:      3125.55    5.724700  (  1.676917   0.020533   1.706525)
  42:      3164.82    4.147282  (  0.153000   0.706894  -1.903726)
  43:      3173.04    0.386844  ( -0.002977   0.384014  -0.489253)
  44:      3189.58    0.972318  (  0.372399   0.323375   0.853853)
  45:      3228.03    1.176434  (  0.552341   0.568217  -0.740596)
  46:      3257.69    0.585620  (  0.340387   0.493014  -0.476124)
  47:      3265.22  134.850816  (  5.204847  -3.015516  -9.933129)
  48:      3459.89  103.297587  (  9.488943  -1.734607  -3.201357)
  49:      3510.32   97.339064  ( -0.685028   8.844327  -4.318295)
  50:      3841.38  127.774037  (  6.929253  -4.721477  -7.580709)

--------------------------
THERMOCHEMISTRY AT 298.15K
--------------------------

Temperature         ... 298.15 K
Pressure            ... 1.00 atm
Total Mass          ... 100.14 AMU

Throughout the following assumptions are being made:
  (1) The electronic state is orbitally nondegenerate
  (2) There are no thermally accessible electronically excited states
  (3) Hindered rotations indicated by low frequency modes) are not
      treated as such but are treated as vibrations and this may
      case some error
  (4) All equations used are the standard statistical mechanics
      equations for an ideal gas
  (5) All vibrations are strinctly harmonic

------------
INNER ENERGY
------------

The inner energy is: U= E(el) + E(ZPE) + E(vib) + E(rot) + E(trans)
    E(el)   - is the total energy from the electronic structure calculation
              = E(kin-el) + E(nuc-el) + E(el-el) + E(nuc-nuc)
    E(ZPE)  - the the zero temperature vibrational energy from the frequency calculation
    E(vib)  - the the finite temperature correction to E(ZPE) due to population
              of excietd vibrational states
    E(rot)  - is the rotational thermal energy
    E(trans)- is the translational thermal energy

Summary of contributions to the inner energy U:
Electronic energy                ...   -325.96846693 Eh
Zero point energy                ...      0.15151780 Eh      95.08 kcal/mol
Thermal vibrational correction   ...      0.00491374 Eh       3.08 kcal/mol
Thermal rotational correction    ...      0.00141627 Eh       0.89 kcal/mol
Thermal translational correction ...      0.00141627 Eh       0.89 kcal/mol
-----------------------------------------------------------------------
Total thermal energy                   -325.80920284 Eh

Summary of corrections to the electronic energy:
(perhaps to be used in another calculation)
Total thermal correction                  0.00774628 Eh       4.86 kcal/mol
Non-thermal (ZPE) correction              0.15151780 Eh      95.08 kcal/mol
-----------------------------------------------------------------------
Total correction                          0.15926409 Eh      99.94 kcal/mol

--------
ENTHALPY
--------

The enthalpy is H = U + kB*T
                kB is Boltzmann's constant
Total free energy                 ...   -325.80920284 Eh
Thermal Enthalpy correction       ...      0.00094421 Eh       0.59 kcal/mol
-----------------------------------------------------------------------
Total Enthalpy                    ...   -325.80825863 Eh

-------
ENTROPY
-------

The entropy contributions are T*S = T*(S(el)+S(vib)+S(rot)+S(trans)
     S(el)   - electronic entropy
     S(vib)  - vibrational entropy
     S(rot)  - rotational entropy
     S(trans)- translational entropy
The entropies will be listed as mutliplied by the temperature to get
units of energy

Electronic entropy                ...      0.00000000 Eh      0.00 kcal/mol
Vibrational entropy               ...      0.00840571 Eh      5.27 kcal/mol
Rotational entropy                ...      0.01208902 Eh      7.59 kcal/mol
Translational entropy             ...      0.01887324 Eh     11.84 kcal/mol
-----------------------------------------------------------------------
Final entropy term                ...      0.03936797 Eh     24.70 kcal/mol

CAUTION: The rotational entropy is not quite correctly treated here
         because it includes a symmetry number that is not yet correctly
         implemented in ORCA!
For a nonlinear molecule the correct rotational entropy is:
    S(rot) = R*(ln(qrot/sn)+1.5)
    R    = 8.31441 J/mol/K = 1.987191683e-3 kcal/mol/K
    qrot = 243367.6558945
    sn is the rotational symmetry number. We have assumed 3 here
       if it is different for your molecule then you should correct
       the printed rotational entropy by manually evaluating the equation
       as given above

For convenience we print out the resulting values for sn=1 - 12:
 sn= 1  qrot/sn=  243367.6559 T*S(rot)=     8.24 kcal/mol T*S(tot)=    25.35 kcal/mol
 sn= 2  qrot/sn=  121683.8279 T*S(rot)=     7.83 kcal/mol T*S(tot)=    24.94 kcal/mol
 sn= 3  qrot/sn=   81122.5520 T*S(rot)=     7.59 kcal/mol T*S(tot)=    24.70 kcal/mol
 sn= 4  qrot/sn=   60841.9140 T*S(rot)=     7.42 kcal/mol T*S(tot)=    24.53 kcal/mol
 sn= 5  qrot/sn=   48673.5312 T*S(rot)=     7.28 kcal/mol T*S(tot)=    24.40 kcal/mol
 sn= 6  qrot/sn=   40561.2760 T*S(rot)=     7.18 kcal/mol T*S(tot)=    24.29 kcal/mol
 sn= 7  qrot/sn=   34766.8080 T*S(rot)=     7.08 kcal/mol T*S(tot)=    24.20 kcal/mol
 sn= 8  qrot/sn=   30420.9570 T*S(rot)=     7.00 kcal/mol T*S(tot)=    24.12 kcal/mol
 sn= 9  qrot/sn=   27040.8507 T*S(rot)=     6.94 kcal/mol T*S(tot)=    24.05 kcal/mol
 sn=10  qrot/sn=   24336.7656 T*S(rot)=     6.87 kcal/mol T*S(tot)=    23.99 kcal/mol
 sn=11  qrot/sn=   22124.3324 T*S(rot)=     6.82 kcal/mol T*S(tot)=    23.93 kcal/mol
 sn=12  qrot/sn=   20280.6380 T*S(rot)=     6.76 kcal/mol T*S(tot)=    23.88 kcal/mol

-------------------
GIBBS FREE ENTHALPY
-------------------

The Gibbs free enthalpy is G = H - T*S

Total enthalpy                    ...   -325.80825863 Eh
Total entropy correction          ...     -0.03936797 Eh    -24.70 kcal/mol
-----------------------------------------------------------------------
Final Gibbs free enthalpy         ...   -325.84762660 Eh

For completeness - the Gibbs free enthalpy minus the electronic energy
G-E(el)                           ...      0.12084032 Eh     75.83 kcal/mol

                             ****ORCA TERMINATED NORMALLY****
TOTAL RUN TIME: 0 days 0 hours 37 minutes 37 seconds 948 msec
