                         Program Version 3.0.3 - RELEASE   -
|  1> ! NORI PBE0 def2-TZVP UseSym TightOPT Freq TightSCF Grid3 FinalGrid5 XYZFile
|  2> % pal
|  3>     nprocs 8
|  4> end
|  5> %method
|  6>     SymThresh 5.0e-2
|  7> end
|  8> % geom
|  9>     MaxIter 10
| 10> end
| 11> % maxcore 2000
| 12> % output
| 13>     printlevel mini
| 14>     print[ P_Basis ] 0
| 15>     print[ P_SCFInfo ] 1
| 16>     print[ P_SCFIterInfo ] 1
| 17>     print[ P_OrbEn ] 0
| 18>     print[ P_Cartesian ] 0
| 19> end
| 20> % elprop
| 21>     Dipole false
| 22> end
| 23> *xyz 1 1
| 24>  N        0.9550680511     0.1878365740     0.2333409139
| 25>  C        2.4249136625     0.1398410544     0.1279754302
| 26>  C        2.9068978135    -0.5252286004    -1.1168149848
| 27>  O        1.8505178722    -0.9590621149    -1.9008212418
| 28>  C        3.0708440206     0.9705441820    -0.9545761890
| 29>  C        4.3529488027     1.5434589279    -0.6898410268
| 30>  C        5.4360874438     2.0070646809    -0.4682033943
| 31>  H        0.6123681479    -0.4678043873     0.9389783324
| 32>  H        0.5803058302    -0.1146738249    -0.6816841994
| 33>  H        0.6028213583     1.1191719282     0.4624884834
| 34>  H        2.9273158809     0.0116119384     1.0763457338
| 35>  H        3.7808095775    -1.1651777940    -1.0576904444
| 36>  H        2.1038139281    -0.9966857693    -2.8297245874
| 37>  H        2.3946838880     1.5577998777    -1.5736165712
| 38>  H        6.3988937228     2.4258033273    -0.2797462544
| 39> *
| 40>
| 41>                          ****END OF INPUT****
 Total Charge           Charge          ....    1
 Multiplicity           Mult            ....    1
 Number of Electrons    NEL             ....   52
FINAL SINGLE POINT ENERGY      -324.713143628633

CARTESIAN COORDINATES (ANGSTROEM)
---------------------------------
  N      2.067133   -0.000025    0.531168
  C      0.827424   -0.498107   -0.092691
  C     -0.345754   -0.480933    0.828088
  O      0.000055   -0.000081    2.080066
  C     -0.282681    0.498739   -0.323649
  C     -1.110344    0.330483   -1.476352
  C     -1.812007    0.174050   -2.435621
  H      2.720653   -0.763719    0.718377
  H      1.798729    0.411053    1.441256
  H      2.545895    0.700005   -0.038724
  H      0.985869   -1.297459   -0.802682
  H     -1.049494   -1.305517    0.786631
  H     -0.760553    0.396907    2.518441
  H     -0.075751    1.523274   -0.019816
  H     -2.440452    0.044726   -3.287886

FINAL SINGLE POINT ENERGY      -324.713144039427
                    ***********************HURRAY********************
 Multiplicity           Mult            ....    1
 Number of Electrons    NEL             ....   52
 Basis Dimension        Dim             ....  265
FINAL SINGLE POINT ENERGY      -324.713144272100

VIBRATIONAL FREQUENCIES
-----------------------

   0:         0.00 cm**-1
   1:         0.00 cm**-1
   2:         0.00 cm**-1
   3:         0.00 cm**-1
   4:         0.00 cm**-1
   5:         0.00 cm**-1
   6:       141.15 cm**-1
   7:       150.46 cm**-1
   8:       231.84 cm**-1
   9:       278.71 cm**-1
  10:       318.87 cm**-1
  11:       337.48 cm**-1
  12:       397.08 cm**-1
  13:       459.85 cm**-1
  14:       486.60 cm**-1
  15:       622.57 cm**-1
  16:       716.31 cm**-1
  17:       747.94 cm**-1
  18:       843.63 cm**-1
  19:       888.21 cm**-1
  20:       903.00 cm**-1
  21:       999.75 cm**-1
  22:      1029.61 cm**-1
  23:      1079.33 cm**-1
  24:      1091.63 cm**-1
  25:      1145.28 cm**-1
  26:      1171.01 cm**-1
  27:      1183.73 cm**-1
  28:      1219.12 cm**-1
  29:      1264.91 cm**-1
  30:      1317.82 cm**-1
  31:      1368.76 cm**-1
  32:      1483.78 cm**-1
  33:      1502.11 cm**-1
  34:      1643.19 cm**-1
  35:      1661.11 cm**-1
  36:      2256.38 cm**-1
  37:      3141.54 cm**-1
  38:      3188.08 cm**-1
  39:      3235.03 cm**-1
  40:      3291.69 cm**-1
  41:      3455.01 cm**-1
  42:      3462.80 cm**-1
  43:      3503.10 cm**-1
  44:      3836.62 cm**-1

IR SPECTRUM
-----------

 Mode    freq (cm**-1)   T**2         TX         TY         TZ
-------------------------------------------------------------------
   6:       141.15    3.497292  ( -0.432127  -0.093713   1.817079)
   7:       150.46    3.449700  (  0.108675  -1.830325   0.296311)
   8:       231.84    6.074961  ( -1.775305   1.435858   0.928205)
   9:       278.71   28.146071  ( -2.806283  -1.582422   4.215067)
  10:       318.87   19.028207  (  3.053702  -3.085916  -0.424534)
  11:       337.48  111.997943  (  1.464001   8.392674  -6.278349)
  12:       397.08   46.007266  ( -2.937151  -5.437113   2.796107)
  13:       459.85    5.977239  ( -1.825071   1.315035   0.957620)
  14:       486.60   10.569488  ( -2.269564   2.312331   0.267749)
  15:       622.57   14.398769  ( -2.317061  -2.552248  -1.586199)
  16:       716.31   40.406596  ( -4.888817  -0.731262   3.996414)
  17:       747.94   36.714544  ( -0.919156   5.988991  -0.041019)
  18:       843.63   23.103131  (  4.241676  -2.247948   0.240935)
  19:       888.21    6.705998  ( -2.075590   1.324329  -0.802543)
  20:       903.00    9.763158  (  0.194324   1.286903  -2.840647)
  21:       999.75   22.603249  (  3.283758  -1.287498  -3.187872)
  22:      1029.61   14.246183  (  1.036358   1.090365  -3.461683)
  23:      1079.33   31.011817  ( -0.414109  -0.288983  -5.545883)
  24:      1091.63   13.200495  ( -1.637035  -1.936263   2.602210)
  25:      1145.28   46.739440  (  0.819037  -2.068271  -6.464586)
  26:      1171.01    2.446263  (  0.721672  -0.160319  -1.378314)
  27:      1183.73   10.694176  ( -0.859827  -2.826258  -1.402548)
  28:      1219.12   50.929724  (  2.139639   0.381344   6.797518)
  29:      1264.91   78.249860  ( -3.679491  -1.662771  -7.870604)
  30:      1317.82    2.093976  (  1.119086  -0.764163  -0.507618)
  31:      1368.76   10.872184  (  1.673118  -1.538214  -2.388882)
  32:      1483.78   73.035252  (  7.288345   2.314527   3.815526)
  33:      1502.11  102.206000  (  8.694830   4.288766   2.865732)
  34:      1643.19   27.571903  ( -3.571978   3.344991   1.903658)
  35:      1661.11   35.272659  ( -1.021223  -3.369846   4.782667)
  36:      2256.38    2.384845  (  0.996942   0.580245   1.026775)
  37:      3141.54    9.368155  ( -1.758082   1.153996  -2.223870)
  38:      3188.08    1.019300  (  0.135941   0.075847  -0.997531)
  39:      3235.03    1.764113  ( -0.006359  -1.318614  -0.159152)
  40:      3291.69  123.012223  ( -3.730479   3.360482   9.889535)
  41:      3455.01  116.990058  (-10.136937   2.009225   3.193051)
  42:      3462.80  101.951377  ( -5.340511  -0.829478  -8.528909)
  43:      3503.10  104.112039  (  0.709225  -8.919287   4.904627)
  44:      3836.62  148.140363  ( -7.120490   4.258542   8.905269)

--------------------------
THERMOCHEMISTRY AT 298.15K
--------------------------

Temperature         ... 298.15 K
Pressure            ... 1.00 atm
Total Mass          ... 98.12 AMU

Throughout the following assumptions are being made:
  (1) The electronic state is orbitally nondegenerate
  (2) There are no thermally accessible electronically excited states
  (3) Hindered rotations indicated by low frequency modes) are not
      treated as such but are treated as vibrations and this may
      case some error
  (4) All equations used are the standard statistical mechanics
      equations for an ideal gas
  (5) All vibrations are strinctly harmonic

------------
INNER ENERGY
------------

The inner energy is: U= E(el) + E(ZPE) + E(vib) + E(rot) + E(trans)
    E(el)   - is the total energy from the electronic structure calculation
              = E(kin-el) + E(nuc-el) + E(el-el) + E(nuc-nuc)
    E(ZPE)  - the the zero temperature vibrational energy from the frequency calculation
    E(vib)  - the the finite temperature correction to E(ZPE) due to population
              of excietd vibrational states
    E(rot)  - is the rotational thermal energy
    E(trans)- is the translational thermal energy

Summary of contributions to the inner energy U:
Electronic energy                ...   -324.71314427 Eh
Zero point energy                ...      0.12770288 Eh      80.13 kcal/mol
Thermal vibrational correction   ...      0.00460450 Eh       2.89 kcal/mol
Thermal rotational correction    ...      0.00141627 Eh       0.89 kcal/mol
Thermal translational correction ...      0.00141627 Eh       0.89 kcal/mol
-----------------------------------------------------------------------
Total thermal energy                   -324.57800435 Eh

Summary of corrections to the electronic energy:
(perhaps to be used in another calculation)
Total thermal correction                  0.00743704 Eh       4.67 kcal/mol
Non-thermal (ZPE) correction              0.12770288 Eh      80.13 kcal/mol
-----------------------------------------------------------------------
Total correction                          0.13513992 Eh      84.80 kcal/mol

--------
ENTHALPY
--------

The enthalpy is H = U + kB*T
                kB is Boltzmann's constant
Total free energy                 ...   -324.57800435 Eh
Thermal Enthalpy correction       ...      0.00094421 Eh       0.59 kcal/mol
-----------------------------------------------------------------------
Total Enthalpy                    ...   -324.57706014 Eh

-------
ENTROPY
-------

The entropy contributions are T*S = T*(S(el)+S(vib)+S(rot)+S(trans)
     S(el)   - electronic entropy
     S(vib)  - vibrational entropy
     S(rot)  - rotational entropy
     S(trans)- translational entropy
The entropies will be listed as mutliplied by the temperature to get
units of energy

Electronic entropy                ...      0.00000000 Eh      0.00 kcal/mol
Vibrational entropy               ...      0.00753125 Eh      4.73 kcal/mol
Rotational entropy                ...      0.01206984 Eh      7.57 kcal/mol
Translational entropy             ...      0.01884443 Eh     11.83 kcal/mol
-----------------------------------------------------------------------
Final entropy term                ...      0.03844553 Eh     24.12 kcal/mol

CAUTION: The rotational entropy is not quite correctly treated here
         because it includes a symmetry number that is not yet correctly
         implemented in ORCA!
For a nonlinear molecule the correct rotational entropy is:
    S(rot) = R*(ln(qrot/sn)+1.5)
    R    = 8.31441 J/mol/K = 1.987191683e-3 kcal/mol/K
    qrot = 238473.1263237
    sn is the rotational symmetry number. We have assumed 3 here
       if it is different for your molecule then you should correct
       the printed rotational entropy by manually evaluating the equation
       as given above

For convenience we print out the resulting values for sn=1 - 12:
 sn= 1  qrot/sn=  238473.1263 T*S(rot)=     8.22 kcal/mol T*S(tot)=    24.78 kcal/mol
 sn= 2  qrot/sn=  119236.5632 T*S(rot)=     7.81 kcal/mol T*S(tot)=    24.37 kcal/mol
 sn= 3  qrot/sn=   79491.0421 T*S(rot)=     7.57 kcal/mol T*S(tot)=    24.12 kcal/mol
 sn= 4  qrot/sn=   59618.2816 T*S(rot)=     7.40 kcal/mol T*S(tot)=    23.95 kcal/mol
 sn= 5  qrot/sn=   47694.6253 T*S(rot)=     7.27 kcal/mol T*S(tot)=    23.82 kcal/mol
 sn= 6  qrot/sn=   39745.5211 T*S(rot)=     7.16 kcal/mol T*S(tot)=    23.71 kcal/mol
 sn= 7  qrot/sn=   34067.5895 T*S(rot)=     7.07 kcal/mol T*S(tot)=    23.62 kcal/mol
 sn= 8  qrot/sn=   29809.1408 T*S(rot)=     6.99 kcal/mol T*S(tot)=    23.54 kcal/mol
 sn= 9  qrot/sn=   26497.0140 T*S(rot)=     6.92 kcal/mol T*S(tot)=    23.47 kcal/mol
 sn=10  qrot/sn=   23847.3126 T*S(rot)=     6.86 kcal/mol T*S(tot)=    23.41 kcal/mol
 sn=11  qrot/sn=   21679.3751 T*S(rot)=     6.80 kcal/mol T*S(tot)=    23.36 kcal/mol
 sn=12  qrot/sn=   19872.7605 T*S(rot)=     6.75 kcal/mol T*S(tot)=    23.30 kcal/mol

-------------------
GIBBS FREE ENTHALPY
-------------------

The Gibbs free enthalpy is G = H - T*S

Total enthalpy                    ...   -324.57706014 Eh
Total entropy correction          ...     -0.03844553 Eh    -24.12 kcal/mol
-----------------------------------------------------------------------
Final Gibbs free enthalpy         ...   -324.61550567 Eh

For completeness - the Gibbs free enthalpy minus the electronic energy
G-E(el)                           ...      0.09763860 Eh     61.27 kcal/mol

                             ****ORCA TERMINATED NORMALLY****
TOTAL RUN TIME: 0 days 0 hours 28 minutes 43 seconds 219 msec
