                         Program Version 3.0.3 - RELEASE   -
|  1> ! NORI PBE0 def2-TZVP UseSym TightOPT Freq TightSCF Grid3 FinalGrid5 XYZFile
|  2> % pal
|  3>     nprocs 8
|  4> end
|  5> %method
|  6>     SymThresh 5.0e-2
|  7> end
|  8> % geom
|  9>     MaxIter 10
| 10> end
| 11> % maxcore 2000
| 12> % output
| 13>     printlevel mini
| 14>     print[ P_Basis ] 0
| 15>     print[ P_SCFInfo ] 1
| 16>     print[ P_SCFIterInfo ] 1
| 17>     print[ P_OrbEn ] 0
| 18>     print[ P_Cartesian ] 0
| 19> end
| 20> % elprop
| 21>     Dipole false
| 22> end
| 23> *xyz 1 1
| 24>  N        0.8271565289    -0.0246619073     0.1951205646
| 25>  C        2.3092509166     0.0928682238     0.0270890525
| 26>  C        3.0294633065     1.1881197942     0.8039544049
| 27>  O        3.9920971285     0.2331596865     1.2452699925
| 28>  C        3.1628267500    -0.8789128597     0.8593133446
| 29>  C        3.8706604484    -1.9796023349     0.1696070584
| 30>  C        3.7896906998    -3.2426275418     0.5651923999
| 31>  H        0.3272340431     0.7279537258    -0.2849510194
| 32>  H        0.5704674113     0.0117281131     1.1851548351
| 33>  H        0.4870549940    -0.9138663928    -0.1819865338
| 34>  H        2.5172898773     0.0696826632    -1.0418603279
| 35>  H        2.4444154562     1.6048027093     1.6367708786
| 36>  H        3.4717878522     2.0011880551     0.2271802099
| 37>  H        2.6071655505    -1.2663729220     1.7293839200
| 38>  H        4.4816340896    -1.6981425888    -0.6847578418
| 39>  H        3.2125600475    -3.5321092890     1.4380511349
| 40>  H        4.3098348998    -4.0341371349     0.0399179273
| 41> *
| 42>
| 43>                          ****END OF INPUT****
 Total Charge           Charge          ....    1
 Multiplicity           Mult            ....    1
 Number of Electrons    NEL             ....   54
FINAL SINGLE POINT ENERGY      -325.952319540306

CARTESIAN COORDINATES (ANGSTROEM)
---------------------------------
  N      1.801594    0.000651   -1.300497
  C      0.872558   -0.580947   -0.281708
  C      1.288130   -0.511950    1.182531
  O      0.000166    0.000311    1.517551
  C     -0.306076    0.310402    0.145155
  C     -1.672450   -0.053228   -0.289548
  C     -2.491884    0.810022   -0.873876
  H      2.626748   -0.586889   -1.444626
  H      2.124820    0.927136   -1.009479
  H      1.332045    0.104555   -2.204544
  H      0.581885   -1.569396   -0.634654
  H      2.090326    0.212390    1.386650
  H      1.513059   -1.454534    1.682623
  H     -0.108283    1.374913   -0.063777
  H     -1.983861   -1.075947   -0.092397
  H     -2.206102    1.843643   -1.044031
  H     -3.485882    0.520005   -1.191762

FINAL SINGLE POINT ENERGY      -325.952320530417
                    ***********************HURRAY********************
 Multiplicity           Mult            ....    1
 Number of Electrons    NEL             ....   54
 Basis Dimension        Dim             ....  277
FINAL SINGLE POINT ENERGY      -325.952321211492

VIBRATIONAL FREQUENCIES
-----------------------

   0:         0.00 cm**-1
   1:         0.00 cm**-1
   2:         0.00 cm**-1
   3:         0.00 cm**-1
   4:         0.00 cm**-1
   5:         0.00 cm**-1
   6:        85.40 cm**-1
   7:        95.38 cm**-1
   8:       197.62 cm**-1
   9:       239.21 cm**-1
  10:       254.14 cm**-1
  11:       365.29 cm**-1
  12:       410.45 cm**-1
  13:       481.98 cm**-1
  14:       641.09 cm**-1
  15:       708.26 cm**-1
  16:       853.91 cm**-1
  17:       905.22 cm**-1
  18:       950.39 cm**-1
  19:       971.11 cm**-1
  20:      1006.65 cm**-1
  21:      1011.59 cm**-1
  22:      1025.50 cm**-1
  23:      1054.62 cm**-1
  24:      1080.90 cm**-1
  25:      1141.72 cm**-1
  26:      1155.03 cm**-1
  27:      1195.54 cm**-1
  28:      1212.40 cm**-1
  29:      1264.72 cm**-1
  30:      1282.58 cm**-1
  31:      1315.39 cm**-1
  32:      1346.48 cm**-1
  33:      1353.35 cm**-1
  34:      1421.25 cm**-1
  35:      1466.36 cm**-1
  36:      1502.04 cm**-1
  37:      1519.09 cm**-1
  38:      1652.79 cm**-1
  39:      1656.70 cm**-1
  40:      1721.38 cm**-1
  41:      2979.48 cm**-1
  42:      3008.29 cm**-1
  43:      3130.58 cm**-1
  44:      3146.80 cm**-1
  45:      3158.21 cm**-1
  46:      3175.35 cm**-1
  47:      3254.64 cm**-1
  48:      3405.33 cm**-1
  49:      3485.00 cm**-1
  50:      3491.16 cm**-1

IR SPECTRUM
-----------

 Mode    freq (cm**-1)   T**2         TX         TY         TZ
-------------------------------------------------------------------
   6:        85.40    6.258264  (  1.634692  -1.202609   1.462798)
   7:        95.38    0.632124  ( -0.700255  -0.334711  -0.172441)
   8:       197.62    0.435459  (  0.514395   0.070453   0.407300)
   9:       239.21    9.462717  (  3.042299   0.045424  -0.452847)
  10:       254.14    4.401231  ( -1.067295  -0.484525  -1.739928)
  11:       365.29    0.968869  (  0.258691   0.687475   0.655229)
  12:       410.45    6.398464  ( -1.890385   0.670964   1.541011)
  13:       481.98    5.098482  (  0.071040  -0.477510  -2.205770)
  14:       641.09    6.633475  ( -1.752573   0.385211   1.847586)
  15:       708.26    2.058139  (  0.847656  -1.087892   0.395105)
  16:       853.91   17.660775  (  2.997899  -2.109053  -2.055546)
  17:       905.22   15.673857  (  1.708301  -0.267346   3.561473)
  18:       950.39    9.284976  ( -0.830333  -2.193605  -1.945153)
  19:       971.11   19.926672  (  2.339552  -0.847593  -3.706043)
  20:      1006.65    9.448213  (  0.766124   0.239900   2.967105)
  21:      1011.59   59.657279  ( -1.354264   1.183871   7.511438)
  22:      1025.50    2.190908  ( -0.533134   0.166270  -1.370777)
  23:      1054.62  111.441497  ( -8.151344   4.525973  -4.951027)
  24:      1080.90   34.636268  ( -5.832647   0.299913   0.725635)
  25:      1141.72    8.092191  ( -2.381557   0.961227   1.223283)
  26:      1155.03    8.922283  (  0.783014  -1.223459   2.610042)
  27:      1195.54    6.923149  (  2.307039  -0.488097   1.167254)
  28:      1212.40    4.206829  (  1.417794  -0.825787   1.230758)
  29:      1264.72    0.578692  ( -0.300353   0.162399   0.679784)
  30:      1282.58    1.382971  ( -0.963133   0.424991  -0.524146)
  31:      1315.39    4.792352  ( -1.281499   1.774335  -0.042980)
  32:      1346.48    2.382518  (  1.208313  -0.174113  -0.944554)
  33:      1353.35    5.828062  ( -2.396526   0.025386  -0.289968)
  34:      1421.25   14.659230  ( -1.304729   1.661305   3.193271)
  35:      1466.36   29.732422  ( -3.375437   2.947920  -3.106222)
  36:      1502.04  120.944609  (  6.331959   4.201159  -7.949916)
  37:      1519.09   37.625524  ( -5.270203  -2.279515   2.157382)
  38:      1652.79   37.610477  ( -4.828112   2.997883  -2.304888)
  39:      1656.70   48.712437  ( -1.540287  -5.282811  -4.293234)
  40:      1721.38    5.891864  ( -2.354118  -0.132650  -0.576537)
  41:      2979.48   27.058769  (  1.095541   4.291847  -2.727382)
  42:      3008.29   42.525606  ( -6.203453  -2.010223  -0.042181)
  43:      3130.58    4.758272  (  0.970488  -1.707981   0.948275)
  44:      3146.80    0.466897  (  0.216394  -0.647288  -0.033002)
  45:      3158.21    2.171783  ( -0.581879  -1.344937   0.156030)
  46:      3175.35    0.361615  (  0.165415  -0.550688   0.176053)
  47:      3254.64    0.466340  (  0.056211  -0.651216   0.197733)
  48:      3405.33   39.903570  (  3.996003   1.635075  -4.611080)
  49:      3485.00   92.466239  (  5.547103   3.390010   7.085458)
  50:      3491.16  103.364596  (  6.377445  -7.913020  -0.277333)

--------------------------
THERMOCHEMISTRY AT 298.15K
--------------------------

Temperature         ... 298.15 K
Pressure            ... 1.00 atm
Total Mass          ... 100.14 AMU

Throughout the following assumptions are being made:
  (1) The electronic state is orbitally nondegenerate
  (2) There are no thermally accessible electronically excited states
  (3) Hindered rotations indicated by low frequency modes) are not
      treated as such but are treated as vibrations and this may
      case some error
  (4) All equations used are the standard statistical mechanics
      equations for an ideal gas
  (5) All vibrations are strinctly harmonic

------------
INNER ENERGY
------------

The inner energy is: U= E(el) + E(ZPE) + E(vib) + E(rot) + E(trans)
    E(el)   - is the total energy from the electronic structure calculation
              = E(kin-el) + E(nuc-el) + E(el-el) + E(nuc-nuc)
    E(ZPE)  - the the zero temperature vibrational energy from the frequency calculation
    E(vib)  - the the finite temperature correction to E(ZPE) due to population
              of excietd vibrational states
    E(rot)  - is the rotational thermal energy
    E(trans)- is the translational thermal energy

Summary of contributions to the inner energy U:
Electronic energy                ...   -325.95232121 Eh
Zero point energy                ...      0.15213690 Eh      95.47 kcal/mol
Thermal vibrational correction   ...      0.00470454 Eh       2.95 kcal/mol
Thermal rotational correction    ...      0.00141627 Eh       0.89 kcal/mol
Thermal translational correction ...      0.00141627 Eh       0.89 kcal/mol
-----------------------------------------------------------------------
Total thermal energy                   -325.79264724 Eh

Summary of corrections to the electronic energy:
(perhaps to be used in another calculation)
Total thermal correction                  0.00753708 Eh       4.73 kcal/mol
Non-thermal (ZPE) correction              0.15213690 Eh      95.47 kcal/mol
-----------------------------------------------------------------------
Total correction                          0.15967398 Eh     100.20 kcal/mol

--------
ENTHALPY
--------

The enthalpy is H = U + kB*T
                kB is Boltzmann's constant
Total free energy                 ...   -325.79264724 Eh
Thermal Enthalpy correction       ...      0.00094421 Eh       0.59 kcal/mol
-----------------------------------------------------------------------
Total Enthalpy                    ...   -325.79170303 Eh

-------
ENTROPY
-------

The entropy contributions are T*S = T*(S(el)+S(vib)+S(rot)+S(trans)
     S(el)   - electronic entropy
     S(vib)  - vibrational entropy
     S(rot)  - rotational entropy
     S(trans)- translational entropy
The entropies will be listed as mutliplied by the temperature to get
units of energy

Electronic entropy                ...      0.00000000 Eh      0.00 kcal/mol
Vibrational entropy               ...      0.00840985 Eh      5.28 kcal/mol
Rotational entropy                ...      0.01210640 Eh      7.60 kcal/mol
Translational entropy             ...      0.01887324 Eh     11.84 kcal/mol
-----------------------------------------------------------------------
Final entropy term                ...      0.03938949 Eh     24.72 kcal/mol

CAUTION: The rotational entropy is not quite correctly treated here
         because it includes a symmetry number that is not yet correctly
         implemented in ORCA!
For a nonlinear molecule the correct rotational entropy is:
    S(rot) = R*(ln(qrot/sn)+1.5)
    R    = 8.31441 J/mol/K = 1.987191683e-3 kcal/mol/K
    qrot = 247888.4767888
    sn is the rotational symmetry number. We have assumed 3 here
       if it is different for your molecule then you should correct
       the printed rotational entropy by manually evaluating the equation
       as given above

For convenience we print out the resulting values for sn=1 - 12:
 sn= 1  qrot/sn=  247888.4768 T*S(rot)=     8.25 kcal/mol T*S(tot)=    25.37 kcal/mol
 sn= 2  qrot/sn=  123944.2384 T*S(rot)=     7.84 kcal/mol T*S(tot)=    24.96 kcal/mol
 sn= 3  qrot/sn=   82629.4923 T*S(rot)=     7.60 kcal/mol T*S(tot)=    24.72 kcal/mol
 sn= 4  qrot/sn=   61972.1192 T*S(rot)=     7.43 kcal/mol T*S(tot)=    24.55 kcal/mol
 sn= 5  qrot/sn=   49577.6954 T*S(rot)=     7.29 kcal/mol T*S(tot)=    24.41 kcal/mol
 sn= 6  qrot/sn=   41314.7461 T*S(rot)=     7.19 kcal/mol T*S(tot)=    24.31 kcal/mol
 sn= 7  qrot/sn=   35412.6395 T*S(rot)=     7.09 kcal/mol T*S(tot)=    24.22 kcal/mol
 sn= 8  qrot/sn=   30986.0596 T*S(rot)=     7.02 kcal/mol T*S(tot)=    24.14 kcal/mol
 sn= 9  qrot/sn=   27543.1641 T*S(rot)=     6.95 kcal/mol T*S(tot)=    24.07 kcal/mol
 sn=10  qrot/sn=   24788.8477 T*S(rot)=     6.88 kcal/mol T*S(tot)=    24.00 kcal/mol
 sn=11  qrot/sn=   22535.3161 T*S(rot)=     6.83 kcal/mol T*S(tot)=    23.95 kcal/mol
 sn=12  qrot/sn=   20657.3731 T*S(rot)=     6.78 kcal/mol T*S(tot)=    23.90 kcal/mol

-------------------
GIBBS FREE ENTHALPY
-------------------

The Gibbs free enthalpy is G = H - T*S

Total enthalpy                    ...   -325.79170303 Eh
Total entropy correction          ...     -0.03938949 Eh    -24.72 kcal/mol
-----------------------------------------------------------------------
Final Gibbs free enthalpy         ...   -325.83109251 Eh

For completeness - the Gibbs free enthalpy minus the electronic energy
G-E(el)                           ...      0.12122870 Eh     76.07 kcal/mol

                             ****ORCA TERMINATED NORMALLY****
TOTAL RUN TIME: 0 days 0 hours 33 minutes 34 seconds 325 msec
