                         Program Version 3.0.3 - RELEASE   -
|  1> ! NORI PBE0 def2-TZVP UseSym TightOPT Freq TightSCF Grid3 FinalGrid5 XYZFile
|  2> % pal
|  3>     nprocs 8
|  4> end
|  5> %method
|  6>     SymThresh 5.0e-2
|  7> end
|  8> % geom
|  9>     MaxIter 10
| 10> end
| 11> % maxcore 2000
| 12> % output
| 13>     printlevel mini
| 14>     print[ P_Basis ] 0
| 15>     print[ P_SCFInfo ] 1
| 16>     print[ P_SCFIterInfo ] 1
| 17>     print[ P_OrbEn ] 0
| 18>     print[ P_Cartesian ] 0
| 19> end
| 20> % elprop
| 21>     Dipole false
| 22> end
| 23> *xyz 1 1
| 24>  N        0.8193220183     0.1121045942     0.1341147210
| 25>  C        2.3132485648     0.0918025815     0.0730712176
| 26>  C        3.0774676736     1.0602619618     0.9694641264
| 27>  O        3.9055781625    -0.0118853228     1.4211559612
| 28>  C        3.0114579973    -1.0057956597     0.8939945728
| 29>  C        3.6320885158    -2.0936059982     0.1818107128
| 30>  C        4.1307075067    -3.0050039667    -0.4163756168
| 31>  H        0.4220266883    -0.7081840998    -0.3335067360
| 32>  H        0.4347279276     0.9438408622    -0.3219542869
| 33>  H        0.4902807536     0.1090361706     1.1033452786
| 34>  H        2.6001540467     0.1047943187    -0.9765184693
| 35>  H        2.4757213359     1.4912324747     1.7823071278
| 36>  H        3.6439014182     1.8493655907     0.4745581340
| 37>  H        2.3655177618    -1.4004782333     1.6961635457
| 38>  H        4.5873896291    -3.8168652738    -0.9375202889
| 39> *
| 40>
| 41>                          ****END OF INPUT****
 Total Charge           Charge          ....    1
 Multiplicity           Mult            ....    1
 Number of Electrons    NEL             ....   52
FINAL SINGLE POINT ENERGY      -324.691645766641

CARTESIAN COORDINATES (ANGSTROEM)
---------------------------------
  N      1.797578    0.000103   -1.330073
  C      0.770686   -0.523653   -0.377344
  C      1.175317   -0.699538    1.082361
  O     -0.000019    0.000222    1.492200
  C     -0.236555    0.503693    0.167146
  C     -1.598260    0.430206   -0.297738
  C     -2.725226    0.374518   -0.702501
  H      1.366620    0.279628   -2.216271
  H      2.509450   -0.704176   -1.541528
  H      2.275340    0.818602   -0.943074
  H      0.305855   -1.392538   -0.838807
  H      2.095244   -0.166110    1.361749
  H      1.212458   -1.719461    1.465493
  H      0.136042    1.538157    0.080468
  H     -3.734326    0.329268   -1.047399

FINAL SINGLE POINT ENERGY      -324.691646119071
                    ***********************HURRAY********************
 Multiplicity           Mult            ....    1
 Number of Electrons    NEL             ....   52
 Basis Dimension        Dim             ....  265
FINAL SINGLE POINT ENERGY      -324.691646329004

VIBRATIONAL FREQUENCIES
-----------------------

   0:         0.00 cm**-1
   1:         0.00 cm**-1
   2:         0.00 cm**-1
   3:         0.00 cm**-1
   4:         0.00 cm**-1
   5:         0.00 cm**-1
   6:        74.83 cm**-1
   7:       141.78 cm**-1
   8:       199.26 cm**-1
   9:       213.22 cm**-1
  10:       298.91 cm**-1
  11:       385.85 cm**-1
  12:       491.96 cm**-1
  13:       536.01 cm**-1
  14:       668.74 cm**-1
  15:       727.20 cm**-1
  16:       767.08 cm**-1
  17:       844.30 cm**-1
  18:       908.73 cm**-1
  19:       952.50 cm**-1
  20:       997.46 cm**-1
  21:      1026.97 cm**-1
  22:      1069.23 cm**-1
  23:      1109.51 cm**-1
  24:      1144.53 cm**-1
  25:      1153.50 cm**-1
  26:      1200.41 cm**-1
  27:      1261.10 cm**-1
  28:      1281.42 cm**-1
  29:      1345.93 cm**-1
  30:      1368.86 cm**-1
  31:      1428.31 cm**-1
  32:      1505.01 cm**-1
  33:      1519.32 cm**-1
  34:      1652.34 cm**-1
  35:      1657.46 cm**-1
  36:      2251.45 cm**-1
  37:      2975.76 cm**-1
  38:      3013.52 cm**-1
  39:      3135.95 cm**-1
  40:      3158.90 cm**-1
  41:      3403.77 cm**-1
  42:      3458.40 cm**-1
  43:      3482.66 cm**-1
  44:      3488.66 cm**-1

IR SPECTRUM
-----------

 Mode    freq (cm**-1)   T**2         TX         TY         TZ
-------------------------------------------------------------------
   6:        74.83    4.264643  (  0.938211  -1.251287   1.348586)
   7:       141.78    8.553732  (  1.843795   0.941838   2.065695)
   8:       199.26    3.224846  (  1.286405  -1.066961   0.656965)
   9:       213.22    1.889234  ( -0.613312   1.160065   0.409063)
  10:       298.91    7.955696  (  2.486409  -0.251147  -1.307819)
  11:       385.85    8.819374  (  1.377356   1.419983  -2.214929)
  12:       491.96   13.854581  (  2.614101  -1.316354  -2.299624)
  13:       536.01    5.256712  (  0.824554   2.134615   0.142271)
  14:       668.74    1.392461  (  0.132365  -0.073097  -1.170298)
  15:       727.20   38.227461  ( -0.233258   6.146035   0.631907)
  16:       767.08   30.830815  ( -1.333881  -0.611121   5.355194)
  17:       844.30   23.127856  (  2.120310  -3.692591  -2.235379)
  18:       908.73   16.988896  ( -1.474491   0.985804  -3.720613)
  19:       952.50   12.854817  (  0.490727   2.249619   2.748312)
  20:       997.46   22.701635  (  0.868805   1.116724  -4.549697)
  21:      1026.97   15.412035  ( -0.361919   2.852088  -2.673321)
  22:      1069.23  132.595116  (-10.145573   4.398841  -3.211334)
  23:      1109.51   12.324520  (  1.443971  -1.983759   2.510810)
  24:      1144.53    6.886979  ( -1.999605   0.692321   1.552176)
  25:      1153.50   10.357827  ( -1.011722   1.641705  -2.576635)
  26:      1200.41    2.189387  ( -1.269186   0.456804  -0.608181)
  27:      1261.10    0.398896  ( -0.063615   0.432428   0.455911)
  28:      1281.42    0.390520  ( -0.233127  -0.579342  -0.023134)
  29:      1345.93    1.549324  (  1.024699  -0.263966  -0.655468)
  30:      1368.86   33.550887  (  5.622360  -1.212338   0.685707)
  31:      1428.31   19.933977  ( -1.302949  -0.784983  -4.197631)
  32:      1505.01  102.085720  (  6.250914   3.599990  -7.074735)
  33:      1519.32   58.660728  (  6.537330   2.555106  -3.065205)
  34:      1652.34   40.585094  ( -4.187080   4.414193  -1.889009)
  35:      1657.46   49.160883  (  2.551373   4.409352   4.817572)
  36:      2251.45   42.017118  ( -6.161949   0.299332  -1.989447)
  37:      2975.76   20.655893  ( -2.425806  -3.268558   2.021853)
  38:      3013.52   36.752068  (  6.009374   0.792976   0.103361)
  39:      3135.95    3.524160  (  0.539032  -1.739235   0.456800)
  40:      3158.90    0.165491  ( -0.214644  -0.341694  -0.051617)
  41:      3403.77   49.107917  (  4.779378   1.803388  -4.797213)
  42:      3458.40   87.700421  ( -8.927223  -0.068135  -2.828510)
  43:      3482.66   98.925203  ( -6.355189  -1.154109  -7.563386)
  44:      3488.66  107.957440  ( -4.722930   9.114622   1.604694)

--------------------------
THERMOCHEMISTRY AT 298.15K
--------------------------

Temperature         ... 298.15 K
Pressure            ... 1.00 atm
Total Mass          ... 98.12 AMU

Throughout the following assumptions are being made:
  (1) The electronic state is orbitally nondegenerate
  (2) There are no thermally accessible electronically excited states
  (3) Hindered rotations indicated by low frequency modes) are not
      treated as such but are treated as vibrations and this may
      case some error
  (4) All equations used are the standard statistical mechanics
      equations for an ideal gas
  (5) All vibrations are strinctly harmonic

------------
INNER ENERGY
------------

The inner energy is: U= E(el) + E(ZPE) + E(vib) + E(rot) + E(trans)
    E(el)   - is the total energy from the electronic structure calculation
              = E(kin-el) + E(nuc-el) + E(el-el) + E(nuc-nuc)
    E(ZPE)  - the the zero temperature vibrational energy from the frequency calculation
    E(vib)  - the the finite temperature correction to E(ZPE) due to population
              of excietd vibrational states
    E(rot)  - is the rotational thermal energy
    E(trans)- is the translational thermal energy

Summary of contributions to the inner energy U:
Electronic energy                ...   -324.69164633 Eh
Zero point energy                ...      0.12826262 Eh      80.49 kcal/mol
Thermal vibrational correction   ...      0.00444203 Eh       2.79 kcal/mol
Thermal rotational correction    ...      0.00141627 Eh       0.89 kcal/mol
Thermal translational correction ...      0.00141627 Eh       0.89 kcal/mol
-----------------------------------------------------------------------
Total thermal energy                   -324.55610913 Eh

Summary of corrections to the electronic energy:
(perhaps to be used in another calculation)
Total thermal correction                  0.00727458 Eh       4.56 kcal/mol
Non-thermal (ZPE) correction              0.12826262 Eh      80.49 kcal/mol
-----------------------------------------------------------------------
Total correction                          0.13553720 Eh      85.05 kcal/mol

--------
ENTHALPY
--------

The enthalpy is H = U + kB*T
                kB is Boltzmann's constant
Total free energy                 ...   -324.55610913 Eh
Thermal Enthalpy correction       ...      0.00094421 Eh       0.59 kcal/mol
-----------------------------------------------------------------------
Total Enthalpy                    ...   -324.55516492 Eh

-------
ENTROPY
-------

The entropy contributions are T*S = T*(S(el)+S(vib)+S(rot)+S(trans)
     S(el)   - electronic entropy
     S(vib)  - vibrational entropy
     S(rot)  - rotational entropy
     S(trans)- translational entropy
The entropies will be listed as mutliplied by the temperature to get
units of energy

Electronic entropy                ...      0.00000000 Eh      0.00 kcal/mol
Vibrational entropy               ...      0.00785700 Eh      4.93 kcal/mol
Rotational entropy                ...      0.01204774 Eh      7.56 kcal/mol
Translational entropy             ...      0.01884443 Eh     11.83 kcal/mol
-----------------------------------------------------------------------
Final entropy term                ...      0.03874917 Eh     24.32 kcal/mol

CAUTION: The rotational entropy is not quite correctly treated here
         because it includes a symmetry number that is not yet correctly
         implemented in ORCA!
For a nonlinear molecule the correct rotational entropy is:
    S(rot) = R*(ln(qrot/sn)+1.5)
    R    = 8.31441 J/mol/K = 1.987191683e-3 kcal/mol/K
    qrot = 232956.2837274
    sn is the rotational symmetry number. We have assumed 3 here
       if it is different for your molecule then you should correct
       the printed rotational entropy by manually evaluating the equation
       as given above

For convenience we print out the resulting values for sn=1 - 12:
 sn= 1  qrot/sn=  232956.2837 T*S(rot)=     8.21 kcal/mol T*S(tot)=    24.97 kcal/mol
 sn= 2  qrot/sn=  116478.1419 T*S(rot)=     7.80 kcal/mol T*S(tot)=    24.56 kcal/mol
 sn= 3  qrot/sn=   77652.0946 T*S(rot)=     7.56 kcal/mol T*S(tot)=    24.32 kcal/mol
 sn= 4  qrot/sn=   58239.0709 T*S(rot)=     7.39 kcal/mol T*S(tot)=    24.14 kcal/mol
 sn= 5  qrot/sn=   46591.2567 T*S(rot)=     7.26 kcal/mol T*S(tot)=    24.01 kcal/mol
 sn= 6  qrot/sn=   38826.0473 T*S(rot)=     7.15 kcal/mol T*S(tot)=    23.90 kcal/mol
 sn= 7  qrot/sn=   33279.4691 T*S(rot)=     7.06 kcal/mol T*S(tot)=    23.81 kcal/mol
 sn= 8  qrot/sn=   29119.5355 T*S(rot)=     6.98 kcal/mol T*S(tot)=    23.73 kcal/mol
 sn= 9  qrot/sn=   25884.0315 T*S(rot)=     6.91 kcal/mol T*S(tot)=    23.66 kcal/mol
 sn=10  qrot/sn=   23295.6284 T*S(rot)=     6.85 kcal/mol T*S(tot)=    23.60 kcal/mol
 sn=11  qrot/sn=   21177.8440 T*S(rot)=     6.79 kcal/mol T*S(tot)=    23.55 kcal/mol
 sn=12  qrot/sn=   19413.0236 T*S(rot)=     6.74 kcal/mol T*S(tot)=    23.49 kcal/mol

-------------------
GIBBS FREE ENTHALPY
-------------------

The Gibbs free enthalpy is G = H - T*S

Total enthalpy                    ...   -324.55516492 Eh
Total entropy correction          ...     -0.03874917 Eh    -24.32 kcal/mol
-----------------------------------------------------------------------
Final Gibbs free enthalpy         ...   -324.59391409 Eh

For completeness - the Gibbs free enthalpy minus the electronic energy
G-E(el)                           ...      0.09773224 Eh     61.33 kcal/mol

                             ****ORCA TERMINATED NORMALLY****
TOTAL RUN TIME: 0 days 0 hours 27 minutes 30 seconds 367 msec
