                         Program Version 3.0.3 - RELEASE   -
|  1> ! NORI PBE0 def2-TZVP UseSym TightOPT Freq TightSCF Grid3 FinalGrid5 XYZFile
|  2> % pal
|  3>     nprocs 8
|  4> end
|  5> %method
|  6>     SymThresh 5.0e-2
|  7> end
|  8> % geom
|  9>     MaxIter 10
| 10> end
| 11> % maxcore 2000
| 12> % output
| 13>     printlevel mini
| 14>     print[ P_Basis ] 0
| 15>     print[ P_SCFInfo ] 1
| 16>     print[ P_SCFIterInfo ] 1
| 17>     print[ P_OrbEn ] 0
| 18>     print[ P_Cartesian ] 0
| 19> end
| 20> % elprop
| 21>     Dipole false
| 22> end
| 23> *xyz 1 1
| 24>  N        0.8037188361    -0.1303241903     0.1910399182
| 25>  C        2.2862840605     0.0056321632     0.1179178700
| 26>  C        3.0511392886     1.0185654863     0.9671376503
| 27>  O        3.9941235403    -0.0117483092     1.2957660838
| 28>  C        3.0661956990    -1.0255711153     0.9149149908
| 29>  C        3.5564250126    -2.2019127037     0.1138578043
| 30>  O        2.3486428293    -2.6805900432    -0.4646007593
| 31>  H        0.3074095074     0.5896739955    -0.3379726969
| 32>  H        0.4734019392    -0.1024648173     1.1582651340
| 33>  H        0.5672535207    -1.0520548014    -0.1972662111
| 34>  H        2.5543765896     0.0202242612    -0.9374729704
| 35>  H        2.5032768456     1.3673708615     1.8527976132
| 36>  H        3.5117066562     1.8634178444     0.4558672669
| 37>  H        2.4960339175    -1.3831842396     1.7879680133
| 38>  H        4.2706514404    -1.8735620502    -0.6496151023
| 39>  H        4.0337183623    -2.9518494494     0.7502160648
| 40>  H        2.4880819544    -3.5481928924    -0.8535406696
| 41> *
| 42>
| 43>                          ****END OF INPUT****
 Total Charge           Charge          ....    1
 Multiplicity           Mult            ....    1
 Number of Electrons    NEL             ....   56
FINAL SINGLE POINT ENERGY      -363.084841754448

CARTESIAN COORDINATES (ANGSTROEM)
---------------------------------
  N     -1.509849   -0.315830   -1.269424
  C     -0.826801    0.362874   -0.131411
  C     -1.342375    0.260839    1.302352
  O      0.000177    0.000349    1.736531
  C      0.390065   -0.364387    0.414058
  C      1.709172    0.125069   -0.120821
  O      1.515870   -0.000639   -1.524087
  H     -2.335088    0.187974   -1.600953
  H     -1.792823   -1.266912   -1.022208
  H     -0.827169   -0.377965   -2.035152
  H     -0.607124    1.380274   -0.451370
  H     -2.003041   -0.598057    1.482516
  H     -1.764357    1.158070    1.754281
  H      0.313071   -1.454689    0.269350
  H      1.878490    1.166476    0.174784
  H      2.541043   -0.487320    0.236847
  H      2.352895    0.101838   -1.984885

FINAL SINGLE POINT ENERGY      -363.084842533286
                    ***********************HURRAY********************
 Multiplicity           Mult            ....    1
 Number of Electrons    NEL             ....   56
 Basis Dimension        Dim             ....  277
FINAL SINGLE POINT ENERGY      -363.084843340472

VIBRATIONAL FREQUENCIES
-----------------------

   0:         0.00 cm**-1
   1:         0.00 cm**-1
   2:         0.00 cm**-1
   3:         0.00 cm**-1
   4:         0.00 cm**-1
   5:         0.00 cm**-1
   6:       100.03 cm**-1
   7:       128.01 cm**-1
   8:       203.64 cm**-1
   9:       251.19 cm**-1
  10:       268.90 cm**-1
  11:       299.38 cm**-1
  12:       345.22 cm**-1
  13:       451.92 cm**-1
  14:       505.82 cm**-1
  15:       676.21 cm**-1
  16:       825.99 cm**-1
  17:       910.58 cm**-1
  18:       947.05 cm**-1
  19:       998.11 cm**-1
  20:      1012.93 cm**-1
  21:      1058.74 cm**-1
  22:      1075.43 cm**-1
  23:      1089.99 cm**-1
  24:      1153.14 cm**-1
  25:      1161.56 cm**-1
  26:      1181.50 cm**-1
  27:      1192.57 cm**-1
  28:      1239.12 cm**-1
  29:      1248.72 cm**-1
  30:      1279.44 cm**-1
  31:      1305.68 cm**-1
  32:      1347.43 cm**-1
  33:      1380.90 cm**-1
  34:      1434.84 cm**-1
  35:      1461.06 cm**-1
  36:      1490.93 cm**-1
  37:      1516.78 cm**-1
  38:      1522.32 cm**-1
  39:      1648.30 cm**-1
  40:      1660.35 cm**-1
  41:      2981.63 cm**-1
  42:      3024.21 cm**-1
  43:      3048.79 cm**-1
  44:      3110.52 cm**-1
  45:      3140.61 cm**-1
  46:      3150.85 cm**-1
  47:      3381.80 cm**-1
  48:      3468.43 cm**-1
  49:      3503.41 cm**-1
  50:      3870.74 cm**-1

IR SPECTRUM
-----------

 Mode    freq (cm**-1)   T**2         TX         TY         TZ
-------------------------------------------------------------------
   6:       100.03   17.321259  (  3.866288   0.002032  -1.540477)
   7:       128.01   13.578065  ( -2.403785   2.691859   0.744161)
   8:       203.64   16.336284  ( -2.418275  -3.149333   0.754937)
   9:       251.19    1.640153  ( -1.251413  -0.090118   0.256900)
  10:       268.90  118.190105  (  2.437011 -10.542083   1.056206)
  11:       299.38   11.596727  (  0.899638   2.625200   1.973754)
  12:       345.22    3.285985  (  0.267445   1.632573  -0.741057)
  13:       451.92    1.327841  (  0.328632   0.310686   1.059866)
  14:       505.82   13.331598  ( -0.443290   1.454711  -3.319474)
  15:       676.21    2.762518  (  1.234381   0.669133   0.889429)
  16:       825.99   14.875367  ( -3.452997   1.554192  -0.732576)
  17:       910.58   21.303674  ( -2.508757  -0.496450   3.842311)
  18:       947.05    6.590535  (  2.166058   1.321058   0.391830)
  19:       998.11   19.381768  ( -0.768258   1.558392  -4.045116)
  20:      1012.93   30.054420  ( -5.237805   1.027333  -1.250762)
  21:      1058.74  105.193170  (  2.580574  -2.920455  -9.487083)
  22:      1075.43   21.678475  ( -0.743144  -0.008938   4.596317)
  23:      1089.99   49.516740  (  6.995172  -0.403727   0.649089)
  24:      1153.14   16.688285  ( -2.541193   1.564495   2.789799)
  25:      1161.56    5.353399  (  2.138480  -0.709702   0.525951)
  26:      1181.50   10.271013  ( -1.743035   1.963851   1.837425)
  27:      1192.57    8.215346  ( -2.497984  -0.629370  -1.256708)
  28:      1239.12   26.519428  ( -1.686413  -0.447862  -4.845086)
  29:      1248.72    4.705438  ( -0.045199   0.096768  -2.166571)
  30:      1279.44    0.691861  (  0.541814  -0.380220   0.503718)
  31:      1305.68    4.250830  ( -0.835130  -1.053343  -1.563284)
  32:      1347.43    1.213634  (  1.088242  -0.036944   0.167328)
  33:      1380.90    9.034287  ( -2.556796   0.169067  -1.571145)
  34:      1434.84    9.290591  ( -0.328397   0.179604  -3.024977)
  35:      1461.06    6.687417  ( -0.314644  -0.987550   2.369211)
  36:      1490.93  166.968480  ( -5.659755  -5.319234 -10.326732)
  37:      1516.78   12.413563  ( -2.728273  -2.157011  -0.563376)
  38:      1522.32    7.610085  (  2.245232   1.593212   0.175200)
  39:      1648.30   41.180728  ( -4.411438  -3.227251   3.362260)
  40:      1660.35   37.606811  ( -3.532096   4.841420  -1.300678)
  41:      2981.63   25.097859  (  0.207945   4.409575   2.368600)
  42:      3024.21   31.216396  ( -4.943143  -2.602256   0.099967)
  43:      3048.79   20.748203  (  1.804085   2.577063   3.294272)
  44:      3110.52   10.537476  ( -1.761843   2.692748  -0.427196)
  45:      3140.61    3.042220  ( -1.104307   1.163388   0.685021)
  46:      3150.85    1.651286  (  0.582158  -1.057565  -0.440379)
  47:      3381.80   60.981198  (  2.715060  -1.493462  -7.167930)
  48:      3468.43  111.071928  (  9.715796   2.481010  -3.243428)
  49:      3503.41   92.302677  (  4.487472  -7.902059   3.118129)
  50:      3870.74  116.067891  (  8.210050   0.719475  -6.938683)

--------------------------
THERMOCHEMISTRY AT 298.15K
--------------------------

Temperature         ... 298.15 K
Pressure            ... 1.00 atm
Total Mass          ... 104.13 AMU

Throughout the following assumptions are being made:
  (1) The electronic state is orbitally nondegenerate
  (2) There are no thermally accessible electronically excited states
  (3) Hindered rotations indicated by low frequency modes) are not
      treated as such but are treated as vibrations and this may
      case some error
  (4) All equations used are the standard statistical mechanics
      equations for an ideal gas
  (5) All vibrations are strinctly harmonic

------------
INNER ENERGY
------------

The inner energy is: U= E(el) + E(ZPE) + E(vib) + E(rot) + E(trans)
    E(el)   - is the total energy from the electronic structure calculation
              = E(kin-el) + E(nuc-el) + E(el-el) + E(nuc-nuc)
    E(ZPE)  - the the zero temperature vibrational energy from the frequency calculation
    E(vib)  - the the finite temperature correction to E(ZPE) due to population
              of excietd vibrational states
    E(rot)  - is the rotational thermal energy
    E(trans)- is the translational thermal energy

Summary of contributions to the inner energy U:
Electronic energy                ...   -363.08484334 Eh
Zero point energy                ...      0.15276194 Eh      95.86 kcal/mol
Thermal vibrational correction   ...      0.00480795 Eh       3.02 kcal/mol
Thermal rotational correction    ...      0.00141627 Eh       0.89 kcal/mol
Thermal translational correction ...      0.00141627 Eh       0.89 kcal/mol
-----------------------------------------------------------------------
Total thermal energy                   -362.92444091 Eh

Summary of corrections to the electronic energy:
(perhaps to be used in another calculation)
Total thermal correction                  0.00764049 Eh       4.79 kcal/mol
Non-thermal (ZPE) correction              0.15276194 Eh      95.86 kcal/mol
-----------------------------------------------------------------------
Total correction                          0.16040243 Eh     100.65 kcal/mol

--------
ENTHALPY
--------

The enthalpy is H = U + kB*T
                kB is Boltzmann's constant
Total free energy                 ...   -362.92444091 Eh
Thermal Enthalpy correction       ...      0.00094421 Eh       0.59 kcal/mol
-----------------------------------------------------------------------
Total Enthalpy                    ...   -362.92349670 Eh

-------
ENTROPY
-------

The entropy contributions are T*S = T*(S(el)+S(vib)+S(rot)+S(trans)
     S(el)   - electronic entropy
     S(vib)  - vibrational entropy
     S(rot)  - rotational entropy
     S(trans)- translational entropy
The entropies will be listed as mutliplied by the temperature to get
units of energy

Electronic entropy                ...      0.00000000 Eh      0.00 kcal/mol
Vibrational entropy               ...      0.00830969 Eh      5.21 kcal/mol
Rotational entropy                ...      0.01203706 Eh      7.55 kcal/mol
Translational entropy             ...      0.01892854 Eh     11.88 kcal/mol
-----------------------------------------------------------------------
Final entropy term                ...      0.03927529 Eh     24.65 kcal/mol

CAUTION: The rotational entropy is not quite correctly treated here
         because it includes a symmetry number that is not yet correctly
         implemented in ORCA!
For a nonlinear molecule the correct rotational entropy is:
    S(rot) = R*(ln(qrot/sn)+1.5)
    R    = 8.31441 J/mol/K = 1.987191683e-3 kcal/mol/K
    qrot = 230334.9988013
    sn is the rotational symmetry number. We have assumed 3 here
       if it is different for your molecule then you should correct
       the printed rotational entropy by manually evaluating the equation
       as given above

For convenience we print out the resulting values for sn=1 - 12:
 sn= 1  qrot/sn=  230334.9988 T*S(rot)=     8.20 kcal/mol T*S(tot)=    25.30 kcal/mol
 sn= 2  qrot/sn=  115167.4994 T*S(rot)=     7.79 kcal/mol T*S(tot)=    24.89 kcal/mol
 sn= 3  qrot/sn=   76778.3329 T*S(rot)=     7.55 kcal/mol T*S(tot)=    24.65 kcal/mol
 sn= 4  qrot/sn=   57583.7497 T*S(rot)=     7.38 kcal/mol T*S(tot)=    24.48 kcal/mol
 sn= 5  qrot/sn=   46066.9998 T*S(rot)=     7.25 kcal/mol T*S(tot)=    24.34 kcal/mol
 sn= 6  qrot/sn=   38389.1665 T*S(rot)=     7.14 kcal/mol T*S(tot)=    24.23 kcal/mol
 sn= 7  qrot/sn=   32904.9998 T*S(rot)=     7.05 kcal/mol T*S(tot)=    24.14 kcal/mol
 sn= 8  qrot/sn=   28791.8749 T*S(rot)=     6.97 kcal/mol T*S(tot)=    24.06 kcal/mol
 sn= 9  qrot/sn=   25592.7776 T*S(rot)=     6.90 kcal/mol T*S(tot)=    23.99 kcal/mol
 sn=10  qrot/sn=   23033.4999 T*S(rot)=     6.84 kcal/mol T*S(tot)=    23.93 kcal/mol
 sn=11  qrot/sn=   20939.5453 T*S(rot)=     6.78 kcal/mol T*S(tot)=    23.88 kcal/mol
 sn=12  qrot/sn=   19194.5832 T*S(rot)=     6.73 kcal/mol T*S(tot)=    23.82 kcal/mol

-------------------
GIBBS FREE ENTHALPY
-------------------

The Gibbs free enthalpy is G = H - T*S

Total enthalpy                    ...   -362.92349670 Eh
Total entropy correction          ...     -0.03927529 Eh    -24.65 kcal/mol
-----------------------------------------------------------------------
Final Gibbs free enthalpy         ...   -362.96277199 Eh

For completeness - the Gibbs free enthalpy minus the electronic energy
G-E(el)                           ...      0.12207135 Eh     76.60 kcal/mol

                             ****ORCA TERMINATED NORMALLY****
TOTAL RUN TIME: 0 days 0 hours 34 minutes 57 seconds 664 msec
