                         Program Version 3.0.3 - RELEASE   -
|  1> ! NORI PBE0 def2-TZVP UseSym TightOPT Freq TightSCF Grid3 FinalGrid5 XYZFile
|  2> % pal
|  3>     nprocs 8
|  4> end
|  5> %method
|  6>     SymThresh 5.0e-2
|  7> end
|  8> % geom
|  9>     MaxIter 10
| 10> end
| 11> % maxcore 2000
| 12> % output
| 13>     printlevel mini
| 14>     print[ P_Basis ] 0
| 15>     print[ P_SCFInfo ] 1
| 16>     print[ P_SCFIterInfo ] 1
| 17>     print[ P_OrbEn ] 0
| 18>     print[ P_Cartesian ] 0
| 19> end
| 20> % elprop
| 21>     Dipole false
| 22> end
| 23> *xyz 1 1
| 24>  N        1.0210136273    -0.1356462011    -0.2801417220
| 25>  C        2.4894124989    -0.0803641600    -0.1688562401
| 26>  C        3.2001827128    -0.8241774472    -1.2549828815
| 27>  O        2.3052861290    -1.4275831731    -2.1300398676
| 28>  C        3.2327390281     0.6738611544    -1.2253312520
| 29>  C        4.4361578958     1.4533014489    -0.7827098203
| 30>  O        3.9485433352     2.5351067376    -0.0286534940
| 31>  H        0.5905386288     0.7887707179    -0.2165554534
| 32>  H        0.6109956981    -0.7337718635     0.4397524319
| 33>  H        0.8098412193    -0.5593023793    -1.1992096660
| 34>  H        2.8426431969    -0.0748308489     0.8528973028
| 35>  H        4.0798804909    -1.4027544728    -0.9910218365
| 36>  H        2.6748556924    -1.4743774877    -3.0181188004
| 37>  H        2.6191574130     1.1574043581    -1.9819253203
| 38>  H        4.9964561770     1.7831801686    -1.6652551176
| 39>  H        5.1006339652     0.8107820102    -0.1874692777
| 40>  H        4.6699522912     3.1344214379     0.1829810146
| 41> *
| 42>
| 43>                          ****END OF INPUT****
 Total Charge           Charge          ....    1
 Multiplicity           Mult            ....    1
 Number of Electrons    NEL             ....   56
FINAL SINGLE POINT ENERGY      -363.096861613873

CARTESIAN COORDINATES (ANGSTROEM)
---------------------------------
  N     -1.533674   -1.213855    0.554978
  C     -0.893776    0.013492    0.048807
  C     -0.008132    0.682958    1.051590
  O     -0.000430   -0.000183    2.261511
  C      0.590523   -0.008697   -0.135492
  C      1.137949    0.734106   -1.318936
  O      0.755161    0.000430   -2.455356
  H     -1.415540   -2.005016   -0.080677
  H     -2.532797   -1.077262    0.719673
  H     -1.090651   -1.424491    1.464920
  H     -1.517744    0.572776   -0.634207
  H     -0.025809    1.766806    1.110520
  H      0.849213    0.098409    2.703951
  H      1.081327   -0.953077    0.087429
  H      2.227226    0.811080   -1.223737
  H      0.732759    1.755814   -1.340099
  H      1.178386    0.367926   -3.236483

FINAL SINGLE POINT ENERGY      -363.096862218092
                    ***********************HURRAY********************
 Multiplicity           Mult            ....    1
 Number of Electrons    NEL             ....   56
 Basis Dimension        Dim             ....  277
FINAL SINGLE POINT ENERGY      -363.096862821523

VIBRATIONAL FREQUENCIES
-----------------------

   0:         0.00 cm**-1
   1:         0.00 cm**-1
   2:         0.00 cm**-1
   3:         0.00 cm**-1
   4:         0.00 cm**-1
   5:         0.00 cm**-1
   6:        83.95 cm**-1
   7:       141.35 cm**-1
   8:       230.06 cm**-1
   9:       251.42 cm**-1
  10:       286.69 cm**-1
  11:       305.35 cm**-1
  12:       320.90 cm**-1
  13:       342.19 cm**-1
  14:       413.01 cm**-1
  15:       521.14 cm**-1
  16:       618.97 cm**-1
  17:       836.26 cm**-1
  18:       859.46 cm**-1
  19:       933.00 cm**-1
  20:       983.38 cm**-1
  21:      1010.44 cm**-1
  22:      1053.08 cm**-1
  23:      1089.74 cm**-1
  24:      1102.92 cm**-1
  25:      1122.49 cm**-1
  26:      1168.17 cm**-1
  27:      1178.79 cm**-1
  28:      1187.25 cm**-1
  29:      1227.11 cm**-1
  30:      1246.60 cm**-1
  31:      1271.55 cm**-1
  32:      1274.65 cm**-1
  33:      1337.29 cm**-1
  34:      1372.63 cm**-1
  35:      1453.50 cm**-1
  36:      1486.20 cm**-1
  37:      1507.59 cm**-1
  38:      1517.34 cm**-1
  39:      1645.96 cm**-1
  40:      1661.07 cm**-1
  41:      3007.27 cm**-1
  42:      3062.19 cm**-1
  43:      3158.17 cm**-1
  44:      3174.16 cm**-1
  45:      3230.68 cm**-1
  46:      3294.67 cm**-1
  47:      3458.92 cm**-1
  48:      3507.59 cm**-1
  49:      3841.77 cm**-1
  50:      3862.57 cm**-1

IR SPECTRUM
-----------

 Mode    freq (cm**-1)   T**2         TX         TY         TZ
-------------------------------------------------------------------
   6:        83.95    6.666649  ( -2.092508   1.375792   0.628694)
   7:       141.35   12.345337  (  0.279442   0.541892  -3.460289)
   8:       230.06    4.439769  ( -0.354546   1.899151   0.841007)
   9:       251.42   39.055631  (  4.883282  -3.817138  -0.799156)
  10:       286.69   59.832480  ( -6.000617   0.015418  -4.881070)
  11:       305.35   67.333240  ( -4.843958   6.547613   0.999036)
  12:       320.90   35.924010  ( -0.771114   3.547651   4.769022)
  13:       342.19  101.194185  ( -6.088834   6.778687   4.262592)
  14:       413.01   12.282654  ( -1.073712  -2.968615  -1.522210)
  15:       521.14   15.176301  (  0.805494   1.789460   3.365311)
  16:       618.97   15.209666  ( -0.106883  -3.694668   1.244053)
  17:       836.26    8.051783  ( -2.784563   0.207094  -0.505079)
  18:       859.46   15.226791  ( -3.729481  -0.654729   0.942915)
  19:       933.00   65.070113  ( -0.487343  -1.423969  -7.924956)
  20:       983.38    5.619523  (  1.976001   0.414382   1.242269)
  21:      1010.44    8.743950  (  2.870129  -0.669088   0.242134)
  22:      1053.08    1.397052  (  0.151666   0.838852   0.818765)
  23:      1089.74   41.827315  (  0.535513  -0.681747   6.409038)
  24:      1102.92   37.880049  (  0.778579   3.087763   5.266838)
  25:      1122.49   23.018941  (  0.486348   2.423845   4.111859)
  26:      1168.17   20.298409  ( -1.717218   0.107251  -4.163900)
  27:      1178.79   19.001522  (  1.646402   1.975938   3.519454)
  28:      1187.25   24.860194  (  1.407395  -4.109421   2.447875)
  29:      1227.11   49.027413  ( -0.851399   0.014552   6.949987)
  30:      1246.60   52.091598  (  2.044275   2.651232   6.394021)
  31:      1271.55   36.953928  ( -1.825008  -2.653287   5.155904)
  32:      1274.65   30.845669  (  1.489684   5.113027  -1.575902)
  33:      1337.29    8.595841  ( -0.282498  -1.409874  -2.555052)
  34:      1372.63   11.250061  ( -1.846573   0.830036  -2.674185)
  35:      1453.50    2.948945  ( -1.524786  -0.188027   0.767215)
  36:      1486.20  162.152059  (  6.154722  10.159564  -4.588541)
  37:      1507.59   26.453518  (  0.347259   5.016144   1.082232)
  38:      1517.34    4.369349  ( -0.642721  -1.056742   1.685098)
  39:      1645.96   26.456333  (  4.569080  -0.152877   2.357217)
  40:      1661.07   34.813899  (  1.933701  -2.661144  -4.898266)
  41:      3007.27   33.121680  (  0.405471   5.355635   2.067473)
  42:      3062.19   18.089536  ( -4.185737   0.515859  -0.550481)
  43:      3158.17    2.076664  (  0.597839   0.740793  -1.081887)
  44:      3174.16    2.249336  ( -0.094156   1.112628  -1.001265)
  45:      3230.68    0.586314  ( -0.479466   0.548588  -0.235536)
  46:      3294.67  116.001623  ( -4.768390   0.621585  -9.637308)
  47:      3458.92  103.851724  ( -7.551063  -4.517104  -5.140909)
  48:      3507.59  100.249840  ( -6.939410   5.434697   4.749578)
  49:      3841.77  130.359057  ( -7.992415  -0.399757  -8.143744)
  50:      3862.57   84.723829  (  3.006812   1.579866  -8.554936)

--------------------------
THERMOCHEMISTRY AT 298.15K
--------------------------

Temperature         ... 298.15 K
Pressure            ... 1.00 atm
Total Mass          ... 104.13 AMU

Throughout the following assumptions are being made:
  (1) The electronic state is orbitally nondegenerate
  (2) There are no thermally accessible electronically excited states
  (3) Hindered rotations indicated by low frequency modes) are not
      treated as such but are treated as vibrations and this may
      case some error
  (4) All equations used are the standard statistical mechanics
      equations for an ideal gas
  (5) All vibrations are strinctly harmonic

------------
INNER ENERGY
------------

The inner energy is: U= E(el) + E(ZPE) + E(vib) + E(rot) + E(trans)
    E(el)   - is the total energy from the electronic structure calculation
              = E(kin-el) + E(nuc-el) + E(el-el) + E(nuc-nuc)
    E(ZPE)  - the the zero temperature vibrational energy from the frequency calculation
    E(vib)  - the the finite temperature correction to E(ZPE) due to population
              of excietd vibrational states
    E(rot)  - is the rotational thermal energy
    E(trans)- is the translational thermal energy

Summary of contributions to the inner energy U:
Electronic energy                ...   -363.09686282 Eh
Zero point energy                ...      0.15181592 Eh      95.27 kcal/mol
Thermal vibrational correction   ...      0.00520465 Eh       3.27 kcal/mol
Thermal rotational correction    ...      0.00141627 Eh       0.89 kcal/mol
Thermal translational correction ...      0.00141627 Eh       0.89 kcal/mol
-----------------------------------------------------------------------
Total thermal energy                   -362.93700971 Eh

Summary of corrections to the electronic energy:
(perhaps to be used in another calculation)
Total thermal correction                  0.00803719 Eh       5.04 kcal/mol
Non-thermal (ZPE) correction              0.15181592 Eh      95.27 kcal/mol
-----------------------------------------------------------------------
Total correction                          0.15985311 Eh     100.31 kcal/mol

--------
ENTHALPY
--------

The enthalpy is H = U + kB*T
                kB is Boltzmann's constant
Total free energy                 ...   -362.93700971 Eh
Thermal Enthalpy correction       ...      0.00094421 Eh       0.59 kcal/mol
-----------------------------------------------------------------------
Total Enthalpy                    ...   -362.93606550 Eh

-------
ENTROPY
-------

The entropy contributions are T*S = T*(S(el)+S(vib)+S(rot)+S(trans)
     S(el)   - electronic entropy
     S(vib)  - vibrational entropy
     S(rot)  - rotational entropy
     S(trans)- translational entropy
The entropies will be listed as mutliplied by the temperature to get
units of energy

Electronic entropy                ...      0.00000000 Eh      0.00 kcal/mol
Vibrational entropy               ...      0.00893199 Eh      5.60 kcal/mol
Rotational entropy                ...      0.01215296 Eh      7.63 kcal/mol
Translational entropy             ...      0.01892854 Eh     11.88 kcal/mol
-----------------------------------------------------------------------
Final entropy term                ...      0.04001350 Eh     25.11 kcal/mol

CAUTION: The rotational entropy is not quite correctly treated here
         because it includes a symmetry number that is not yet correctly
         implemented in ORCA!
For a nonlinear molecule the correct rotational entropy is:
    S(rot) = R*(ln(qrot/sn)+1.5)
    R    = 8.31441 J/mol/K = 1.987191683e-3 kcal/mol/K
    qrot = 260419.1557992
    sn is the rotational symmetry number. We have assumed 3 here
       if it is different for your molecule then you should correct
       the printed rotational entropy by manually evaluating the equation
       as given above

For convenience we print out the resulting values for sn=1 - 12:
 sn= 1  qrot/sn=  260419.1558 T*S(rot)=     8.28 kcal/mol T*S(tot)=    25.76 kcal/mol
 sn= 2  qrot/sn=  130209.5779 T*S(rot)=     7.87 kcal/mol T*S(tot)=    25.35 kcal/mol
 sn= 3  qrot/sn=   86806.3853 T*S(rot)=     7.63 kcal/mol T*S(tot)=    25.11 kcal/mol
 sn= 4  qrot/sn=   65104.7889 T*S(rot)=     7.46 kcal/mol T*S(tot)=    24.94 kcal/mol
 sn= 5  qrot/sn=   52083.8312 T*S(rot)=     7.32 kcal/mol T*S(tot)=    24.81 kcal/mol
 sn= 6  qrot/sn=   43403.1926 T*S(rot)=     7.22 kcal/mol T*S(tot)=    24.70 kcal/mol
 sn= 7  qrot/sn=   37202.7365 T*S(rot)=     7.12 kcal/mol T*S(tot)=    24.61 kcal/mol
 sn= 8  qrot/sn=   32552.3945 T*S(rot)=     7.04 kcal/mol T*S(tot)=    24.53 kcal/mol
 sn= 9  qrot/sn=   28935.4618 T*S(rot)=     6.98 kcal/mol T*S(tot)=    24.46 kcal/mol
 sn=10  qrot/sn=   26041.9156 T*S(rot)=     6.91 kcal/mol T*S(tot)=    24.40 kcal/mol
 sn=11  qrot/sn=   23674.4687 T*S(rot)=     6.86 kcal/mol T*S(tot)=    24.34 kcal/mol
 sn=12  qrot/sn=   21701.5963 T*S(rot)=     6.80 kcal/mol T*S(tot)=    24.29 kcal/mol

-------------------
GIBBS FREE ENTHALPY
-------------------

The Gibbs free enthalpy is G = H - T*S

Total enthalpy                    ...   -362.93606550 Eh
Total entropy correction          ...     -0.04001350 Eh    -25.11 kcal/mol
-----------------------------------------------------------------------
Final Gibbs free enthalpy         ...   -362.97607900 Eh

For completeness - the Gibbs free enthalpy minus the electronic energy
G-E(el)                           ...      0.12078382 Eh     75.79 kcal/mol

                             ****ORCA TERMINATED NORMALLY****
TOTAL RUN TIME: 0 days 0 hours 32 minutes 22 seconds 165 msec
