                         Program Version 3.0.3 - RELEASE   -
|  1> ! NORI PBE0 def2-TZVP UseSym TightOPT Freq TightSCF Grid3 FinalGrid5 XYZFile
|  2> % pal
|  3>     nprocs 8
|  4> end
|  5> %method
|  6>     SymThresh 5.0e-2
|  7> end
|  8> % geom
|  9>     MaxIter 10
| 10> end
| 11> % maxcore 2000
| 12> % output
| 13>     printlevel mini
| 14>     print[ P_Basis ] 0
| 15>     print[ P_SCFInfo ] 1
| 16>     print[ P_SCFIterInfo ] 1
| 17>     print[ P_OrbEn ] 0
| 18>     print[ P_Cartesian ] 0
| 19> end
| 20> % elprop
| 21>     Dipole false
| 22> end
| 23> *xyz 1 1
| 24>  N        0.9202445488     0.0378316193     0.1573446022
| 25>  C        2.4145713937    -0.1201856814    -0.0540303667
| 26>  C        2.7369261014    -1.5700690587    -0.4065492603
| 27>  O        2.5809510663    -1.6252042966    -1.8074016187
| 28>  C        3.0929450478    -0.4246800470    -2.3269178861
| 29>  C        2.0638005607     0.6143110891    -2.5505509598
| 30>  C        2.8875676996     0.6319948552    -1.2755565823
| 31>  H        0.6568844960     1.0242176412     0.1969418357
| 32>  H        0.6068946815    -0.4158723001     1.0173368177
| 33>  H        0.4189298610    -0.3861614830    -0.6273254214
| 34>  H        2.8847036912     0.2284373810     0.8650509663
| 35>  H        3.7699233580    -1.7794307356    -0.1059458866
| 36>  H        2.0853587169    -2.3188981715     0.0519801781
| 37>  H        3.9922208984    -0.5073743364    -2.9252438602
| 38>  H        1.0291827817     0.2882042661    -2.5562848825
| 39>  H        2.2769803105     1.4149794621    -3.2482726378
| 40>  H        3.5863447863     1.4441897963    -1.1286850377
| 41> *
| 42>
| 43>                          ****END OF INPUT****
 Total Charge           Charge          ....    1
 Multiplicity           Mult            ....    1
 Number of Electrons    NEL             ....   54
FINAL SINGLE POINT ENERGY      -325.980293538871
FINAL SINGLE POINT ENERGY      -325.980295613083

CARTESIAN COORDINATES (ANGSTROEM)
---------------------------------
  N      1.567274   -0.001543   -1.192330
  C      0.366031   -0.791634   -0.705409
  C      0.531855   -1.123011    0.775440
  O      0.000531    0.001908    1.439716
  C     -1.134106    0.408720    0.718293
  C     -0.863337    1.486817   -0.257526
  C     -0.894250    0.041454   -0.720923
  H      1.391258    0.405778   -2.112804
  H      2.406604   -0.581136   -1.249412
  H      1.754770    0.766590   -0.542914
  H      0.302140   -1.666572   -1.352129
  H     -0.041430   -2.031364    0.995178
  H      1.562454   -1.276306    1.108056
  H     -2.087731    0.285329    1.216883
  H      0.068344    2.030179   -0.142334
  H     -1.689387    2.097982   -0.598963
  H     -1.694753   -0.267462   -1.378865

FINAL SINGLE POINT ENERGY      -325.980296465330
                    ***********************HURRAY********************
 Multiplicity           Mult            ....    1
 Number of Electrons    NEL             ....   54
 Basis Dimension        Dim             ....  277
FINAL SINGLE POINT ENERGY      -325.980296921901

VIBRATIONAL FREQUENCIES
-----------------------

   0:         0.00 cm**-1
   1:         0.00 cm**-1
   2:         0.00 cm**-1
   3:         0.00 cm**-1
   4:         0.00 cm**-1
   5:         0.00 cm**-1
   6:       107.97 cm**-1
   7:       218.46 cm**-1
   8:       248.50 cm**-1
   9:       384.13 cm**-1
  10:       399.62 cm**-1
  11:       502.83 cm**-1
  12:       686.55 cm**-1
  13:       727.50 cm**-1
  14:       764.75 cm**-1
  15:       816.15 cm**-1
  16:       831.02 cm**-1
  17:       911.13 cm**-1
  18:       938.83 cm**-1
  19:       966.17 cm**-1
  20:       992.45 cm**-1
  21:      1036.07 cm**-1
  22:      1044.19 cm**-1
  23:      1054.26 cm**-1
  24:      1079.95 cm**-1
  25:      1112.84 cm**-1
  26:      1120.33 cm**-1
  27:      1142.74 cm**-1
  28:      1174.75 cm**-1
  29:      1210.52 cm**-1
  30:      1259.55 cm**-1
  31:      1304.14 cm**-1
  32:      1326.95 cm**-1
  33:      1381.35 cm**-1
  34:      1392.10 cm**-1
  35:      1407.29 cm**-1
  36:      1476.35 cm**-1
  37:      1490.59 cm**-1
  38:      1502.45 cm**-1
  39:      1649.35 cm**-1
  40:      1654.95 cm**-1
  41:      3046.39 cm**-1
  42:      3108.52 cm**-1
  43:      3137.99 cm**-1
  44:      3148.36 cm**-1
  45:      3206.59 cm**-1
  46:      3222.64 cm**-1
  47:      3241.73 cm**-1
  48:      3416.24 cm**-1
  49:      3498.03 cm**-1
  50:      3515.86 cm**-1

IR SPECTRUM
-----------

 Mode    freq (cm**-1)   T**2         TX         TY         TZ
-------------------------------------------------------------------
   6:       107.97   15.178862  (  1.881812  -0.176807  -3.406815)
   7:       218.46    1.673939  ( -0.603657  -0.644523   0.945583)
   8:       248.50    9.436413  ( -1.859634   2.383402  -0.545499)
   9:       384.13    3.108709  ( -1.275450   0.190590  -1.202336)
  10:       399.62   17.204178  ( -2.868916  -0.473136   2.957979)
  11:       502.83    0.930884  (  0.842273  -0.469902   0.025528)
  12:       686.55    1.413972  (  0.688916   0.267934   0.931439)
  13:       727.50    2.999141  ( -0.677294   1.067330  -1.183732)
  14:       764.75   19.343509  (  0.925260  -1.875825  -3.868938)
  15:       816.15    6.296846  ( -0.660508   2.404800   0.278406)
  16:       831.02    7.936107  (  1.918295   1.661755   1.222630)
  17:       911.13   13.059623  (  1.720330  -1.869193   2.570253)
  18:       938.83    9.172142  ( -2.424822  -0.392711  -1.771485)
  19:       966.17    2.369365  (  0.631445   0.906595   1.071787)
  20:       992.45    5.650330  (  0.486791  -1.001022  -2.100314)
  21:      1036.07   23.150429  (  0.436377  -1.701789  -4.479277)
  22:      1044.19   11.062797  ( -2.430627  -0.489452   2.217045)
  23:      1054.26   17.512944  (  1.279401  -1.849252  -3.529355)
  24:      1079.95   10.520704  (  0.845663  -3.088722   0.515125)
  25:      1112.84    1.642327  ( -0.831127  -0.861403   0.457754)
  26:      1120.33   11.153028  ( -0.991868   3.163712  -0.400192)
  27:      1142.74    7.178210  ( -1.851181   1.928432  -0.180252)
  28:      1174.75   86.820566  (  6.769849  -6.349984   0.816960)
  29:      1210.52   14.194439  (  1.052841  -2.683106   2.426295)
  30:      1259.55    5.014588  ( -2.045234  -0.454742  -0.790453)
  31:      1304.14    5.420434  ( -0.347990   0.963209  -2.090829)
  32:      1326.95    7.775827  ( -2.068918   1.790398   0.538404)
  33:      1381.35    0.766844  (  0.306779  -0.703107   0.422341)
  34:      1392.10   13.030296  ( -0.963091   0.936124   3.350586)
  35:      1407.29   19.137225  (  2.999830  -1.400619  -2.859459)
  36:      1476.35   11.798050  ( -3.422851  -0.261638  -0.117000)
  37:      1490.59  154.654891  (  9.304358   6.796292  -4.679127)
  38:      1502.45   11.774824  (  3.258686   0.113921   1.069023)
  39:      1649.35   47.000243  (  1.622708   2.217373   6.280949)
  40:      1654.95   36.544661  (  4.273813  -4.275031  -0.057393)
  41:      3046.39   17.610825  ( -1.644917   3.857873  -0.147946)
  42:      3108.52    8.459782  (  2.901992  -0.061567   0.185568)
  43:      3137.99    1.352876  ( -0.592484   0.786590   0.618963)
  44:      3148.36    5.047735  ( -2.180000  -0.542982   0.022462)
  45:      3206.59    1.066697  ( -0.913756   0.420333  -0.234663)
  46:      3222.64    0.823713  (  0.836892   0.273734   0.219986)
  47:      3241.73    0.660530  ( -0.349950  -0.630104   0.375544)
  48:      3416.24   30.865264  ( -4.340481  -2.999237   1.740708)
  49:      3498.03   96.837736  (  2.357565  -4.430487  -8.464656)
  50:      3515.86   88.106322  ( -5.802144   5.803223  -4.556758)

--------------------------
THERMOCHEMISTRY AT 298.15K
--------------------------

Temperature         ... 298.15 K
Pressure            ... 1.00 atm
Total Mass          ... 100.14 AMU

Throughout the following assumptions are being made:
  (1) The electronic state is orbitally nondegenerate
  (2) There are no thermally accessible electronically excited states
  (3) Hindered rotations indicated by low frequency modes) are not
      treated as such but are treated as vibrations and this may
      case some error
  (4) All equations used are the standard statistical mechanics
      equations for an ideal gas
  (5) All vibrations are strinctly harmonic

------------
INNER ENERGY
------------

The inner energy is: U= E(el) + E(ZPE) + E(vib) + E(rot) + E(trans)
    E(el)   - is the total energy from the electronic structure calculation
              = E(kin-el) + E(nuc-el) + E(el-el) + E(nuc-nuc)
    E(ZPE)  - the the zero temperature vibrational energy from the frequency calculation
    E(vib)  - the the finite temperature correction to E(ZPE) due to population
              of excietd vibrational states
    E(rot)  - is the rotational thermal energy
    E(trans)- is the translational thermal energy

Summary of contributions to the inner energy U:
Electronic energy                ...   -325.98029692 Eh
Zero point energy                ...      0.15459448 Eh      97.01 kcal/mol
Thermal vibrational correction   ...      0.00352903 Eh       2.21 kcal/mol
Thermal rotational correction    ...      0.00141627 Eh       0.89 kcal/mol
Thermal translational correction ...      0.00141627 Eh       0.89 kcal/mol
-----------------------------------------------------------------------
Total thermal energy                   -325.81934087 Eh

Summary of corrections to the electronic energy:
(perhaps to be used in another calculation)
Total thermal correction                  0.00636157 Eh       3.99 kcal/mol
Non-thermal (ZPE) correction              0.15459448 Eh      97.01 kcal/mol
-----------------------------------------------------------------------
Total correction                          0.16095605 Eh     101.00 kcal/mol

--------
ENTHALPY
--------

The enthalpy is H = U + kB*T
                kB is Boltzmann's constant
Total free energy                 ...   -325.81934087 Eh
Thermal Enthalpy correction       ...      0.00094421 Eh       0.59 kcal/mol
-----------------------------------------------------------------------
Total Enthalpy                    ...   -325.81839666 Eh

-------
ENTROPY
-------

The entropy contributions are T*S = T*(S(el)+S(vib)+S(rot)+S(trans)
     S(el)   - electronic entropy
     S(vib)  - vibrational entropy
     S(rot)  - rotational entropy
     S(trans)- translational entropy
The entropies will be listed as mutliplied by the temperature to get
units of energy

Electronic entropy                ...      0.00000000 Eh      0.00 kcal/mol
Vibrational entropy               ...      0.00573545 Eh      3.60 kcal/mol
Rotational entropy                ...      0.01173687 Eh      7.36 kcal/mol
Translational entropy             ...      0.01887324 Eh     11.84 kcal/mol
-----------------------------------------------------------------------
Final entropy term                ...      0.03634555 Eh     22.81 kcal/mol

CAUTION: The rotational entropy is not quite correctly treated here
         because it includes a symmetry number that is not yet correctly
         implemented in ORCA!
For a nonlinear molecule the correct rotational entropy is:
    S(rot) = R*(ln(qrot/sn)+1.5)
    R    = 8.31441 J/mol/K = 1.987191683e-3 kcal/mol/K
    qrot = 167602.4032565
    sn is the rotational symmetry number. We have assumed 3 here
       if it is different for your molecule then you should correct
       the printed rotational entropy by manually evaluating the equation
       as given above

For convenience we print out the resulting values for sn=1 - 12:
 sn= 1  qrot/sn=  167602.4033 T*S(rot)=     8.02 kcal/mol T*S(tot)=    23.46 kcal/mol
 sn= 2  qrot/sn=   83801.2016 T*S(rot)=     7.61 kcal/mol T*S(tot)=    23.05 kcal/mol
 sn= 3  qrot/sn=   55867.4678 T*S(rot)=     7.36 kcal/mol T*S(tot)=    22.81 kcal/mol
 sn= 4  qrot/sn=   41900.6008 T*S(rot)=     7.19 kcal/mol T*S(tot)=    22.64 kcal/mol
 sn= 5  qrot/sn=   33520.4807 T*S(rot)=     7.06 kcal/mol T*S(tot)=    22.50 kcal/mol
 sn= 6  qrot/sn=   27933.7339 T*S(rot)=     6.95 kcal/mol T*S(tot)=    22.40 kcal/mol
 sn= 7  qrot/sn=   23943.2005 T*S(rot)=     6.86 kcal/mol T*S(tot)=    22.31 kcal/mol
 sn= 8  qrot/sn=   20950.3004 T*S(rot)=     6.78 kcal/mol T*S(tot)=    22.23 kcal/mol
 sn= 9  qrot/sn=   18622.4893 T*S(rot)=     6.71 kcal/mol T*S(tot)=    22.16 kcal/mol
 sn=10  qrot/sn=   16760.2403 T*S(rot)=     6.65 kcal/mol T*S(tot)=    22.09 kcal/mol
 sn=11  qrot/sn=   15236.5821 T*S(rot)=     6.60 kcal/mol T*S(tot)=    22.04 kcal/mol
 sn=12  qrot/sn=   13966.8669 T*S(rot)=     6.54 kcal/mol T*S(tot)=    21.99 kcal/mol

-------------------
GIBBS FREE ENTHALPY
-------------------

The Gibbs free enthalpy is G = H - T*S

Total enthalpy                    ...   -325.81839666 Eh
Total entropy correction          ...     -0.03634555 Eh    -22.81 kcal/mol
-----------------------------------------------------------------------
Final Gibbs free enthalpy         ...   -325.85474221 Eh

For completeness - the Gibbs free enthalpy minus the electronic energy
G-E(el)                           ...      0.12555471 Eh     78.79 kcal/mol

                             ****ORCA TERMINATED NORMALLY****
TOTAL RUN TIME: 0 days 0 hours 39 minutes 45 seconds 270 msec
