                         Program Version 3.0.3 - RELEASE   -
|  1> ! NORI PBE0 def2-TZVP UseSym TightOPT Freq TightSCF Grid3 FinalGrid5 XYZFile
|  2> % pal
|  3>     nprocs 8
|  4> end
|  5> %method
|  6>     SymThresh 5.0e-2
|  7> end
|  8> % geom
|  9>     MaxIter 10
| 10> end
| 11> % maxcore 2000
| 12> % output
| 13>     printlevel mini
| 14>     print[ P_Basis ] 0
| 15>     print[ P_SCFInfo ] 1
| 16>     print[ P_SCFIterInfo ] 1
| 17>     print[ P_OrbEn ] 0
| 18>     print[ P_Cartesian ] 0
| 19> end
| 20> % elprop
| 21>     Dipole false
| 22> end
| 23> *xyz 1 1
| 24>  N        0.9620116471     0.0604665625     0.2358687381
| 25>  C        2.4596188006     0.0181562091     0.0815973966
| 26>  C        3.1492248852     1.1434325117     0.8644353455
| 27>  O        4.3738526644     0.5916209733     1.2323805548
| 28>  C        4.1357194019    -0.7487835364     1.6258553590
| 29>  C        3.0388106863    -1.2266278803     0.7086174810
| 30>  C        2.6495724264    -2.4678115608     0.4635945095
| 31>  H        0.5246523858    -0.7349420398    -0.2340232336
| 32>  H        0.5596734638     0.9165782062    -0.1541883265
| 33>  H        0.7065057439     0.0067315286     1.2253528437
| 34>  H        2.6548647967     0.0806874132    -0.9910244112
| 35>  H        2.5421721813     1.4142747918     1.7478702571
| 36>  H        3.3308807096     2.0442356002     0.2777273278
| 37>  H        5.0639442840    -1.3089370764     1.5161536752
| 38>  H        3.8215631091    -0.7931844091     2.6787058789
| 39>  H        1.8701418285    -2.7098725021    -0.2539657241
| 40>  H        3.1108209855    -3.3136347915     0.9594523283
| 41> *
| 42>
| 43>                          ****END OF INPUT****
 Total Charge           Charge          ....    1
 Multiplicity           Mult            ....    1
 Number of Electrons    NEL             ....   54
FINAL SINGLE POINT ENERGY      -325.982928264584
FINAL SINGLE POINT ENERGY      -325.982929280704

CARTESIAN COORDINATES (ANGSTROEM)
---------------------------------
  N      1.397368    0.000009   -1.526181
  C      0.590430   -0.545738   -0.376811
  C      1.132995   -0.073920    0.978991
  O     -0.000447   -0.000983    1.784375
  C     -1.042284    0.556513    1.002360
  C     -0.813311    0.009048   -0.383789
  C     -1.649076   -0.014616   -1.409889
  H      0.979957   -0.262737   -2.421435
  H      2.361536   -0.342195   -1.515151
  H      1.418608    1.022597   -1.489120
  H      0.616526   -1.632694   -0.477874
  H      1.616913    0.913830    0.865391
  H      1.846082   -0.761057    1.434871
  H     -1.995796    0.252937    1.433382
  H     -0.987242    1.654549    1.010398
  H     -1.400303   -0.473945   -2.362531
  H     -2.643011    0.411880   -1.339384

FINAL SINGLE POINT ENERGY      -325.982930026304
                    ***********************HURRAY********************
 Multiplicity           Mult            ....    1
 Number of Electrons    NEL             ....   54
 Basis Dimension        Dim             ....  277
FINAL SINGLE POINT ENERGY      -325.982930127337

VIBRATIONAL FREQUENCIES
-----------------------

   0:         0.00 cm**-1
   1:         0.00 cm**-1
   2:         0.00 cm**-1
   3:         0.00 cm**-1
   4:         0.00 cm**-1
   5:         0.00 cm**-1
   6:        47.21 cm**-1
   7:       180.77 cm**-1
   8:       214.48 cm**-1
   9:       251.75 cm**-1
  10:       348.04 cm**-1
  11:       387.68 cm**-1
  12:       529.90 cm**-1
  13:       568.43 cm**-1
  14:       667.53 cm**-1
  15:       697.26 cm**-1
  16:       798.24 cm**-1
  17:       900.18 cm**-1
  18:       936.16 cm**-1
  19:       966.98 cm**-1
  20:       979.25 cm**-1
  21:       982.74 cm**-1
  22:      1014.10 cm**-1
  23:      1035.89 cm**-1
  24:      1109.51 cm**-1
  25:      1160.64 cm**-1
  26:      1168.66 cm**-1
  27:      1222.95 cm**-1
  28:      1268.36 cm**-1
  29:      1279.92 cm**-1
  30:      1305.47 cm**-1
  31:      1344.78 cm**-1
  32:      1376.61 cm**-1
  33:      1412.43 cm**-1
  34:      1458.67 cm**-1
  35:      1490.27 cm**-1
  36:      1499.71 cm**-1
  37:      1511.39 cm**-1
  38:      1643.26 cm**-1
  39:      1653.26 cm**-1
  40:      1750.89 cm**-1
  41:      2944.72 cm**-1
  42:      3012.31 cm**-1
  43:      3108.59 cm**-1
  44:      3137.56 cm**-1
  45:      3142.63 cm**-1
  46:      3150.22 cm**-1
  47:      3240.40 cm**-1
  48:      3409.76 cm**-1
  49:      3492.78 cm**-1
  50:      3500.70 cm**-1

IR SPECTRUM
-----------

 Mode    freq (cm**-1)   T**2         TX         TY         TZ
-------------------------------------------------------------------
   6:        47.21    3.133839  (  0.483408   1.671053   0.328235)
   7:       180.77    0.422328  (  0.394010   0.320727  -0.405239)
   8:       214.48    6.406135  ( -2.440831  -0.667651  -0.052185)
   9:       251.75    8.639970  (  2.095465  -2.060507  -0.057524)
  10:       348.04    7.641776  (  0.485858   2.361085   1.353142)
  11:       387.68    6.828453  (  0.955173  -0.612553  -2.353907)
  12:       529.90   14.480318  ( -2.776851  -1.457250   2.155421)
  13:       568.43    3.090587  ( -0.056127  -0.431234   1.703371)
  14:       667.53    9.350993  (  1.947429   1.264679   1.989749)
  15:       697.26    1.457856  ( -0.192749  -0.920721  -0.756952)
  16:       798.24    9.069797  (  1.451994  -1.252605  -2.322174)
  17:       900.18   10.305191  (  1.660738   0.307803   2.729908)
  18:       936.16   15.478314  (  1.887863   2.485307   2.395316)
  19:       966.98   20.135020  ( -0.485786  -3.943827   2.084529)
  20:       979.25   24.879101  ( -0.392154  -4.135752   2.760593)
  21:       982.74   13.511480  (  2.577275  -0.768212   2.505790)
  22:      1014.10   23.215798  ( -1.940579  -1.836813   4.009498)
  23:      1035.89    3.969726  ( -1.724970  -0.815073   0.574334)
  24:      1109.51    9.620255  ( -1.365247   2.690679  -0.718749)
  25:      1160.64    6.880728  ( -1.755523   0.634664   1.842842)
  26:      1168.66   86.848639  (  9.088022  -2.062846  -0.034105)
  27:      1222.95    8.197361  (  2.827561  -0.442028  -0.082890)
  28:      1268.36    1.377806  ( -0.887426   0.186199  -0.745394)
  29:      1279.92    2.278241  ( -0.993592  -1.060322   0.408331)
  30:      1305.47    1.815495  ( -1.107401   0.578505   0.504469)
  31:      1344.78    1.627381  (  0.927353  -0.624762   0.614061)
  32:      1376.61   10.987079  (  2.014172  -1.241853  -2.321205)
  33:      1412.43    4.440595  (  1.713550  -1.182737  -0.324768)
  34:      1458.67   20.644748  (  4.271673   0.802411   1.324272)
  35:      1490.27    4.015962  (  0.611674  -1.848684   0.473480)
  36:      1499.71   73.691914  (  3.822414   1.379498  -7.561617)
  37:      1511.39   88.619863  ( -5.089928  -4.429101   6.564721)
  38:      1643.26   40.041582  (  4.866728   0.999748   3.918806)
  39:      1653.26   50.009926  ( -1.722583   6.336155   2.625981)
  40:      1750.89    3.654410  (  0.226066   0.314041   1.872080)
  41:      2944.72   52.046342  ( -5.571060  -4.185503   1.868475)
  42:      3012.31   18.503251  (  1.641066  -3.947855   0.473910)
  43:      3108.59    0.075448  ( -0.116427  -0.173086   0.178700)
  44:      3137.56    4.113214  (  1.778136  -0.961754   0.162705)
  45:      3142.63    0.653035  ( -0.780313  -0.115932  -0.175232)
  46:      3150.22    4.075522  ( -1.467696   0.695575   1.198986)
  47:      3240.40    1.155516  (  0.457784  -0.029793   0.972143)
  48:      3409.76   33.101729  ( -3.810978  -2.002976   3.816578)
  49:      3492.78   84.105485  ( -4.008815   8.066601   1.721871)
  50:      3500.70   75.615323  ( -6.376837  -1.641795  -5.679418)

--------------------------
THERMOCHEMISTRY AT 298.15K
--------------------------

Temperature         ... 298.15 K
Pressure            ... 1.00 atm
Total Mass          ... 100.14 AMU

Throughout the following assumptions are being made:
  (1) The electronic state is orbitally nondegenerate
  (2) There are no thermally accessible electronically excited states
  (3) Hindered rotations indicated by low frequency modes) are not
      treated as such but are treated as vibrations and this may
      case some error
  (4) All equations used are the standard statistical mechanics
      equations for an ideal gas
  (5) All vibrations are strinctly harmonic

------------
INNER ENERGY
------------

The inner energy is: U= E(el) + E(ZPE) + E(vib) + E(rot) + E(trans)
    E(el)   - is the total energy from the electronic structure calculation
              = E(kin-el) + E(nuc-el) + E(el-el) + E(nuc-nuc)
    E(ZPE)  - the the zero temperature vibrational energy from the frequency calculation
    E(vib)  - the the finite temperature correction to E(ZPE) due to population
              of excietd vibrational states
    E(rot)  - is the rotational thermal energy
    E(trans)- is the translational thermal energy

Summary of contributions to the inner energy U:
Electronic energy                ...   -325.98293013 Eh
Zero point energy                ...      0.15332763 Eh      96.21 kcal/mol
Thermal vibrational correction   ...      0.00429499 Eh       2.70 kcal/mol
Thermal rotational correction    ...      0.00141627 Eh       0.89 kcal/mol
Thermal translational correction ...      0.00141627 Eh       0.89 kcal/mol
-----------------------------------------------------------------------
Total thermal energy                   -325.82247496 Eh

Summary of corrections to the electronic energy:
(perhaps to be used in another calculation)
Total thermal correction                  0.00712753 Eh       4.47 kcal/mol
Non-thermal (ZPE) correction              0.15332763 Eh      96.21 kcal/mol
-----------------------------------------------------------------------
Total correction                          0.16045516 Eh     100.69 kcal/mol

--------
ENTHALPY
--------

The enthalpy is H = U + kB*T
                kB is Boltzmann's constant
Total free energy                 ...   -325.82247496 Eh
Thermal Enthalpy correction       ...      0.00094421 Eh       0.59 kcal/mol
-----------------------------------------------------------------------
Total Enthalpy                    ...   -325.82153076 Eh

-------
ENTROPY
-------

The entropy contributions are T*S = T*(S(el)+S(vib)+S(rot)+S(trans)
     S(el)   - electronic entropy
     S(vib)  - vibrational entropy
     S(rot)  - rotational entropy
     S(trans)- translational entropy
The entropies will be listed as mutliplied by the temperature to get
units of energy

Electronic entropy                ...      0.00000000 Eh      0.00 kcal/mol
Vibrational entropy               ...      0.00772741 Eh      4.85 kcal/mol
Rotational entropy                ...      0.01193155 Eh      7.49 kcal/mol
Translational entropy             ...      0.01887324 Eh     11.84 kcal/mol
-----------------------------------------------------------------------
Final entropy term                ...      0.03853220 Eh     24.18 kcal/mol

CAUTION: The rotational entropy is not quite correctly treated here
         because it includes a symmetry number that is not yet correctly
         implemented in ORCA!
For a nonlinear molecule the correct rotational entropy is:
    S(rot) = R*(ln(qrot/sn)+1.5)
    R    = 8.31441 J/mol/K = 1.987191683e-3 kcal/mol/K
    qrot = 205983.0177332
    sn is the rotational symmetry number. We have assumed 3 here
       if it is different for your molecule then you should correct
       the printed rotational entropy by manually evaluating the equation
       as given above

For convenience we print out the resulting values for sn=1 - 12:
 sn= 1  qrot/sn=  205983.0177 T*S(rot)=     8.14 kcal/mol T*S(tot)=    24.83 kcal/mol
 sn= 2  qrot/sn=  102991.5089 T*S(rot)=     7.73 kcal/mol T*S(tot)=    24.42 kcal/mol
 sn= 3  qrot/sn=   68661.0059 T*S(rot)=     7.49 kcal/mol T*S(tot)=    24.18 kcal/mol
 sn= 4  qrot/sn=   51495.7544 T*S(rot)=     7.32 kcal/mol T*S(tot)=    24.01 kcal/mol
 sn= 5  qrot/sn=   41196.6035 T*S(rot)=     7.18 kcal/mol T*S(tot)=    23.88 kcal/mol
 sn= 6  qrot/sn=   34330.5030 T*S(rot)=     7.08 kcal/mol T*S(tot)=    23.77 kcal/mol
 sn= 7  qrot/sn=   29426.1454 T*S(rot)=     6.99 kcal/mol T*S(tot)=    23.68 kcal/mol
 sn= 8  qrot/sn=   25747.8772 T*S(rot)=     6.91 kcal/mol T*S(tot)=    23.60 kcal/mol
 sn= 9  qrot/sn=   22887.0020 T*S(rot)=     6.84 kcal/mol T*S(tot)=    23.53 kcal/mol
 sn=10  qrot/sn=   20598.3018 T*S(rot)=     6.77 kcal/mol T*S(tot)=    23.47 kcal/mol
 sn=11  qrot/sn=   18725.7289 T*S(rot)=     6.72 kcal/mol T*S(tot)=    23.41 kcal/mol
 sn=12  qrot/sn=   17165.2515 T*S(rot)=     6.67 kcal/mol T*S(tot)=    23.36 kcal/mol

-------------------
GIBBS FREE ENTHALPY
-------------------

The Gibbs free enthalpy is G = H - T*S

Total enthalpy                    ...   -325.82153076 Eh
Total entropy correction          ...     -0.03853220 Eh    -24.18 kcal/mol
-----------------------------------------------------------------------
Final Gibbs free enthalpy         ...   -325.86006296 Eh

For completeness - the Gibbs free enthalpy minus the electronic energy
G-E(el)                           ...      0.12286717 Eh     77.10 kcal/mol

                             ****ORCA TERMINATED NORMALLY****
TOTAL RUN TIME: 0 days 0 hours 37 minutes 29 seconds 998 msec
