                         Program Version 3.0.3 - RELEASE   -
|  1> ! NORI PBE0 def2-TZVP UseSym TightOPT Freq TightSCF Grid3 FinalGrid5 XYZFile
|  2> % pal
|  3>     nprocs 8
|  4> end
|  5> %method
|  6>     SymThresh 5.0e-2
|  7> end
|  8> % geom
|  9>     MaxIter 10
| 10> end
| 11> % maxcore 2000
| 12> % output
| 13>     printlevel mini
| 14>     print[ P_Basis ] 0
| 15>     print[ P_SCFInfo ] 1
| 16>     print[ P_SCFIterInfo ] 1
| 17>     print[ P_OrbEn ] 0
| 18>     print[ P_Cartesian ] 0
| 19> end
| 20> % elprop
| 21>     Dipole false
| 22> end
| 23> *xyz 1 1
| 24>  N        1.0161862654    -0.0386434435    -0.1811229871
| 25>  C        2.4772459075     0.0495422419     0.1189344064
| 26>  C        2.8841356862     1.0761027579     1.1570349630
| 27>  O        4.1351370896     0.6082500312     1.5979371237
| 28>  C        4.2774782149    -0.7881784220     1.3622727746
| 29>  C        2.9542722045    -1.2492522194     0.7595748365
| 30>  O        2.9537992375    -2.3321732519    -0.1143442390
| 31>  H        0.8428776109    -0.8938847262    -0.7224606793
| 32>  H        0.6723418995     0.7576403736    -0.7221698555
| 33>  H        0.4655162068    -0.0970064478     0.6796878220
| 34>  H        2.9795161258     0.2115038404    -0.8373257761
| 35>  H        2.1537232592     1.1103524014     1.9831386029
| 36>  H        3.0054788885     2.0872077243     0.7641634928
| 37>  H        5.1014501538    -0.9528082733     0.6558834149
| 38>  H        4.5144787885    -1.2998276914     2.2962874450
| 39>  H        2.2588862290    -1.5109745303     1.5691786000
| 40>  H        3.7997462323    -2.4044103648    -0.5698099449
| 41> *
| 42>
| 43>                          ****END OF INPUT****
 Total Charge           Charge          ....    1
 Multiplicity           Mult            ....    1
 Number of Electrons    NEL             ....   56
FINAL SINGLE POINT ENERGY      -363.106605399286

CARTESIAN COORDINATES (ANGSTROEM)
---------------------------------
  N     -1.507751    0.088598   -1.479992
  C     -0.632140    0.430205   -0.318170
  C     -1.161918    0.051040    1.050450
  O     -0.000048    0.000232    1.841372
  C      1.158769   -0.220764    1.044874
  C      0.659595   -0.376991   -0.388048
  O      1.493495    0.000062   -1.436562
  H     -0.962446    0.190943   -2.343779
  H     -2.331032    0.690355   -1.548117
  H     -1.829404   -0.881699   -1.427195
  H     -0.419840    1.498795   -0.394743
  H     -1.669105   -0.927834    1.017492
  H     -1.849968    0.779843    1.482831
  H      1.825394    0.647320    1.129202
  H      1.691936   -1.102985    1.402186
  H      0.399791   -1.429295   -0.568736
  H      2.100790    0.694340   -1.158100

FINAL SINGLE POINT ENERGY      -363.106606287543
                    ***********************HURRAY********************
 Multiplicity           Mult            ....    1
 Number of Electrons    NEL             ....   56
 Basis Dimension        Dim             ....  277
FINAL SINGLE POINT ENERGY      -363.106606799350

VIBRATIONAL FREQUENCIES
-----------------------

   0:         0.00 cm**-1
   1:         0.00 cm**-1
   2:         0.00 cm**-1
   3:         0.00 cm**-1
   4:         0.00 cm**-1
   5:         0.00 cm**-1
   6:        50.63 cm**-1
   7:       140.65 cm**-1
   8:       206.87 cm**-1
   9:       241.63 cm**-1
  10:       296.36 cm**-1
  11:       334.80 cm**-1
  12:       392.94 cm**-1
  13:       519.38 cm**-1
  14:       556.76 cm**-1
  15:       651.46 cm**-1
  16:       829.78 cm**-1
  17:       928.78 cm**-1
  18:       963.40 cm**-1
  19:       966.28 cm**-1
  20:       997.05 cm**-1
  21:      1040.38 cm**-1
  22:      1082.63 cm**-1
  23:      1148.55 cm**-1
  24:      1159.90 cm**-1
  25:      1171.00 cm**-1
  26:      1184.00 cm**-1
  27:      1222.48 cm**-1
  28:      1235.28 cm**-1
  29:      1298.07 cm**-1
  30:      1323.25 cm**-1
  31:      1355.23 cm**-1
  32:      1368.60 cm**-1
  33:      1391.02 cm**-1
  34:      1420.34 cm**-1
  35:      1442.41 cm**-1
  36:      1499.71 cm**-1
  37:      1516.22 cm**-1
  38:      1523.65 cm**-1
  39:      1652.78 cm**-1
  40:      1658.91 cm**-1
  41:      2974.71 cm**-1
  42:      3023.06 cm**-1
  43:      3035.90 cm**-1
  44:      3109.32 cm**-1
  45:      3120.12 cm**-1
  46:      3124.63 cm**-1
  47:      3391.68 cm**-1
  48:      3468.08 cm**-1
  49:      3501.18 cm**-1
  50:      3829.20 cm**-1

IR SPECTRUM
-----------

 Mode    freq (cm**-1)   T**2         TX         TY         TZ
-------------------------------------------------------------------
   6:        50.63   10.968132  (  1.254167   2.994338  -0.655088)
   7:       140.65    9.355760  ( -2.579437  -1.274005   1.038833)
   8:       206.87    5.848880  ( -2.235369   0.416104   0.823931)
   9:       241.63   26.669348  ( -4.496298   2.528114  -0.247569)
  10:       296.36   79.158298  ( -5.730290   6.130086  -2.957046)
  11:       334.80   20.306092  ( -3.909692   1.720161  -1.435773)
  12:       392.94    7.615998  (  2.222690   0.069401   1.634268)
  13:       519.38    7.135743  ( -0.006133   0.901311  -2.514626)
  14:       556.76    3.572823  ( -0.653851  -0.007776  -1.773483)
  15:       651.46    3.080784  (  0.960708   0.639934   1.322236)
  16:       829.78   14.346089  (  1.448486  -2.231777   2.695765)
  17:       928.78    9.290654  ( -1.937570  -1.342960   1.932080)
  18:       963.40   17.078700  ( -0.415642   0.539103   4.076188)
  19:       966.28    9.858925  ( -1.585582  -0.376852   2.683810)
  20:       997.05    9.044976  ( -1.484379   2.609596   0.177774)
  21:      1040.38   48.442128  (  5.951070   0.762770  -3.527757)
  22:      1082.63   42.145035  ( -0.535475   0.651905   6.436872)
  23:      1148.55  136.329524  (-11.433132   0.555894   2.303041)
  24:      1159.90   34.610561  ( -5.489613  -1.015954   1.855412)
  25:      1171.00    0.970897  ( -0.298282   0.922245  -0.177167)
  26:      1184.00   49.172040  (  2.592993   2.036412  -6.188817)
  27:      1222.48    0.969138  ( -0.348780   0.435842  -0.810884)
  28:      1235.28    4.926789  ( -1.593971  -0.885932   1.265374)
  29:      1298.07    6.639182  ( -0.681125  -0.938434   2.300998)
  30:      1323.25    1.406123  ( -0.934609  -0.616835  -0.390056)
  31:      1355.23    3.542248  (  0.357038   0.811355  -1.660264)
  32:      1368.60    0.634068  (  0.241605   0.758421   0.022208)
  33:      1391.02   14.398182  (  0.646864   1.675858  -3.342342)
  34:      1420.34   16.653963  (  2.806291   0.119649  -2.960469)
  35:      1442.41   15.511828  (  0.533521   0.992316  -3.773923)
  36:      1499.71  135.208644  (  6.259204   2.506007   9.473697)
  37:      1516.22   28.271745  (  3.930782   1.860442   3.059322)
  38:      1523.65    4.622994  ( -1.754513  -1.094591  -0.588683)
  39:      1652.78   40.870231  (  5.495708  -0.575078  -3.215076)
  40:      1658.91   48.659441  ( -0.070573  -6.681132   2.004229)
  41:      2974.71   41.536066  ( -5.133541  -3.573819  -1.552622)
  42:      3023.06    2.585835  ( -0.078407  -1.395685  -0.794827)
  43:      3035.90   39.944293  ( -5.501588  -3.049374   0.614932)
  44:      3109.32    5.319284  (  2.263751  -0.319948  -0.303886)
  45:      3120.12    2.134981  (  0.588233  -1.330301  -0.138785)
  46:      3124.63    6.856572  ( -1.038052   2.377811  -0.353602)
  47:      3391.68   47.782021  ( -0.299342  -0.594485  -6.880334)
  48:      3468.08   97.188785  ( -8.010226  -3.894193   4.226147)
  49:      3501.18  100.250973  ( -5.845248   8.122961  -0.318659)
  50:      3829.20   74.593523  ( -7.066328  -4.964981   0.097447)

--------------------------
THERMOCHEMISTRY AT 298.15K
--------------------------

Temperature         ... 298.15 K
Pressure            ... 1.00 atm
Total Mass          ... 104.13 AMU

Throughout the following assumptions are being made:
  (1) The electronic state is orbitally nondegenerate
  (2) There are no thermally accessible electronically excited states
  (3) Hindered rotations indicated by low frequency modes) are not
      treated as such but are treated as vibrations and this may
      case some error
  (4) All equations used are the standard statistical mechanics
      equations for an ideal gas
  (5) All vibrations are strinctly harmonic

------------
INNER ENERGY
------------

The inner energy is: U= E(el) + E(ZPE) + E(vib) + E(rot) + E(trans)
    E(el)   - is the total energy from the electronic structure calculation
              = E(kin-el) + E(nuc-el) + E(el-el) + E(nuc-nuc)
    E(ZPE)  - the the zero temperature vibrational energy from the frequency calculation
    E(vib)  - the the finite temperature correction to E(ZPE) due to population
              of excietd vibrational states
    E(rot)  - is the rotational thermal energy
    E(trans)- is the translational thermal energy

Summary of contributions to the inner energy U:
Electronic energy                ...   -363.10660680 Eh
Zero point energy                ...      0.15343242 Eh      96.28 kcal/mol
Thermal vibrational correction   ...      0.00467465 Eh       2.93 kcal/mol
Thermal rotational correction    ...      0.00141627 Eh       0.89 kcal/mol
Thermal translational correction ...      0.00141627 Eh       0.89 kcal/mol
-----------------------------------------------------------------------
Total thermal energy                   -362.94566718 Eh

Summary of corrections to the electronic energy:
(perhaps to be used in another calculation)
Total thermal correction                  0.00750719 Eh       4.71 kcal/mol
Non-thermal (ZPE) correction              0.15343242 Eh      96.28 kcal/mol
-----------------------------------------------------------------------
Total correction                          0.16093962 Eh     100.99 kcal/mol

--------
ENTHALPY
--------

The enthalpy is H = U + kB*T
                kB is Boltzmann's constant
Total free energy                 ...   -362.94566718 Eh
Thermal Enthalpy correction       ...      0.00094421 Eh       0.59 kcal/mol
-----------------------------------------------------------------------
Total Enthalpy                    ...   -362.94472298 Eh

-------
ENTROPY
-------

The entropy contributions are T*S = T*(S(el)+S(vib)+S(rot)+S(trans)
     S(el)   - electronic entropy
     S(vib)  - vibrational entropy
     S(rot)  - rotational entropy
     S(trans)- translational entropy
The entropies will be listed as mutliplied by the temperature to get
units of energy

Electronic entropy                ...      0.00000000 Eh      0.00 kcal/mol
Vibrational entropy               ...      0.00847823 Eh      5.32 kcal/mol
Rotational entropy                ...      0.01198669 Eh      7.52 kcal/mol
Translational entropy             ...      0.01892854 Eh     11.88 kcal/mol
-----------------------------------------------------------------------
Final entropy term                ...      0.03939347 Eh     24.72 kcal/mol

CAUTION: The rotational entropy is not quite correctly treated here
         because it includes a symmetry number that is not yet correctly
         implemented in ORCA!
For a nonlinear molecule the correct rotational entropy is:
    S(rot) = R*(ln(qrot/sn)+1.5)
    R    = 8.31441 J/mol/K = 1.987191683e-3 kcal/mol/K
    qrot = 218370.0108099
    sn is the rotational symmetry number. We have assumed 3 here
       if it is different for your molecule then you should correct
       the printed rotational entropy by manually evaluating the equation
       as given above

For convenience we print out the resulting values for sn=1 - 12:
 sn= 1  qrot/sn=  218370.0108 T*S(rot)=     8.17 kcal/mol T*S(tot)=    25.37 kcal/mol
 sn= 2  qrot/sn=  109185.0054 T*S(rot)=     7.76 kcal/mol T*S(tot)=    24.96 kcal/mol
 sn= 3  qrot/sn=   72790.0036 T*S(rot)=     7.52 kcal/mol T*S(tot)=    24.72 kcal/mol
 sn= 4  qrot/sn=   54592.5027 T*S(rot)=     7.35 kcal/mol T*S(tot)=    24.55 kcal/mol
 sn= 5  qrot/sn=   43674.0022 T*S(rot)=     7.22 kcal/mol T*S(tot)=    24.42 kcal/mol
 sn= 6  qrot/sn=   36395.0018 T*S(rot)=     7.11 kcal/mol T*S(tot)=    24.31 kcal/mol
 sn= 7  qrot/sn=   31195.7158 T*S(rot)=     7.02 kcal/mol T*S(tot)=    24.22 kcal/mol
 sn= 8  qrot/sn=   27296.2514 T*S(rot)=     6.94 kcal/mol T*S(tot)=    24.14 kcal/mol
 sn= 9  qrot/sn=   24263.3345 T*S(rot)=     6.87 kcal/mol T*S(tot)=    24.07 kcal/mol
 sn=10  qrot/sn=   21837.0011 T*S(rot)=     6.81 kcal/mol T*S(tot)=    24.01 kcal/mol
 sn=11  qrot/sn=   19851.8192 T*S(rot)=     6.75 kcal/mol T*S(tot)=    23.95 kcal/mol
 sn=12  qrot/sn=   18197.5009 T*S(rot)=     6.70 kcal/mol T*S(tot)=    23.90 kcal/mol

-------------------
GIBBS FREE ENTHALPY
-------------------

The Gibbs free enthalpy is G = H - T*S

Total enthalpy                    ...   -362.94472298 Eh
Total entropy correction          ...     -0.03939347 Eh    -24.72 kcal/mol
-----------------------------------------------------------------------
Final Gibbs free enthalpy         ...   -362.98411644 Eh

For completeness - the Gibbs free enthalpy minus the electronic energy
G-E(el)                           ...      0.12249036 Eh     76.86 kcal/mol

                             ****ORCA TERMINATED NORMALLY****
TOTAL RUN TIME: 0 days 0 hours 35 minutes 38 seconds 373 msec
