                         Program Version 3.0.3 - RELEASE   -
|  1> ! NORI PBE0 def2-TZVP UseSym TightOPT Freq TightSCF Grid3 FinalGrid5 XYZFile
|  2> % pal
|  3>     nprocs 8
|  4> end
|  5> %method
|  6>     SymThresh 5.0e-2
|  7> end
|  8> % geom
|  9>     MaxIter 10
| 10> end
| 11> % maxcore 2000
| 12> % output
| 13>     printlevel mini
| 14>     print[ P_Basis ] 0
| 15>     print[ P_SCFInfo ] 1
| 16>     print[ P_SCFIterInfo ] 1
| 17>     print[ P_OrbEn ] 0
| 18>     print[ P_Cartesian ] 0
| 19> end
| 20> % elprop
| 21>     Dipole false
| 22> end
| 23> *xyz 1 1
| 24>  N        0.9939208296     0.0399370609    -0.0796021835
| 25>  C        2.4759580065     0.0211159813     0.0261908429
| 26>  C        2.9070777642     0.0002236928     1.4752004123
| 27>  O        4.2940915015    -0.1919451631     1.4922482480
| 28>  C        3.2304999585    -0.7333043874    -1.0278076472
| 29>  C        3.2496457634     0.7685829023    -1.0270561118
| 30>  O        4.3292992641     1.5406297420    -0.7151182602
| 31>  H        0.7023304639     0.1258469565    -1.0554036313
| 32>  H        0.5920657023     0.8338547903     0.4287984014
| 33>  H        0.5738436320    -0.8193166943     0.2906723421
| 34>  H        2.3862024388    -0.8137920555     2.0036244917
| 35>  H        2.6265048628     0.9515396332     1.9526292289
| 36>  H        4.6173184836    -0.1832491727     2.3982508869
| 37>  H        4.1062637133    -1.2630929529    -0.6728712849
| 38>  H        2.6879733662    -1.2332942202    -1.8232815151
| 39>  H        2.6648884288     1.2424493084    -1.8122155959
| 40>  H        4.8555558206     1.1012145784    -0.0337686244
| 41> *
| 42>
| 43>                          ****END OF INPUT****
 Total Charge           Charge          ....    1
 Multiplicity           Mult            ....    1
 Number of Electrons    NEL             ....   56
FINAL SINGLE POINT ENERGY      -363.083476776372
FINAL SINGLE POINT ENERGY      -363.083477819634

CARTESIAN COORDINATES (ANGSTROEM)
---------------------------------
  N     -1.429987    0.653869   -1.385146
  C     -0.511336    0.086913   -0.363702
  C     -0.775129    0.702808    0.992109
  O     -0.000234    0.001105    1.924419
  C     -0.128464   -1.355564   -0.510956
  C      0.876157   -0.282462   -0.818062
  O      1.978408   -0.001387   -0.066466
  H     -1.204901    0.291366   -2.313970
  H     -1.355135    1.674801   -1.430738
  H     -2.408517    0.415393   -1.192487
  H     -1.847875    0.627109    1.229724
  H     -0.505352    1.769360    0.966139
  H     -0.113478    0.381879    2.800523
  H     -0.034991   -1.901990    0.419826
  H     -0.523366   -1.934211   -1.339375
  H      1.094998   -0.135523   -1.873162
  H      1.781543   -0.158339    0.866808

FINAL SINGLE POINT ENERGY      -363.083478504839
                    ***********************HURRAY********************
 Multiplicity           Mult            ....    1
 Number of Electrons    NEL             ....   56
 Basis Dimension        Dim             ....  277
FINAL SINGLE POINT ENERGY      -363.083478827736

VIBRATIONAL FREQUENCIES
-----------------------

   0:         0.00 cm**-1
   1:         0.00 cm**-1
   2:         0.00 cm**-1
   3:         0.00 cm**-1
   4:         0.00 cm**-1
   5:         0.00 cm**-1
   6:       109.76 cm**-1
   7:       182.28 cm**-1
   8:       197.47 cm**-1
   9:       228.71 cm**-1
  10:       285.81 cm**-1
  11:       292.05 cm**-1
  12:       327.57 cm**-1
  13:       442.63 cm**-1
  14:       459.61 cm**-1
  15:       472.83 cm**-1
  16:       537.35 cm**-1
  17:       700.80 cm**-1
  18:       818.54 cm**-1
  19:       876.96 cm**-1
  20:       900.17 cm**-1
  21:       965.52 cm**-1
  22:      1022.26 cm**-1
  23:      1048.04 cm**-1
  24:      1073.84 cm**-1
  25:      1115.54 cm**-1
  26:      1137.30 cm**-1
  27:      1170.72 cm**-1
  28:      1184.55 cm**-1
  29:      1231.27 cm**-1
  30:      1247.25 cm**-1
  31:      1290.87 cm**-1
  32:      1368.75 cm**-1
  33:      1390.91 cm**-1
  34:      1440.32 cm**-1
  35:      1478.27 cm**-1
  36:      1491.57 cm**-1
  37:      1508.92 cm**-1
  38:      1525.47 cm**-1
  39:      1648.55 cm**-1
  40:      1654.60 cm**-1
  41:      2980.47 cm**-1
  42:      3018.32 cm**-1
  43:      3147.61 cm**-1
  44:      3152.67 cm**-1
  45:      3243.99 cm**-1
  46:      3390.03 cm**-1
  47:      3460.05 cm**-1
  48:      3494.84 cm**-1
  49:      3774.21 cm**-1
  50:      3860.29 cm**-1

IR SPECTRUM
-----------

 Mode    freq (cm**-1)   T**2         TX         TY         TZ
-------------------------------------------------------------------
   6:       109.76    8.740656  ( -2.792940   0.238206   0.939895)
   7:       182.28    0.162356  ( -0.057799  -0.347187   0.196153)
   8:       197.47    5.447002  (  2.145176  -0.620927   0.677992)
   9:       228.71    1.828850  (  0.150289   0.872954  -1.021868)
  10:       285.81   86.911853  (  7.187990   5.422578  -2.416672)
  11:       292.05   37.652851  ( -5.146111  -2.880968   1.694231)
  12:       327.57    6.009316  ( -0.347145   2.181642   1.062659)
  13:       442.63   63.284219  (  3.869889  -6.944174   0.294318)
  14:       459.61   59.002175  ( -1.976573   6.989609   2.498139)
  15:       472.83   17.497378  ( -1.116304  -2.596080  -3.084090)
  16:       537.35   22.341719  ( -2.286056   3.073462  -2.769386)
  17:       700.80   17.306134  (  2.195702  -3.450997   0.758711)
  18:       818.54    4.958769  ( -2.141500  -0.553421  -0.257823)
  19:       876.96   10.023293  (  2.002204  -1.163936  -2.158640)
  20:       900.17    2.936928  ( -0.298346   1.448134  -0.866502)
  21:       965.52   23.289552  ( -2.380729   2.967356   2.969255)
  22:      1022.26    4.961584  ( -0.575043   1.919660   0.972531)
  23:      1048.04   13.568806  ( -2.588576  -2.510986   0.750353)
  24:      1073.84    8.743141  (  1.553991  -2.216774  -1.189187)
  25:      1115.54   12.685198  ( -2.852782   0.205099  -2.122444)
  26:      1137.30   79.124004  ( -5.418200   2.163496  -6.714640)
  27:      1170.72   48.640976  (  6.433307   2.329086   1.352365)
  28:      1184.55   32.814902  ( -4.060867   2.390975  -3.256915)
  29:      1231.27   99.271326  ( -9.568173  -1.996523  -1.932690)
  30:      1247.25   30.754229  ( -2.566388   4.039035  -2.802513)
  31:      1290.87    1.355098  (  1.078195  -0.436817   0.042245)
  32:      1368.75    2.155907  ( -0.963256   0.881024  -0.672191)
  33:      1390.91    3.937986  ( -0.780069  -1.296285   1.284182)
  34:      1440.32   20.788050  ( -3.728016   2.085706  -1.593667)
  35:      1478.27   36.536583  (  5.263784  -2.145770   2.055439)
  36:      1491.57   40.365601  (  3.121675   4.968233  -2.436680)
  37:      1508.92   53.377140  ( -4.272389   0.499373  -5.905460)
  38:      1525.47   97.812899  ( -7.585782   0.961303  -6.272536)
  39:      1648.55   42.520075  ( -4.330186  -4.599699   1.616272)
  40:      1654.60   44.521683  ( -2.288874   3.378320   5.279176)
  41:      2980.47   44.443926  (  5.425020  -3.770669   0.891707)
  42:      3018.32   19.699127  ( -2.708875  -3.425631   0.791312)
  43:      3147.61    0.764193  ( -0.334199  -0.799479   0.115489)
  44:      3152.67   11.309017  ( -1.360423   0.948511  -2.925507)
  45:      3243.99    3.416240  ( -0.268220  -1.030816   1.510535)
  46:      3390.03   23.184520  (  3.746489  -2.102459   2.174397)
  47:      3460.05   74.019944  (  4.552305   6.824830  -2.591941)
  48:      3494.84   82.039441  ( -1.958457   4.497478   7.614235)
  49:      3774.21  127.765101  (  0.220806  -0.234988 -11.298722)
  50:      3860.29  120.463837  ( -0.475204  -2.214659 -10.739334)

--------------------------
THERMOCHEMISTRY AT 298.15K
--------------------------

Temperature         ... 298.15 K
Pressure            ... 1.00 atm
Total Mass          ... 104.13 AMU

Throughout the following assumptions are being made:
  (1) The electronic state is orbitally nondegenerate
  (2) There are no thermally accessible electronically excited states
  (3) Hindered rotations indicated by low frequency modes) are not
      treated as such but are treated as vibrations and this may
      case some error
  (4) All equations used are the standard statistical mechanics
      equations for an ideal gas
  (5) All vibrations are strinctly harmonic

------------
INNER ENERGY
------------

The inner energy is: U= E(el) + E(ZPE) + E(vib) + E(rot) + E(trans)
    E(el)   - is the total energy from the electronic structure calculation
              = E(kin-el) + E(nuc-el) + E(el-el) + E(nuc-nuc)
    E(ZPE)  - the the zero temperature vibrational energy from the frequency calculation
    E(vib)  - the the finite temperature correction to E(ZPE) due to population
              of excietd vibrational states
    E(rot)  - is the rotational thermal energy
    E(trans)- is the translational thermal energy

Summary of contributions to the inner energy U:
Electronic energy                ...   -363.08347883 Eh
Zero point energy                ...      0.15115537 Eh      94.85 kcal/mol
Thermal vibrational correction   ...      0.00521291 Eh       3.27 kcal/mol
Thermal rotational correction    ...      0.00141627 Eh       0.89 kcal/mol
Thermal translational correction ...      0.00141627 Eh       0.89 kcal/mol
-----------------------------------------------------------------------
Total thermal energy                   -362.92427801 Eh

Summary of corrections to the electronic energy:
(perhaps to be used in another calculation)
Total thermal correction                  0.00804545 Eh       5.05 kcal/mol
Non-thermal (ZPE) correction              0.15115537 Eh      94.85 kcal/mol
-----------------------------------------------------------------------
Total correction                          0.15920082 Eh      99.90 kcal/mol

--------
ENTHALPY
--------

The enthalpy is H = U + kB*T
                kB is Boltzmann's constant
Total free energy                 ...   -362.92427801 Eh
Thermal Enthalpy correction       ...      0.00094421 Eh       0.59 kcal/mol
-----------------------------------------------------------------------
Total Enthalpy                    ...   -362.92333380 Eh

-------
ENTROPY
-------

The entropy contributions are T*S = T*(S(el)+S(vib)+S(rot)+S(trans)
     S(el)   - electronic entropy
     S(vib)  - vibrational entropy
     S(rot)  - rotational entropy
     S(trans)- translational entropy
The entropies will be listed as mutliplied by the temperature to get
units of energy

Electronic entropy                ...      0.00000000 Eh      0.00 kcal/mol
Vibrational entropy               ...      0.00868935 Eh      5.45 kcal/mol
Rotational entropy                ...      0.01200838 Eh      7.54 kcal/mol
Translational entropy             ...      0.01892854 Eh     11.88 kcal/mol
-----------------------------------------------------------------------
Final entropy term                ...      0.03962627 Eh     24.87 kcal/mol

CAUTION: The rotational entropy is not quite correctly treated here
         because it includes a symmetry number that is not yet correctly
         implemented in ORCA!
For a nonlinear molecule the correct rotational entropy is:
    S(rot) = R*(ln(qrot/sn)+1.5)
    R    = 8.31441 J/mol/K = 1.987191683e-3 kcal/mol/K
    qrot = 223444.0249053
    sn is the rotational symmetry number. We have assumed 3 here
       if it is different for your molecule then you should correct
       the printed rotational entropy by manually evaluating the equation
       as given above

For convenience we print out the resulting values for sn=1 - 12:
 sn= 1  qrot/sn=  223444.0249 T*S(rot)=     8.19 kcal/mol T*S(tot)=    25.52 kcal/mol
 sn= 2  qrot/sn=  111722.0125 T*S(rot)=     7.78 kcal/mol T*S(tot)=    25.11 kcal/mol
 sn= 3  qrot/sn=   74481.3416 T*S(rot)=     7.54 kcal/mol T*S(tot)=    24.87 kcal/mol
 sn= 4  qrot/sn=   55861.0062 T*S(rot)=     7.36 kcal/mol T*S(tot)=    24.70 kcal/mol
 sn= 5  qrot/sn=   44688.8050 T*S(rot)=     7.23 kcal/mol T*S(tot)=    24.56 kcal/mol
 sn= 6  qrot/sn=   37240.6708 T*S(rot)=     7.12 kcal/mol T*S(tot)=    24.46 kcal/mol
 sn= 7  qrot/sn=   31920.5750 T*S(rot)=     7.03 kcal/mol T*S(tot)=    24.36 kcal/mol
 sn= 8  qrot/sn=   27930.5031 T*S(rot)=     6.95 kcal/mol T*S(tot)=    24.28 kcal/mol
 sn= 9  qrot/sn=   24827.1139 T*S(rot)=     6.88 kcal/mol T*S(tot)=    24.21 kcal/mol
 sn=10  qrot/sn=   22344.4025 T*S(rot)=     6.82 kcal/mol T*S(tot)=    24.15 kcal/mol
 sn=11  qrot/sn=   20313.0932 T*S(rot)=     6.77 kcal/mol T*S(tot)=    24.10 kcal/mol
 sn=12  qrot/sn=   18620.3354 T*S(rot)=     6.71 kcal/mol T*S(tot)=    24.04 kcal/mol

-------------------
GIBBS FREE ENTHALPY
-------------------

The Gibbs free enthalpy is G = H - T*S

Total enthalpy                    ...   -362.92333380 Eh
Total entropy correction          ...     -0.03962627 Eh    -24.87 kcal/mol
-----------------------------------------------------------------------
Final Gibbs free enthalpy         ...   -362.96296007 Eh

For completeness - the Gibbs free enthalpy minus the electronic energy
G-E(el)                           ...      0.12051876 Eh     75.63 kcal/mol

                             ****ORCA TERMINATED NORMALLY****
TOTAL RUN TIME: 0 days 0 hours 35 minutes 47 seconds 810 msec
