                         Program Version 3.0.3 - RELEASE   -
|  1> ! NORI PBE0 def2-TZVP UseSym TightOPT Freq TightSCF Grid3 FinalGrid5 XYZFile
|  2> % pal
|  3>     nprocs 8
|  4> end
|  5> %method
|  6>     SymThresh 5.0e-2
|  7> end
|  8> % geom
|  9>     MaxIter 10
| 10> end
| 11> % maxcore 2000
| 12> % output
| 13>     printlevel mini
| 14>     print[ P_Basis ] 0
| 15>     print[ P_SCFInfo ] 1
| 16>     print[ P_SCFIterInfo ] 1
| 17>     print[ P_OrbEn ] 0
| 18>     print[ P_Cartesian ] 0
| 19> end
| 20> % elprop
| 21>     Dipole false
| 22> end
| 23> *xyz 1 1
| 24>  N        1.1881791352     0.4871150862     0.8351595850
| 25>  C        2.5016788383     0.2030891895     0.1869844258
| 26>  C        3.6749247179     0.9884883154     0.7948741030
| 27>  O        3.2886662925     1.2491876177     2.1261612081
| 28>  C        4.5196327935    -0.2861929544     0.6161931522
| 29>  C        3.2028786096    -1.1006113166     0.5621637077
| 30>  O        3.0059489193    -2.0919588553    -0.3845202997
| 31>  H        0.6814676735     1.2469220580     0.3781768280
| 32>  H        1.4030364489     0.7804440543     1.8008922169
| 33>  H        0.5863650820    -0.3380680839     0.8466245414
| 34>  H        2.4086934929     0.3019733147    -0.8934672232
| 35>  H        3.9951262035     1.8960904547     0.2800492052
| 36>  H        3.9979823726     1.6768286456     2.6149212466
| 37>  H        5.2315111129    -0.5223867425     1.4055436245
| 38>  H        5.0212663126    -0.2925619159    -0.3531113387
| 39>  H        2.9207896847    -1.4222909535     1.5731746018
| 40>  H        3.4078423100    -2.9183479140    -0.0995095846
| 41> *
| 42>
| 43>                          ****END OF INPUT****
 Total Charge           Charge          ....    1
 Multiplicity           Mult            ....    1
 Number of Electrons    NEL             ....   56
FINAL SINGLE POINT ENERGY      -363.111405528698
FINAL SINGLE POINT ENERGY      -363.111406851504

CARTESIAN COORDINATES (ANGSTROEM)
---------------------------------
  N     -0.995396   -1.626486    0.227640
  C     -0.700451   -0.243906   -0.250412
  C     -0.468811    0.768197    0.882994
  O      0.003156    0.000231    1.967392
  C      0.640862    1.377385    0.006418
  C      0.710848    0.034603   -0.762892
  O      0.781916   -0.003600   -2.145455
  H     -1.995487   -1.797077    0.344314
  H     -0.545280   -1.711393    1.152216
  H     -0.622375   -2.333358   -0.408125
  H     -1.450561    0.062291   -0.977452
  H     -1.307770    1.404464    1.169733
  H      0.248479    0.561652    2.708763
  H      1.540815    1.719462    0.514981
  H      0.247319    2.171225   -0.630672
  H      1.440810   -0.631894   -0.284517
  H      1.688959    0.118446   -2.442612

FINAL SINGLE POINT ENERGY      -363.111407696900
                    ***********************HURRAY********************
 Multiplicity           Mult            ....    1
 Number of Electrons    NEL             ....   56
 Basis Dimension        Dim             ....  277
FINAL SINGLE POINT ENERGY      -363.111407894173

VIBRATIONAL FREQUENCIES
-----------------------

   0:         0.00 cm**-1
   1:         0.00 cm**-1
   2:         0.00 cm**-1
   3:         0.00 cm**-1
   4:         0.00 cm**-1
   5:         0.00 cm**-1
   6:       122.54 cm**-1
   7:       209.24 cm**-1
   8:       236.11 cm**-1
   9:       271.74 cm**-1
  10:       291.00 cm**-1
  11:       303.17 cm**-1
  12:       356.30 cm**-1
  13:       379.12 cm**-1
  14:       473.41 cm**-1
  15:       572.13 cm**-1
  16:       716.91 cm**-1
  17:       806.50 cm**-1
  18:       873.52 cm**-1
  19:       909.44 cm**-1
  20:       950.27 cm**-1
  21:       999.55 cm**-1
  22:      1006.75 cm**-1
  23:      1067.20 cm**-1
  24:      1073.28 cm**-1
  25:      1142.23 cm**-1
  26:      1166.63 cm**-1
  27:      1200.05 cm**-1
  28:      1208.57 cm**-1
  29:      1234.14 cm**-1
  30:      1263.69 cm**-1
  31:      1289.64 cm**-1
  32:      1303.45 cm**-1
  33:      1327.88 cm**-1
  34:      1375.84 cm**-1
  35:      1406.51 cm**-1
  36:      1443.72 cm**-1
  37:      1475.02 cm**-1
  38:      1484.25 cm**-1
  39:      1638.77 cm**-1
  40:      1663.86 cm**-1
  41:      3030.46 cm**-1
  42:      3098.11 cm**-1
  43:      3107.48 cm**-1
  44:      3155.87 cm**-1
  45:      3169.17 cm**-1
  46:      3323.55 cm**-1
  47:      3469.33 cm**-1
  48:      3517.82 cm**-1
  49:      3852.79 cm**-1
  50:      3860.81 cm**-1

IR SPECTRUM
-----------

 Mode    freq (cm**-1)   T**2         TX         TY         TZ
-------------------------------------------------------------------
   6:       122.54    4.095857  ( -1.989325   0.084829  -0.362279)
   7:       209.24   35.878043  (  4.334964  -1.282378  -3.929585)
   8:       236.11    8.195354  (  0.586129   0.139228   2.798646)
   9:       271.74  110.774194  ( 10.273834  -0.590744  -2.207612)
  10:       291.00   63.378528  ( -0.928123  -7.083850   3.512290)
  11:       303.17  107.020364  (  1.901280  -9.155230  -4.425750)
  12:       356.30    7.184216  (  2.101038   0.619977  -1.544501)
  13:       379.12    6.389129  ( -0.964742  -2.319544  -0.279494)
  14:       473.41    3.406790  (  1.061345  -1.488861  -0.252249)
  15:       572.13    9.815140  ( -0.031486   2.627848  -1.705451)
  16:       716.91    7.764868  (  0.534993   0.642994  -2.658046)
  17:       806.50    1.891260  (  0.901044   0.991576   0.310091)
  18:       873.52    9.430825  (  1.920236   2.277900  -0.744777)
  19:       909.44   31.780559  (  0.596976   0.513259  -5.582181)
  20:       950.27   15.872858  (  3.184866   0.798195  -2.256628)
  21:       999.55   11.445251  ( -3.214470  -0.212021  -1.033189)
  22:      1006.75   34.007287  (  1.700843   1.089173   5.470660)
  23:      1067.20   44.853872  (  2.165248  -2.298093   5.906297)
  24:      1073.28   43.321322  ( -0.113279   2.331012  -6.154257)
  25:      1142.23   24.702533  (  0.432551   3.405637   3.594033)
  26:      1166.63   43.561382  ( -1.348431   1.816947   6.200147)
  27:      1200.05   34.590625  ( -1.303463   2.763466  -5.025422)
  28:      1208.57   20.936110  (  2.654359  -3.474928   1.347354)
  29:      1234.14   54.570347  ( -0.736181  -2.094469   7.045678)
  30:      1263.69   36.093140  ( -0.592009  -0.512619   5.956500)
  31:      1289.64   30.035803  (  0.708728   0.032684  -5.434376)
  32:      1303.45   13.916049  (  0.705722  -1.500296   3.341724)
  33:      1327.88   28.485837  ( -1.451963   2.652437   4.397979)
  34:      1375.84   13.231964  (  2.213210  -0.531153   2.837524)
  35:      1406.51   10.615605  ( -2.865498  -0.352850   1.509975)
  36:      1443.72    4.351109  (  1.240306   0.097115  -1.674311)
  37:      1475.02  133.066352  (  1.692390  11.392716  -0.638900)
  38:      1484.25   76.301970  ( -0.958729  -7.979453   3.422153)
  39:      1638.77   27.906721  (  5.096785   0.335057   1.348049)
  40:      1663.86   38.789529  ( -1.674546   2.167944   5.593339)
  41:      3030.46   20.055094  ( -1.485759   2.900999  -3.071127)
  42:      3098.11    2.942812  ( -1.669985   0.244440   0.306939)
  43:      3107.48   13.376067  (  2.609779  -2.433184  -0.802955)
  44:      3155.87    0.144949  ( -0.261590  -0.200047  -0.191053)
  45:      3169.17    1.594118  (  0.842533   0.426613   0.838007)
  46:      3323.55   95.833715  (  3.446663  -0.108273   9.162014)
  47:      3469.33  115.618005  ( -5.844979  -6.803653  -5.929969)
  48:      3517.82   97.234680  (  7.941880  -3.569000  -4.628549)
  49:      3852.79  109.007771  ( -7.904582  -0.250187   6.816359)
  50:      3860.81  125.078398  ( -3.234228  -4.093073  -9.892670)

--------------------------
THERMOCHEMISTRY AT 298.15K
--------------------------

Temperature         ... 298.15 K
Pressure            ... 1.00 atm
Total Mass          ... 104.13 AMU

Throughout the following assumptions are being made:
  (1) The electronic state is orbitally nondegenerate
  (2) There are no thermally accessible electronically excited states
  (3) Hindered rotations indicated by low frequency modes) are not
      treated as such but are treated as vibrations and this may
      case some error
  (4) All equations used are the standard statistical mechanics
      equations for an ideal gas
  (5) All vibrations are strinctly harmonic

------------
INNER ENERGY
------------

The inner energy is: U= E(el) + E(ZPE) + E(vib) + E(rot) + E(trans)
    E(el)   - is the total energy from the electronic structure calculation
              = E(kin-el) + E(nuc-el) + E(el-el) + E(nuc-nuc)
    E(ZPE)  - the the zero temperature vibrational energy from the frequency calculation
    E(vib)  - the the finite temperature correction to E(ZPE) due to population
              of excietd vibrational states
    E(rot)  - is the rotational thermal energy
    E(trans)- is the translational thermal energy

Summary of contributions to the inner energy U:
Electronic energy                ...   -363.11140789 Eh
Zero point energy                ...      0.15224496 Eh      95.53 kcal/mol
Thermal vibrational correction   ...      0.00479371 Eh       3.01 kcal/mol
Thermal rotational correction    ...      0.00141627 Eh       0.89 kcal/mol
Thermal translational correction ...      0.00141627 Eh       0.89 kcal/mol
-----------------------------------------------------------------------
Total thermal energy                   -362.95153668 Eh

Summary of corrections to the electronic energy:
(perhaps to be used in another calculation)
Total thermal correction                  0.00762625 Eh       4.79 kcal/mol
Non-thermal (ZPE) correction              0.15224496 Eh      95.53 kcal/mol
-----------------------------------------------------------------------
Total correction                          0.15987122 Eh     100.32 kcal/mol

--------
ENTHALPY
--------

The enthalpy is H = U + kB*T
                kB is Boltzmann's constant
Total free energy                 ...   -362.95153668 Eh
Thermal Enthalpy correction       ...      0.00094421 Eh       0.59 kcal/mol
-----------------------------------------------------------------------
Total Enthalpy                    ...   -362.95059247 Eh

-------
ENTROPY
-------

The entropy contributions are T*S = T*(S(el)+S(vib)+S(rot)+S(trans)
     S(el)   - electronic entropy
     S(vib)  - vibrational entropy
     S(rot)  - rotational entropy
     S(trans)- translational entropy
The entropies will be listed as mutliplied by the temperature to get
units of energy

Electronic entropy                ...      0.00000000 Eh      0.00 kcal/mol
Vibrational entropy               ...      0.00781183 Eh      4.90 kcal/mol
Rotational entropy                ...      0.01199653 Eh      7.53 kcal/mol
Translational entropy             ...      0.01892854 Eh     11.88 kcal/mol
-----------------------------------------------------------------------
Final entropy term                ...      0.03873690 Eh     24.31 kcal/mol

CAUTION: The rotational entropy is not quite correctly treated here
         because it includes a symmetry number that is not yet correctly
         implemented in ORCA!
For a nonlinear molecule the correct rotational entropy is:
    S(rot) = R*(ln(qrot/sn)+1.5)
    R    = 8.31441 J/mol/K = 1.987191683e-3 kcal/mol/K
    qrot = 220656.9645820
    sn is the rotational symmetry number. We have assumed 3 here
       if it is different for your molecule then you should correct
       the printed rotational entropy by manually evaluating the equation
       as given above

For convenience we print out the resulting values for sn=1 - 12:
 sn= 1  qrot/sn=  220656.9646 T*S(rot)=     8.18 kcal/mol T*S(tot)=    24.96 kcal/mol
 sn= 2  qrot/sn=  110328.4823 T*S(rot)=     7.77 kcal/mol T*S(tot)=    24.55 kcal/mol
 sn= 3  qrot/sn=   73552.3215 T*S(rot)=     7.53 kcal/mol T*S(tot)=    24.31 kcal/mol
 sn= 4  qrot/sn=   55164.2411 T*S(rot)=     7.36 kcal/mol T*S(tot)=    24.14 kcal/mol
 sn= 5  qrot/sn=   44131.3929 T*S(rot)=     7.23 kcal/mol T*S(tot)=    24.01 kcal/mol
 sn= 6  qrot/sn=   36776.1608 T*S(rot)=     7.12 kcal/mol T*S(tot)=    23.90 kcal/mol
 sn= 7  qrot/sn=   31522.4235 T*S(rot)=     7.03 kcal/mol T*S(tot)=    23.81 kcal/mol
 sn= 8  qrot/sn=   27582.1206 T*S(rot)=     6.95 kcal/mol T*S(tot)=    23.73 kcal/mol
 sn= 9  qrot/sn=   24517.4405 T*S(rot)=     6.88 kcal/mol T*S(tot)=    23.66 kcal/mol
 sn=10  qrot/sn=   22065.6965 T*S(rot)=     6.81 kcal/mol T*S(tot)=    23.59 kcal/mol
 sn=11  qrot/sn=   20059.7241 T*S(rot)=     6.76 kcal/mol T*S(tot)=    23.54 kcal/mol
 sn=12  qrot/sn=   18388.0804 T*S(rot)=     6.71 kcal/mol T*S(tot)=    23.49 kcal/mol

-------------------
GIBBS FREE ENTHALPY
-------------------

The Gibbs free enthalpy is G = H - T*S

Total enthalpy                    ...   -362.95059247 Eh
Total entropy correction          ...     -0.03873690 Eh    -24.31 kcal/mol
-----------------------------------------------------------------------
Final Gibbs free enthalpy         ...   -362.98932937 Eh

For completeness - the Gibbs free enthalpy minus the electronic energy
G-E(el)                           ...      0.12207852 Eh     76.61 kcal/mol

                             ****ORCA TERMINATED NORMALLY****
TOTAL RUN TIME: 0 days 0 hours 36 minutes 9 seconds 458 msec
