                         Program Version 3.0.3 - RELEASE   -
|  1> ! NORI PBE0 def2-TZVP UseSym TightOPT Freq TightSCF Grid3 FinalGrid5 XYZFile
|  2> % pal
|  3>     nprocs 8
|  4> end
|  5> %method
|  6>     SymThresh 5.0e-2
|  7> end
|  8> % geom
|  9>     MaxIter 10
| 10> end
| 11> % maxcore 2000
| 12> % output
| 13>     printlevel mini
| 14>     print[ P_Basis ] 0
| 15>     print[ P_SCFInfo ] 1
| 16>     print[ P_SCFIterInfo ] 1
| 17>     print[ P_OrbEn ] 0
| 18>     print[ P_Cartesian ] 0
| 19> end
| 20> % elprop
| 21>     Dipole false
| 22> end
| 23> *xyz 1 1
| 24>  N        1.0562697210     0.0479288455     0.7320939276
| 25>  C        2.4086938523    -0.0668543905     0.0756634489
| 26>  C        2.6308403171     1.1406568748    -0.8280679986
| 27>  O        3.9250124345     1.1070128141    -1.3558255858
| 28>  C        4.3042629030    -0.0959487537    -1.8643062516
| 29>  C        3.6799425911    -1.2458949998    -1.6398771070
| 30>  C        2.4984315364    -1.3500757892    -0.7239342494
| 31>  H        0.9848122753     0.8848107075     1.3162529416
| 32>  H        0.8686799534    -0.7650064083     1.3242090227
| 33>  H        0.3131868922     0.0922744034     0.0293724413
| 34>  H        3.1390229213    -0.0558316372     0.8878983592
| 35>  H        1.8917990889     1.1317923064    -1.6441079896
| 36>  H        2.5428272564     2.0834302144    -0.2813515566
| 37>  H        5.1971461867    -0.0041555075    -2.4688122873
| 38>  H        4.0598218482    -2.1469912274    -2.1010160859
| 39>  H        2.6106535560    -2.2120157375    -0.0577941198
| 40>  H        1.5738366663    -1.5101017149    -1.2976469097
| 41> *
| 42>
| 43>                          ****END OF INPUT****
 Total Charge           Charge          ....    1
 Multiplicity           Mult            ....    1
 Number of Electrons    NEL             ....   54
FINAL SINGLE POINT ENERGY      -325.996708168109
FINAL SINGLE POINT ENERGY      -325.996709429140
FINAL SINGLE POINT ENERGY      -325.996710311447

CARTESIAN COORDINATES (ANGSTROEM)
---------------------------------
  N      1.691737   -0.003196   -1.626283
  C      0.634736    0.356321   -0.612665
  C      0.905412   -0.401459    0.682094
  O     -0.000244    0.002522    1.667605
  C     -1.298949    0.047924    1.266582
  C     -1.704006    0.028441    0.002264
  C     -0.742088    0.020086   -1.147146
  H      2.628330    0.260275   -1.310626
  H      1.516602    0.467713   -2.517077
  H      1.693480   -1.010418   -1.807579
  H      0.738707    1.429538   -0.438082
  H      0.807518   -1.482877    0.502897
  H      1.904533   -0.196861    1.075492
  H     -1.970305    0.117837    2.112350
  H     -2.763871    0.059907   -0.208881
  H     -1.049885    0.750050   -1.903444
  H     -0.733109   -0.962724   -1.640453

FINAL SINGLE POINT ENERGY      -325.996710668251
                    ***********************HURRAY********************
 Multiplicity           Mult            ....    1
 Number of Electrons    NEL             ....   54
 Basis Dimension        Dim             ....  277
FINAL SINGLE POINT ENERGY      -325.996710813354

VIBRATIONAL FREQUENCIES
-----------------------

   0:         0.00 cm**-1
   1:         0.00 cm**-1
   2:         0.00 cm**-1
   3:         0.00 cm**-1
   4:         0.00 cm**-1
   5:         0.00 cm**-1
   6:       146.12 cm**-1
   7:       186.75 cm**-1
   8:       210.33 cm**-1
   9:       297.09 cm**-1
  10:       422.19 cm**-1
  11:       438.93 cm**-1
  12:       484.99 cm**-1
  13:       504.99 cm**-1
  14:       763.11 cm**-1
  15:       780.07 cm**-1
  16:       895.31 cm**-1
  17:       914.11 cm**-1
  18:       936.53 cm**-1
  19:       963.53 cm**-1
  20:       966.31 cm**-1
  21:       972.81 cm**-1
  22:      1034.46 cm**-1
  23:      1064.46 cm**-1
  24:      1121.52 cm**-1
  25:      1140.08 cm**-1
  26:      1202.69 cm**-1
  27:      1237.58 cm**-1
  28:      1286.89 cm**-1
  29:      1318.09 cm**-1
  30:      1338.24 cm**-1
  31:      1366.03 cm**-1
  32:      1389.32 cm**-1
  33:      1404.13 cm**-1
  34:      1436.85 cm**-1
  35:      1478.48 cm**-1
  36:      1492.08 cm**-1
  37:      1509.12 cm**-1
  38:      1653.54 cm**-1
  39:      1656.52 cm**-1
  40:      1734.88 cm**-1
  41:      2999.84 cm**-1
  42:      3007.57 cm**-1
  43:      3071.54 cm**-1
  44:      3100.08 cm**-1
  45:      3115.08 cm**-1
  46:      3231.45 cm**-1
  47:      3248.36 cm**-1
  48:      3411.13 cm**-1
  49:      3492.61 cm**-1
  50:      3498.92 cm**-1

IR SPECTRUM
-----------

 Mode    freq (cm**-1)   T**2         TX         TY         TZ
-------------------------------------------------------------------
   6:       146.12    6.599855  (  0.682509   2.472178   0.149573)
   7:       186.75    0.397773  ( -0.331253  -0.360956  -0.397184)
   8:       210.33    0.344596  ( -0.289900  -0.510397  -0.006979)
   9:       297.09    5.762760  (  0.926630  -0.133805   2.210478)
  10:       422.19    4.179446  ( -1.982130  -0.120129   0.485979)
  11:       438.93    9.678437  (  1.363004  -2.532344  -1.186545)
  12:       484.99   20.833611  (  2.392993   3.539567  -1.605821)
  13:       504.99    6.838016  ( -0.727693  -1.009984  -2.299655)
  14:       763.11   36.004708  ( -0.079469  -5.887549  -1.155489)
  15:       780.07    1.342196  ( -0.297453   1.025894  -0.448618)
  16:       895.31    8.372509  ( -0.147286   0.862045  -2.758205)
  17:       914.11   15.131302  (  1.113539   3.387290  -1.554863)
  18:       936.53    4.270503  ( -1.435579   1.443066  -0.356619)
  19:       963.53    9.591898  (  1.409528   0.242378   2.747068)
  20:       966.31   14.364070  ( -3.334757  -1.590186  -0.845443)
  21:       972.81    5.003574  (  2.000215  -0.771917   0.637855)
  22:      1034.46   41.854472  (  1.435218   0.824271   6.254214)
  23:      1064.46   11.152689  (  3.066145  -1.291555  -0.288667)
  24:      1121.52    3.292132  ( -1.757957   0.436363  -0.106325)
  25:      1140.08   49.007678  (  6.890429  -0.936327   0.808061)
  26:      1202.69    1.931903  (  0.847163  -0.406499  -1.024195)
  27:      1237.58   15.791795  ( -3.635619   0.881971  -1.340222)
  28:      1286.89   79.580794  ( -8.733027   1.045289  -1.490774)
  29:      1318.09    2.549080  ( -1.569320   0.139711   0.258447)
  30:      1338.24    2.178121  (  0.537625   0.539518  -1.264121)
  31:      1366.03    3.652586  (  1.271368  -1.277197   0.636378)
  32:      1389.32    6.231437  ( -2.279407  -0.673231   0.763216)
  33:      1404.13    2.538210  (  0.169778   0.895671  -1.306583)
  34:      1436.85   11.258948  ( -3.065604  -0.477553   1.277874)
  35:      1478.48    6.174065  ( -2.436358   0.318171  -0.370126)
  36:      1492.08   30.638279  (  3.526413   0.212709  -4.261156)
  37:      1509.12  134.912483  ( -7.712260   3.649586   7.881247)
  38:      1653.54   41.718945  ( -2.111621   4.608191  -4.003071)
  39:      1656.52   43.421756  ( -3.730099  -5.221299  -1.498718)
  40:      1734.88   75.463028  (  6.614843  -0.502158   5.608451)
  41:      2999.84   11.830602  (  2.101535  -2.650444   0.623937)
  42:      3007.57   34.150109  (  2.504060  -3.233234  -4.174445)
  43:      3071.54    4.692917  ( -0.137920   1.333409  -1.701739)
  44:      3100.08    7.095770  ( -2.653140  -0.183781  -0.151133)
  45:      3115.08    3.023295  (  1.385950   1.049969   0.001538)
  46:      3231.45    3.820057  ( -1.111594   0.063081  -1.606373)
  47:      3248.36    0.346539  ( -0.567407   0.105384   0.116111)
  48:      3411.13   43.940380  ( -4.786350   1.100057   4.452090)
  49:      3492.61   85.348212  ( -2.560788  -8.776241   1.329723)
  50:      3498.92   89.210604  (  6.210196  -1.046435   7.039108)

--------------------------
THERMOCHEMISTRY AT 298.15K
--------------------------

Temperature         ... 298.15 K
Pressure            ... 1.00 atm
Total Mass          ... 100.14 AMU

Throughout the following assumptions are being made:
  (1) The electronic state is orbitally nondegenerate
  (2) There are no thermally accessible electronically excited states
  (3) Hindered rotations indicated by low frequency modes) are not
      treated as such but are treated as vibrations and this may
      case some error
  (4) All equations used are the standard statistical mechanics
      equations for an ideal gas
  (5) All vibrations are strinctly harmonic

------------
INNER ENERGY
------------

The inner energy is: U= E(el) + E(ZPE) + E(vib) + E(rot) + E(trans)
    E(el)   - is the total energy from the electronic structure calculation
              = E(kin-el) + E(nuc-el) + E(el-el) + E(nuc-nuc)
    E(ZPE)  - the the zero temperature vibrational energy from the frequency calculation
    E(vib)  - the the finite temperature correction to E(ZPE) due to population
              of excietd vibrational states
    E(rot)  - is the rotational thermal energy
    E(trans)- is the translational thermal energy

Summary of contributions to the inner energy U:
Electronic energy                ...   -325.99671081 Eh
Zero point energy                ...      0.15474388 Eh      97.10 kcal/mol
Thermal vibrational correction   ...      0.00389083 Eh       2.44 kcal/mol
Thermal rotational correction    ...      0.00141627 Eh       0.89 kcal/mol
Thermal translational correction ...      0.00141627 Eh       0.89 kcal/mol
-----------------------------------------------------------------------
Total thermal energy                   -325.83524356 Eh

Summary of corrections to the electronic energy:
(perhaps to be used in another calculation)
Total thermal correction                  0.00672337 Eh       4.22 kcal/mol
Non-thermal (ZPE) correction              0.15474388 Eh      97.10 kcal/mol
-----------------------------------------------------------------------
Total correction                          0.16146725 Eh     101.32 kcal/mol

--------
ENTHALPY
--------

The enthalpy is H = U + kB*T
                kB is Boltzmann's constant
Total free energy                 ...   -325.83524356 Eh
Thermal Enthalpy correction       ...      0.00094421 Eh       0.59 kcal/mol
-----------------------------------------------------------------------
Total Enthalpy                    ...   -325.83429935 Eh

-------
ENTROPY
-------

The entropy contributions are T*S = T*(S(el)+S(vib)+S(rot)+S(trans)
     S(el)   - electronic entropy
     S(vib)  - vibrational entropy
     S(rot)  - rotational entropy
     S(trans)- translational entropy
The entropies will be listed as mutliplied by the temperature to get
units of energy

Electronic entropy                ...      0.00000000 Eh      0.00 kcal/mol
Vibrational entropy               ...      0.00628819 Eh      3.95 kcal/mol
Rotational entropy                ...      0.01189166 Eh      7.46 kcal/mol
Translational entropy             ...      0.01887324 Eh     11.84 kcal/mol
-----------------------------------------------------------------------
Final entropy term                ...      0.03705308 Eh     23.25 kcal/mol

CAUTION: The rotational entropy is not quite correctly treated here
         because it includes a symmetry number that is not yet correctly
         implemented in ORCA!
For a nonlinear molecule the correct rotational entropy is:
    S(rot) = R*(ln(qrot/sn)+1.5)
    R    = 8.31441 J/mol/K = 1.987191683e-3 kcal/mol/K
    qrot = 197459.8589343
    sn is the rotational symmetry number. We have assumed 3 here
       if it is different for your molecule then you should correct
       the printed rotational entropy by manually evaluating the equation
       as given above

For convenience we print out the resulting values for sn=1 - 12:
 sn= 1  qrot/sn=  197459.8589 T*S(rot)=     8.11 kcal/mol T*S(tot)=    23.90 kcal/mol
 sn= 2  qrot/sn=   98729.9295 T*S(rot)=     7.70 kcal/mol T*S(tot)=    23.49 kcal/mol
 sn= 3  qrot/sn=   65819.9530 T*S(rot)=     7.46 kcal/mol T*S(tot)=    23.25 kcal/mol
 sn= 4  qrot/sn=   49364.9647 T*S(rot)=     7.29 kcal/mol T*S(tot)=    23.08 kcal/mol
 sn= 5  qrot/sn=   39491.9718 T*S(rot)=     7.16 kcal/mol T*S(tot)=    22.95 kcal/mol
 sn= 6  qrot/sn=   32909.9765 T*S(rot)=     7.05 kcal/mol T*S(tot)=    22.84 kcal/mol
 sn= 7  qrot/sn=   28208.5513 T*S(rot)=     6.96 kcal/mol T*S(tot)=    22.75 kcal/mol
 sn= 8  qrot/sn=   24682.4824 T*S(rot)=     6.88 kcal/mol T*S(tot)=    22.67 kcal/mol
 sn= 9  qrot/sn=   21939.9843 T*S(rot)=     6.81 kcal/mol T*S(tot)=    22.60 kcal/mol
 sn=10  qrot/sn=   19745.9859 T*S(rot)=     6.75 kcal/mol T*S(tot)=    22.54 kcal/mol
 sn=11  qrot/sn=   17950.8963 T*S(rot)=     6.69 kcal/mol T*S(tot)=    22.48 kcal/mol
 sn=12  qrot/sn=   16454.9882 T*S(rot)=     6.64 kcal/mol T*S(tot)=    22.43 kcal/mol

-------------------
GIBBS FREE ENTHALPY
-------------------

The Gibbs free enthalpy is G = H - T*S

Total enthalpy                    ...   -325.83429935 Eh
Total entropy correction          ...     -0.03705308 Eh    -23.25 kcal/mol
-----------------------------------------------------------------------
Final Gibbs free enthalpy         ...   -325.87135243 Eh

For completeness - the Gibbs free enthalpy minus the electronic energy
G-E(el)                           ...      0.12535838 Eh     78.66 kcal/mol

                             ****ORCA TERMINATED NORMALLY****
TOTAL RUN TIME: 0 days 0 hours 39 minutes 43 seconds 112 msec
