                         Program Version 3.0.3 - RELEASE   -
|  1> ! NORI PBE0 def2-TZVP UseSym TightOPT Freq TightSCF Grid3 FinalGrid5 XYZFile
|  2> % pal
|  3>     nprocs 8
|  4> end
|  5> %method
|  6>     SymThresh 5.0e-2
|  7> end
|  8> % geom
|  9>     MaxIter 10
| 10> end
| 11> % maxcore 2000
| 12> % output
| 13>     printlevel mini
| 14>     print[ P_Basis ] 0
| 15>     print[ P_SCFInfo ] 1
| 16>     print[ P_SCFIterInfo ] 1
| 17>     print[ P_OrbEn ] 0
| 18>     print[ P_Cartesian ] 0
| 19> end
| 20> % elprop
| 21>     Dipole false
| 22> end
| 23> *xyz 1 1
| 24>  N        1.0066304813     0.0751074591    -0.2237634701
| 25>  C        2.4938466186     0.0188486129    -0.0210998532
| 26>  C        2.9795342564     1.1228668351     0.9180601453
| 27>  O        4.1737312016     0.6185754397     1.4439105600
| 28>  C        4.1946704173    -0.7572000538     1.3829271996
| 29>  C        5.1976386864    -1.4716417835     1.8564326887
| 30>  C        2.9420777073    -1.2401500043     0.6995150006
| 31>  H        0.6839175047    -0.6932676096    -0.8166094557
| 32>  H        0.7173578971     0.9504725654    -0.6677370015
| 33>  H        0.5161703682     0.0034765732     0.6718673444
| 34>  H        2.9416484054     0.1089179646    -1.0119277322
| 35>  H        2.2419472875     1.3009699953     1.7178449019
| 36>  H        3.1857608122     2.0702124461     0.4165130430
| 37>  H        5.1911789582    -2.5484550652     1.7623856978
| 38>  H        6.0373418476    -0.9971438143     2.3458161766
| 39>  H        3.1240044156    -2.0891466938     0.0413809940
| 40>  H        2.1962131346    -1.5373728669     1.4487937609
| 41> *
| 42>
| 43>                          ****END OF INPUT****
 Total Charge           Charge          ....    1
 Multiplicity           Mult            ....    1
 Number of Electrons    NEL             ....   54
FINAL SINGLE POINT ENERGY      -325.990264565704

CARTESIAN COORDINATES (ANGSTROEM)
---------------------------------
  N      1.677823   -0.000284   -1.806339
  C      0.739505   -0.472780   -0.733020
  C      1.181584   -0.003713    0.653150
  O      0.000031   -0.000394    1.401988
  C     -1.100235    0.120424    0.582260
  C     -2.330301    0.190900    1.053863
  C     -0.646176    0.135777   -0.853993
  H      1.350681   -0.279580   -2.734110
  H      2.618740   -0.382492   -1.682435
  H      1.752535    1.020696   -1.797903
  H      0.719685   -1.561496   -0.801195
  H      1.614868    1.008807    0.597878
  H      1.903592   -0.666177    1.133981
  H     -3.170099    0.255126    0.376706
  H     -2.519533    0.189222    2.118761
  H     -1.317934   -0.413916   -1.512343
  H     -0.578744    1.170783   -1.215403

FINAL SINGLE POINT ENERGY      -325.990265173123
                    ***********************HURRAY********************
 Multiplicity           Mult            ....    1
 Number of Electrons    NEL             ....   54
 Basis Dimension        Dim             ....  277
FINAL SINGLE POINT ENERGY      -325.990265338328

VIBRATIONAL FREQUENCIES
-----------------------

   0:         0.00 cm**-1
   1:         0.00 cm**-1
   2:         0.00 cm**-1
   3:         0.00 cm**-1
   4:         0.00 cm**-1
   5:         0.00 cm**-1
   6:        76.21 cm**-1
   7:       146.81 cm**-1
   8:       210.57 cm**-1
   9:       272.23 cm**-1
  10:       399.64 cm**-1
  11:       433.64 cm**-1
  12:       472.45 cm**-1
  13:       555.92 cm**-1
  14:       666.80 cm**-1
  15:       731.70 cm**-1
  16:       860.36 cm**-1
  17:       875.27 cm**-1
  18:       891.60 cm**-1
  19:       908.00 cm**-1
  20:       916.06 cm**-1
  21:       964.31 cm**-1
  22:       983.39 cm**-1
  23:      1042.47 cm**-1
  24:      1102.34 cm**-1
  25:      1148.19 cm**-1
  26:      1183.24 cm**-1
  27:      1212.08 cm**-1
  28:      1254.40 cm**-1
  29:      1284.22 cm**-1
  30:      1291.45 cm**-1
  31:      1351.40 cm**-1
  32:      1385.24 cm**-1
  33:      1419.42 cm**-1
  34:      1430.49 cm**-1
  35:      1474.32 cm**-1
  36:      1505.89 cm**-1
  37:      1520.39 cm**-1
  38:      1651.31 cm**-1
  39:      1660.79 cm**-1
  40:      1769.36 cm**-1
  41:      2975.79 cm**-1
  42:      3026.90 cm**-1
  43:      3115.45 cm**-1
  44:      3126.16 cm**-1
  45:      3145.23 cm**-1
  46:      3194.43 cm**-1
  47:      3290.93 cm**-1
  48:      3410.79 cm**-1
  49:      3490.01 cm**-1
  50:      3498.43 cm**-1

IR SPECTRUM
-----------

 Mode    freq (cm**-1)   T**2         TX         TY         TZ
-------------------------------------------------------------------
   6:        76.21    5.914681  (  0.030009  -2.426761  -0.156882)
   7:       146.81    0.460539  ( -0.245513  -0.374282   0.510074)
   8:       210.57    0.016596  (  0.098866  -0.061299   0.055355)
   9:       272.23    6.869518  (  1.892642  -0.348457   1.779326)
  10:       399.64    5.733247  (  1.324638  -0.662757  -1.881312)
  11:       433.64   11.414520  ( -2.462431   0.888040   2.135963)
  12:       472.45    7.358872  ( -1.478533  -1.998461   1.085803)
  13:       555.92    3.656367  ( -1.110567   0.717665   1.381292)
  14:       666.80    2.470426  (  0.242377  -0.243400   1.533765)
  15:       731.70    0.832116  ( -0.083993  -0.733663   0.535537)
  16:       860.36   27.172253  (  4.621413   0.341879   2.387031)
  17:       875.27   22.282180  ( -3.332958   2.340698   2.386357)
  18:       891.60   45.562101  (  0.093351   6.748734   0.089282)
  19:       908.00   10.213726  (  0.852596   3.038283   0.505612)
  20:       916.06    4.579319  (  1.651249  -0.153455   1.352459)
  21:       964.31   17.313651  ( -3.284585  -0.905230  -2.388663)
  22:       983.39    5.653964  (  0.842622  -1.965594   1.039419)
  23:      1042.47   10.539352  ( -2.201281  -0.731281   2.271330)
  24:      1102.34    5.353930  (  1.168975   1.474345  -1.346750)
  25:      1148.19   86.502116  (  8.681424  -0.234398  -3.328671)
  26:      1183.24   34.273991  ( -5.253675  -0.086689   2.581738)
  27:      1212.08    2.239597  ( -1.421331  -0.092489  -0.459196)
  28:      1254.40  102.420315  (  9.751218  -0.676179   2.622374)
  29:      1284.22    1.639595  ( -0.688016  -0.009161   1.079882)
  30:      1291.45   27.150384  (  5.090116  -0.707897   0.860225)
  31:      1351.40    9.201521  ( -3.024745   0.200846  -0.110002)
  32:      1385.24   13.042837  ( -1.271351  -0.936529  -3.247986)
  33:      1419.42    6.158795  ( -1.854187   0.916360   1.371521)
  34:      1430.49    4.954432  ( -1.479997   0.977400   1.344890)
  35:      1474.32    9.141305  (  2.617124  -1.103137   1.036848)
  36:      1505.89  100.866992  (  5.688544   2.761827  -7.802549)
  37:      1520.39   63.426779  ( -4.996855  -3.626465   5.030604)
  38:      1651.31   38.114376  ( -4.682929   0.033046  -4.022868)
  39:      1660.79   50.751314  (  1.478804  -6.695393  -1.932917)
  40:      1769.36  116.017642  (-10.507555   0.611132   2.288112)
  41:      2975.79   50.191784  (  5.724759   3.789900  -1.748021)
  42:      3026.90   12.924612  (  2.203310   1.633055  -2.324472)
  43:      3115.45    3.786083  ( -1.820762   0.677161  -0.111186)
  44:      3126.16    2.761885  ( -1.240969   1.093992  -0.158309)
  45:      3145.23    0.084856  (  0.040951  -0.118265  -0.263044)
  46:      3194.43    8.266753  ( -2.485491   0.136501   1.438907)
  47:      3290.93    0.849110  (  0.136005  -0.037311   0.910616)
  48:      3410.79   49.724395  ( -4.821181  -1.706992   4.854564)
  49:      3490.01   91.258036  ( -3.894795   8.463837   2.109995)
  50:      3498.43   99.303482  (  6.554837   1.296604   7.392997)

--------------------------
THERMOCHEMISTRY AT 298.15K
--------------------------

Temperature         ... 298.15 K
Pressure            ... 1.00 atm
Total Mass          ... 100.14 AMU

Throughout the following assumptions are being made:
  (1) The electronic state is orbitally nondegenerate
  (2) There are no thermally accessible electronically excited states
  (3) Hindered rotations indicated by low frequency modes) are not
      treated as such but are treated as vibrations and this may
      case some error
  (4) All equations used are the standard statistical mechanics
      equations for an ideal gas
  (5) All vibrations are strinctly harmonic

------------
INNER ENERGY
------------

The inner energy is: U= E(el) + E(ZPE) + E(vib) + E(rot) + E(trans)
    E(el)   - is the total energy from the electronic structure calculation
              = E(kin-el) + E(nuc-el) + E(el-el) + E(nuc-nuc)
    E(ZPE)  - the the zero temperature vibrational energy from the frequency calculation
    E(vib)  - the the finite temperature correction to E(ZPE) due to population
              of excietd vibrational states
    E(rot)  - is the rotational thermal energy
    E(trans)- is the translational thermal energy

Summary of contributions to the inner energy U:
Electronic energy                ...   -325.99026534 Eh
Zero point energy                ...      0.15338008 Eh      96.25 kcal/mol
Thermal vibrational correction   ...      0.00423867 Eh       2.66 kcal/mol
Thermal rotational correction    ...      0.00141627 Eh       0.89 kcal/mol
Thermal translational correction ...      0.00141627 Eh       0.89 kcal/mol
-----------------------------------------------------------------------
Total thermal energy                   -325.82981405 Eh

Summary of corrections to the electronic energy:
(perhaps to be used in another calculation)
Total thermal correction                  0.00707121 Eh       4.44 kcal/mol
Non-thermal (ZPE) correction              0.15338008 Eh      96.25 kcal/mol
-----------------------------------------------------------------------
Total correction                          0.16045129 Eh     100.68 kcal/mol

--------
ENTHALPY
--------

The enthalpy is H = U + kB*T
                kB is Boltzmann's constant
Total free energy                 ...   -325.82981405 Eh
Thermal Enthalpy correction       ...      0.00094421 Eh       0.59 kcal/mol
-----------------------------------------------------------------------
Total Enthalpy                    ...   -325.82886984 Eh

-------
ENTROPY
-------

The entropy contributions are T*S = T*(S(el)+S(vib)+S(rot)+S(trans)
     S(el)   - electronic entropy
     S(vib)  - vibrational entropy
     S(rot)  - rotational entropy
     S(trans)- translational entropy
The entropies will be listed as mutliplied by the temperature to get
units of energy

Electronic entropy                ...      0.00000000 Eh      0.00 kcal/mol
Vibrational entropy               ...      0.00733571 Eh      4.60 kcal/mol
Rotational entropy                ...      0.01192592 Eh      7.48 kcal/mol
Translational entropy             ...      0.01887324 Eh     11.84 kcal/mol
-----------------------------------------------------------------------
Final entropy term                ...      0.03813487 Eh     23.93 kcal/mol

CAUTION: The rotational entropy is not quite correctly treated here
         because it includes a symmetry number that is not yet correctly
         implemented in ORCA!
For a nonlinear molecule the correct rotational entropy is:
    S(rot) = R*(ln(qrot/sn)+1.5)
    R    = 8.31441 J/mol/K = 1.987191683e-3 kcal/mol/K
    qrot = 204757.0827395
    sn is the rotational symmetry number. We have assumed 3 here
       if it is different for your molecule then you should correct
       the printed rotational entropy by manually evaluating the equation
       as given above

For convenience we print out the resulting values for sn=1 - 12:
 sn= 1  qrot/sn=  204757.0827 T*S(rot)=     8.13 kcal/mol T*S(tot)=    24.58 kcal/mol
 sn= 2  qrot/sn=  102378.5414 T*S(rot)=     7.72 kcal/mol T*S(tot)=    24.17 kcal/mol
 sn= 3  qrot/sn=   68252.3609 T*S(rot)=     7.48 kcal/mol T*S(tot)=    23.93 kcal/mol
 sn= 4  qrot/sn=   51189.2707 T*S(rot)=     7.31 kcal/mol T*S(tot)=    23.76 kcal/mol
 sn= 5  qrot/sn=   40951.4165 T*S(rot)=     7.18 kcal/mol T*S(tot)=    23.63 kcal/mol
 sn= 6  qrot/sn=   34126.1805 T*S(rot)=     7.07 kcal/mol T*S(tot)=    23.52 kcal/mol
 sn= 7  qrot/sn=   29251.0118 T*S(rot)=     6.98 kcal/mol T*S(tot)=    23.43 kcal/mol
 sn= 8  qrot/sn=   25594.6353 T*S(rot)=     6.90 kcal/mol T*S(tot)=    23.35 kcal/mol
 sn= 9  qrot/sn=   22750.7870 T*S(rot)=     6.83 kcal/mol T*S(tot)=    23.28 kcal/mol
 sn=10  qrot/sn=   20475.7083 T*S(rot)=     6.77 kcal/mol T*S(tot)=    23.22 kcal/mol
 sn=11  qrot/sn=   18614.2802 T*S(rot)=     6.71 kcal/mol T*S(tot)=    23.16 kcal/mol
 sn=12  qrot/sn=   17063.0902 T*S(rot)=     6.66 kcal/mol T*S(tot)=    23.11 kcal/mol

-------------------
GIBBS FREE ENTHALPY
-------------------

The Gibbs free enthalpy is G = H - T*S

Total enthalpy                    ...   -325.82886984 Eh
Total entropy correction          ...     -0.03813487 Eh    -23.93 kcal/mol
-----------------------------------------------------------------------
Final Gibbs free enthalpy         ...   -325.86700471 Eh

For completeness - the Gibbs free enthalpy minus the electronic energy
G-E(el)                           ...      0.12326063 Eh     77.35 kcal/mol

                             ****ORCA TERMINATED NORMALLY****
TOTAL RUN TIME: 0 days 0 hours 38 minutes 48 seconds 801 msec
