                         Program Version 3.0.3 - RELEASE   -
|  1> ! NORI PBE0 def2-TZVP UseSym TightOPT Freq TightSCF Grid3 FinalGrid5 XYZFile
|  2> % pal
|  3>     nprocs 8
|  4> end
|  5> %method
|  6>     SymThresh 5.0e-2
|  7> end
|  8> % geom
|  9>     MaxIter 10
| 10> end
| 11> % maxcore 2000
| 12> % output
| 13>     printlevel mini
| 14>     print[ P_Basis ] 0
| 15>     print[ P_SCFInfo ] 1
| 16>     print[ P_SCFIterInfo ] 1
| 17>     print[ P_OrbEn ] 0
| 18>     print[ P_Cartesian ] 0
| 19> end
| 20> % elprop
| 21>     Dipole false
| 22> end
| 23> *xyz 1 1
| 24>  N        0.9276085351    -0.0869736215     0.3390945922
| 25>  C        2.4157137136    -0.0947719475     0.0408675828
| 26>  C        2.7532057882     1.1533847041    -0.7741394916
| 27>  O        4.0468082856     1.0415987493    -1.2633732300
| 28>  C        4.1956189740     0.0060361450    -2.2117491367
| 29>  C        3.5460937045    -1.2624899374    -1.7853693611
| 30>  C        2.7437516077    -1.3298477191    -0.7290964875
| 31>  H        0.6496347136     0.7468738637     0.8623984486
| 32>  H        0.6593935371    -0.9059408547     0.8890549586
| 33>  H        0.3935526952    -0.1118327670    -0.5335084370
| 34>  H        2.9015653201    -0.0674799469     1.0208857002
| 35>  H        2.0204599041     1.2629426493    -1.5931508944
| 36>  H        2.7179483821     2.0557442402    -0.1582723259
| 37>  H        3.8026535671     0.3196702633    -3.1913423804
| 38>  H        5.2705860484    -0.1467952543    -2.3323204300
| 39>  H        3.7739696652    -2.1548636080    -2.3589121271
| 40>  H        2.3449655584    -2.2816149587    -0.3879969807
| 41> *
| 42>
| 43>                          ****END OF INPUT****
 Total Charge           Charge          ....    1
 Multiplicity           Mult            ....    1
 Number of Electrons    NEL             ....   54
FINAL SINGLE POINT ENERGY      -325.992150492367

CARTESIAN COORDINATES (ANGSTROEM)
---------------------------------
  N      1.574667    0.000477   -1.709249
  C      0.688476    0.523006   -0.593508
  C      0.964623   -0.294579    0.668098
  O      0.000170   -0.000368    1.621198
  C     -1.294289   -0.428825    1.254419
  C     -1.637806   -0.084712   -0.151413
  C     -0.737680    0.383216   -1.008848
  H      2.566618    0.067629   -1.469282
  H      1.425014    0.525896   -2.573120
  H      1.356301   -0.980656   -1.902289
  H      0.988021    1.566967   -0.458738
  H      0.965353   -1.369121    0.413033
  H      1.935339   -0.044109    1.103466
  H     -1.402145   -1.513059    1.413835
  H     -1.986341    0.065671    1.939987
  H     -2.673073   -0.204205   -0.453696
  H     -1.027226    0.704108   -2.006113

FINAL SINGLE POINT ENERGY      -325.992151083719
                    ***********************HURRAY********************
 Multiplicity           Mult            ....    1
 Number of Electrons    NEL             ....   54
 Basis Dimension        Dim             ....  277
FINAL SINGLE POINT ENERGY      -325.992151481640

VIBRATIONAL FREQUENCIES
-----------------------

   0:         0.00 cm**-1
   1:         0.00 cm**-1
   2:         0.00 cm**-1
   3:         0.00 cm**-1
   4:         0.00 cm**-1
   5:         0.00 cm**-1
   6:       119.87 cm**-1
   7:       209.23 cm**-1
   8:       276.50 cm**-1
   9:       296.83 cm**-1
  10:       339.82 cm**-1
  11:       462.51 cm**-1
  12:       494.02 cm**-1
  13:       537.85 cm**-1
  14:       700.06 cm**-1
  15:       771.26 cm**-1
  16:       870.83 cm**-1
  17:       913.64 cm**-1
  18:       942.05 cm**-1
  19:       954.24 cm**-1
  20:       981.64 cm**-1
  21:      1010.93 cm**-1
  22:      1034.92 cm**-1
  23:      1054.13 cm**-1
  24:      1127.22 cm**-1
  25:      1152.88 cm**-1
  26:      1190.34 cm**-1
  27:      1235.71 cm**-1
  28:      1262.60 cm**-1
  29:      1322.04 cm**-1
  30:      1361.97 cm**-1
  31:      1367.69 cm**-1
  32:      1385.30 cm**-1
  33:      1421.78 cm**-1
  34:      1432.85 cm**-1
  35:      1467.63 cm**-1
  36:      1486.53 cm**-1
  37:      1498.73 cm**-1
  38:      1649.58 cm**-1
  39:      1656.07 cm**-1
  40:      1727.04 cm**-1
  41:      2959.59 cm**-1
  42:      3001.58 cm**-1
  43:      3078.67 cm**-1
  44:      3103.96 cm**-1
  45:      3110.53 cm**-1
  46:      3168.42 cm**-1
  47:      3204.74 cm**-1
  48:      3410.00 cm**-1
  49:      3494.36 cm**-1
  50:      3504.50 cm**-1

IR SPECTRUM
-----------

 Mode    freq (cm**-1)   T**2         TX         TY         TZ
-------------------------------------------------------------------
   6:       119.87    7.270004  (  0.733887   2.594181  -0.040487)
   7:       209.23    0.173358  ( -0.092124  -0.369498  -0.168352)
   8:       276.50    4.814892  (  0.808409   1.754863   1.040107)
   9:       296.83    8.974911  (  2.454290  -1.526350   0.788435)
  10:       339.82    7.608531  (  1.169043   1.427335  -2.050508)
  11:       462.51    4.318226  (  1.924439   0.198828  -0.758439)
  12:       494.02    7.804496  (  0.380715   0.341108   2.746488)
  13:       537.85    5.380774  ( -0.266628  -1.986826   1.167137)
  14:       700.06   36.879029  (  2.270596  -5.208353  -2.143941)
  15:       771.26   13.699996  ( -2.853156   2.357825   0.012406)
  16:       870.83   24.708055  (  0.055717  -1.972658   4.562189)
  17:       913.64    7.888484  ( -0.014379  -2.250794  -1.679941)
  18:       942.05   10.628618  ( -2.840152   1.591266  -0.173286)
  19:       954.24    8.600159  ( -2.456497   0.232703   1.584812)
  20:       981.64    2.151394  (  0.414884   1.202219  -0.730708)
  21:      1010.93   15.725458  ( -0.258652   1.474170   3.672245)
  22:      1034.92   26.603152  ( -2.926778  -3.084195  -2.919738)
  23:      1054.13    6.412245  ( -0.919912   2.113037   1.049325)
  24:      1127.22    4.480522  ( -1.359646  -1.093593  -1.198307)
  25:      1152.88   17.370905  ( -4.034352   0.782425  -0.694783)
  26:      1190.34   22.698270  (  3.749972  -0.465161  -2.901656)
  27:      1235.71   50.537328  (  6.592067   1.133287  -2.407830)
  28:      1262.60   17.537231  (  4.099375   0.259336  -0.815536)
  29:      1322.04    1.221312  ( -0.367113   0.404832   0.960547)
  30:      1361.97   12.448160  ( -2.913543  -0.885526   1.781928)
  31:      1367.69   20.640455  ( -3.436009  -2.042508   2.159273)
  32:      1385.30    4.381632  ( -1.631326  -0.288428   1.279538)
  33:      1421.78    2.524865  (  0.407634  -0.125777  -1.530647)
  34:      1432.85   18.048588  ( -3.405854  -0.688412   2.444347)
  35:      1467.63   11.239554  ( -1.183492  -1.712535   2.627951)
  36:      1486.53   50.618416  ( -3.625716   0.668365   6.084890)
  37:      1498.73  121.272613  ( -6.558745   4.680717   7.506422)
  38:      1649.58   39.706328  (  2.827361  -4.104587   3.855480)
  39:      1656.07   46.197306  (  4.676294   4.835481   0.973500)
  40:      1727.04   13.373781  ( -2.414525  -0.981157   2.565382)
  41:      2959.59   39.630908  ( -3.263405   4.880152   2.272710)
  42:      3001.58   13.371004  ( -2.143415  -2.952895   0.239138)
  43:      3078.67    0.929070  (  0.511691   0.786065  -0.222136)
  44:      3103.96   10.848346  ( -3.190526  -0.751108  -0.323621)
  45:      3110.53    0.568087  (  0.624205  -0.294150   0.303201)
  46:      3168.42    0.841386  ( -0.006011   0.197061  -0.895833)
  47:      3204.74    0.344065  ( -0.527361  -0.102155   0.235628)
  48:      3410.00   37.200941  ( -3.733715   1.952357   4.410058)
  49:      3494.36   84.656700  (  5.487556   7.355181  -0.666890)
  50:      3504.50   85.335856  ( -5.132579   3.653468  -6.756083)

--------------------------
THERMOCHEMISTRY AT 298.15K
--------------------------

Temperature         ... 298.15 K
Pressure            ... 1.00 atm
Total Mass          ... 100.14 AMU

Throughout the following assumptions are being made:
  (1) The electronic state is orbitally nondegenerate
  (2) There are no thermally accessible electronically excited states
  (3) Hindered rotations indicated by low frequency modes) are not
      treated as such but are treated as vibrations and this may
      case some error
  (4) All equations used are the standard statistical mechanics
      equations for an ideal gas
  (5) All vibrations are strinctly harmonic

------------
INNER ENERGY
------------

The inner energy is: U= E(el) + E(ZPE) + E(vib) + E(rot) + E(trans)
    E(el)   - is the total energy from the electronic structure calculation
              = E(kin-el) + E(nuc-el) + E(el-el) + E(nuc-nuc)
    E(ZPE)  - the the zero temperature vibrational energy from the frequency calculation
    E(vib)  - the the finite temperature correction to E(ZPE) due to population
              of excietd vibrational states
    E(rot)  - is the rotational thermal energy
    E(trans)- is the translational thermal energy

Summary of contributions to the inner energy U:
Electronic energy                ...   -325.99215148 Eh
Zero point energy                ...      0.15435191 Eh      96.86 kcal/mol
Thermal vibrational correction   ...      0.00386778 Eh       2.43 kcal/mol
Thermal rotational correction    ...      0.00141627 Eh       0.89 kcal/mol
Thermal translational correction ...      0.00141627 Eh       0.89 kcal/mol
-----------------------------------------------------------------------
Total thermal energy                   -325.83109925 Eh

Summary of corrections to the electronic energy:
(perhaps to be used in another calculation)
Total thermal correction                  0.00670033 Eh       4.20 kcal/mol
Non-thermal (ZPE) correction              0.15435191 Eh      96.86 kcal/mol
-----------------------------------------------------------------------
Total correction                          0.16105224 Eh     101.06 kcal/mol

--------
ENTHALPY
--------

The enthalpy is H = U + kB*T
                kB is Boltzmann's constant
Total free energy                 ...   -325.83109925 Eh
Thermal Enthalpy correction       ...      0.00094421 Eh       0.59 kcal/mol
-----------------------------------------------------------------------
Total Enthalpy                    ...   -325.83015504 Eh

-------
ENTROPY
-------

The entropy contributions are T*S = T*(S(el)+S(vib)+S(rot)+S(trans)
     S(el)   - electronic entropy
     S(vib)  - vibrational entropy
     S(rot)  - rotational entropy
     S(trans)- translational entropy
The entropies will be listed as mutliplied by the temperature to get
units of energy

Electronic entropy                ...      0.00000000 Eh      0.00 kcal/mol
Vibrational entropy               ...      0.00624861 Eh      3.92 kcal/mol
Rotational entropy                ...      0.01188693 Eh      7.46 kcal/mol
Translational entropy             ...      0.01887324 Eh     11.84 kcal/mol
-----------------------------------------------------------------------
Final entropy term                ...      0.03700878 Eh     23.22 kcal/mol

CAUTION: The rotational entropy is not quite correctly treated here
         because it includes a symmetry number that is not yet correctly
         implemented in ORCA!
For a nonlinear molecule the correct rotational entropy is:
    S(rot) = R*(ln(qrot/sn)+1.5)
    R    = 8.31441 J/mol/K = 1.987191683e-3 kcal/mol/K
    qrot = 196473.5803799
    sn is the rotational symmetry number. We have assumed 3 here
       if it is different for your molecule then you should correct
       the printed rotational entropy by manually evaluating the equation
       as given above

For convenience we print out the resulting values for sn=1 - 12:
 sn= 1  qrot/sn=  196473.5804 T*S(rot)=     8.11 kcal/mol T*S(tot)=    23.87 kcal/mol
 sn= 2  qrot/sn=   98236.7902 T*S(rot)=     7.70 kcal/mol T*S(tot)=    23.46 kcal/mol
 sn= 3  qrot/sn=   65491.1935 T*S(rot)=     7.46 kcal/mol T*S(tot)=    23.22 kcal/mol
 sn= 4  qrot/sn=   49118.3951 T*S(rot)=     7.29 kcal/mol T*S(tot)=    23.05 kcal/mol
 sn= 5  qrot/sn=   39294.7161 T*S(rot)=     7.16 kcal/mol T*S(tot)=    22.92 kcal/mol
 sn= 6  qrot/sn=   32745.5967 T*S(rot)=     7.05 kcal/mol T*S(tot)=    22.81 kcal/mol
 sn= 7  qrot/sn=   28067.6543 T*S(rot)=     6.96 kcal/mol T*S(tot)=    22.72 kcal/mol
 sn= 8  qrot/sn=   24559.1975 T*S(rot)=     6.88 kcal/mol T*S(tot)=    22.64 kcal/mol
 sn= 9  qrot/sn=   21830.3978 T*S(rot)=     6.81 kcal/mol T*S(tot)=    22.57 kcal/mol
 sn=10  qrot/sn=   19647.3580 T*S(rot)=     6.75 kcal/mol T*S(tot)=    22.51 kcal/mol
 sn=11  qrot/sn=   17861.2346 T*S(rot)=     6.69 kcal/mol T*S(tot)=    22.45 kcal/mol
 sn=12  qrot/sn=   16372.7984 T*S(rot)=     6.64 kcal/mol T*S(tot)=    22.40 kcal/mol

-------------------
GIBBS FREE ENTHALPY
-------------------

The Gibbs free enthalpy is G = H - T*S

Total enthalpy                    ...   -325.83015504 Eh
Total entropy correction          ...     -0.03700878 Eh    -23.22 kcal/mol
-----------------------------------------------------------------------
Final Gibbs free enthalpy         ...   -325.86716381 Eh

For completeness - the Gibbs free enthalpy minus the electronic energy
G-E(el)                           ...      0.12498767 Eh     78.43 kcal/mol

                             ****ORCA TERMINATED NORMALLY****
TOTAL RUN TIME: 0 days 0 hours 35 minutes 15 seconds 67 msec
