                         Program Version 3.0.3 - RELEASE   -
|  1> ! NORI PBE0 def2-TZVP UseSym TightOPT Freq TightSCF Grid3 FinalGrid5 XYZFile
|  2> % pal
|  3>     nprocs 8
|  4> end
|  5> %method
|  6>     SymThresh 5.0e-2
|  7> end
|  8> % geom
|  9>     MaxIter 10
| 10> end
| 11> % maxcore 2000
| 12> % output
| 13>     printlevel mini
| 14>     print[ P_Basis ] 0
| 15>     print[ P_SCFInfo ] 1
| 16>     print[ P_SCFIterInfo ] 1
| 17>     print[ P_OrbEn ] 0
| 18>     print[ P_Cartesian ] 0
| 19> end
| 20> % elprop
| 21>     Dipole false
| 22> end
| 23> *xyz 1 1
| 24>  N        1.0325634351    -0.0671868527     0.0648446842
| 25>  C        2.5391028338    -0.0684438157     0.0968374904
| 26>  C        2.9913129400    -1.4602966431    -0.3272658704
| 27>  O        2.5020775572    -1.7129636528    -1.6227329395
| 28>  C        2.9762403221    -0.7613730738    -2.5426496140
| 29>  O        2.5146053396     0.5236687078    -2.2072198796
| 30>  C        3.0059772421     0.9321127800    -0.9530439230
| 31>  H        0.6406626753     0.8492991207     0.2866152056
| 32>  H        0.6299237024    -0.7560237378     0.7019327802
| 33>  H        0.7589943424    -0.3135498811    -0.8952740783
| 34>  H        2.8620958970     0.1932998894     1.1054644898
| 35>  H        4.0877040622    -1.4970629597    -0.2917391334
| 36>  H        2.6075006618    -2.2461288377     0.3271626557
| 37>  H        4.0757619931    -0.7731414265    -2.5649411293
| 38>  H        2.5621786829    -1.0132923490    -3.5154972185
| 39>  H        2.6329440534     1.9419252961    -0.7678394956
| 40>  H        4.1023942597     0.9683374357    -0.9380340243
| 41> *
| 42>
| 43>                          ****END OF INPUT****
 Total Charge           Charge          ....    1
 Multiplicity           Mult            ....    1
 Number of Electrons    NEL             ....   56
FINAL SINGLE POINT ENERGY      -363.116314653633
FINAL SINGLE POINT ENERGY      -363.116315793033

CARTESIAN COORDINATES (ANGSTROEM)
---------------------------------
  N     -1.227973   -1.405872    0.000000
  C     -1.205719    0.101432   -0.000000
  C     -0.427621    0.534021    1.236870
  O      0.871330   -0.001172    1.155770
  C      1.535325    0.445386    0.000000
  O      0.871330   -0.001172   -1.155770
  C     -0.427621    0.534021   -1.236870
  H     -1.686027   -1.787014   -0.829270
  H     -1.686027   -1.787014    0.829271
  H     -0.246909   -1.714431   -0.000000
  H     -2.235913    0.460161    0.000000
  H     -0.414112    1.630397    1.274885
  H     -0.875029    0.170402    2.164826
  H      1.594669    1.543431    0.000000
  H      2.526697   -0.000710    0.000000
  H     -0.875029    0.170402   -2.164826
  H     -0.414113    1.630397   -1.274885

FINAL SINGLE POINT ENERGY      -363.116315977612
                    ***********************HURRAY********************
 Multiplicity           Mult            ....    1
 Number of Electrons    NEL             ....   56
 Basis Dimension        Dim             ....  277
FINAL SINGLE POINT ENERGY      -363.116316006887

VIBRATIONAL FREQUENCIES
-----------------------

   0:         0.00 cm**-1
   1:         0.00 cm**-1
   2:         0.00 cm**-1
   3:         0.00 cm**-1
   4:         0.00 cm**-1
   5:         0.00 cm**-1
   6:        98.98 cm**-1
   7:       191.71 cm**-1
   8:       239.85 cm**-1
   9:       343.08 cm**-1
  10:       392.22 cm**-1
  11:       466.12 cm**-1
  12:       503.37 cm**-1
  13:       580.70 cm**-1
  14:       768.69 cm**-1
  15:       810.18 cm**-1
  16:       913.54 cm**-1
  17:       939.43 cm**-1
  18:       940.52 cm**-1
  19:       972.33 cm**-1
  20:       992.72 cm**-1
  21:      1045.14 cm**-1
  22:      1058.24 cm**-1
  23:      1121.87 cm**-1
  24:      1145.85 cm**-1
  25:      1182.36 cm**-1
  26:      1213.24 cm**-1
  27:      1242.38 cm**-1
  28:      1302.30 cm**-1
  29:      1326.00 cm**-1
  30:      1358.81 cm**-1
  31:      1372.90 cm**-1
  32:      1381.98 cm**-1
  33:      1410.71 cm**-1
  34:      1431.13 cm**-1
  35:      1484.67 cm**-1
  36:      1487.38 cm**-1
  37:      1498.80 cm**-1
  38:      1512.47 cm**-1
  39:      1640.66 cm**-1
  40:      1645.96 cm**-1
  41:      3014.92 cm**-1
  42:      3040.78 cm**-1
  43:      3047.44 cm**-1
  44:      3115.13 cm**-1
  45:      3116.33 cm**-1
  46:      3130.87 cm**-1
  47:      3181.43 cm**-1
  48:      3376.69 cm**-1
  49:      3477.42 cm**-1
  50:      3522.43 cm**-1

IR SPECTRUM
-----------

 Mode    freq (cm**-1)   T**2         TX         TY         TZ
-------------------------------------------------------------------
   6:        98.98    5.246418  ( -0.000063   0.000004   2.290506)
   7:       191.71   25.307084  (  4.787909   1.543700  -0.000090)
   8:       239.85    9.784647  ( -0.000174  -0.000060  -3.128042)
   9:       343.08   24.765006  ( -1.486394  -4.749278  -0.000002)
  10:       392.22    4.788628  (  0.000003   0.000050  -2.188293)
  11:       466.12    3.596372  ( -0.441025  -1.844416  -0.000032)
  12:       503.37    3.409812  ( -0.000006  -0.000007  -1.846568)
  13:       580.70   14.443946  (  2.915639   2.437826   0.000017)
  14:       768.69    0.959565  (  0.938622  -0.280272   0.000006)
  15:       810.18    6.735439  (  1.540984   2.088255  -0.000011)
  16:       913.54   11.052806  ( -0.000019  -0.000001   3.324576)
  17:       939.43    8.997988  ( -0.000028  -0.000107  -2.999665)
  18:       940.52    1.693622  (  0.043400   1.300669  -0.000339)
  19:       972.33   25.131891  (  2.455930  -4.370389  -0.000036)
  20:       992.72   73.124780  ( -0.000006   0.000002   8.551303)
  21:      1045.14   65.446481  ( -6.516543  -4.793865  -0.000053)
  22:      1058.24   38.164294  ( -0.000055  -0.000035   6.177726)
  23:      1121.87    1.830732  (  1.335759   0.215595   0.000001)
  24:      1145.85   37.696837  (  0.000006   0.000004   6.139775)
  25:      1182.36   51.346112  (  7.156197   0.367357  -0.000009)
  26:      1213.24  114.184073  ( 10.596894  -1.374736   0.000018)
  27:      1242.38   26.615708  (  0.000020  -0.000014  -5.159041)
  28:      1302.30   10.727219  (  1.393091  -2.964206  -0.000001)
  29:      1326.00    3.231631  ( -0.000013   0.000016   1.797674)
  30:      1358.81    0.412124  (  0.000000   0.000041  -0.641969)
  31:      1372.90    0.214555  (  0.000009   0.000006  -0.463201)
  32:      1381.98   18.413979  ( -4.228247  -0.732058   0.000013)
  33:      1410.71    5.352239  (  0.329312  -2.289933  -0.000011)
  34:      1431.13    0.997455  (  0.000000   0.000010  -0.998727)
  35:      1484.67  141.275724  (  0.179541  11.884590  -0.000084)
  36:      1487.38   13.746068  (  0.000008  -0.000432  -3.707569)
  37:      1498.80   42.925724  (  1.690427   6.329943   0.000027)
  38:      1512.47   12.051081  ( -0.901431  -3.352388  -0.000010)
  39:      1640.66   42.067315  ( -0.001075  -0.000032  -6.485932)
  40:      1645.96   43.891136  ( -6.563535  -0.900638   0.001047)
  41:      3014.92   31.779264  (  3.085296   4.718073   0.000003)
  42:      3040.78    3.043573  (  0.000001   0.000020  -1.744584)
  43:      3047.44   16.441521  ( -2.860689   2.873670  -0.000001)
  44:      3115.13    5.567299  (  0.000020   0.000002  -2.359512)
  45:      3116.33    6.163129  (  1.692160   1.816514   0.000013)
  46:      3130.87    1.266484  ( -1.125348   0.008650   0.000001)
  47:      3181.43    1.899225  ( -1.286629   0.493772  -0.000001)
  48:      3376.69   49.857770  ( -6.186440   3.403782  -0.000001)
  49:      3477.42  116.529753  ( -9.603161  -4.930421   0.000009)
  50:      3522.43   88.958464  ( -0.000008  -0.000009  -9.431779)

--------------------------
THERMOCHEMISTRY AT 298.15K
--------------------------

Temperature         ... 298.15 K
Pressure            ... 1.00 atm
Total Mass          ... 104.13 AMU

Throughout the following assumptions are being made:
  (1) The electronic state is orbitally nondegenerate
  (2) There are no thermally accessible electronically excited states
  (3) Hindered rotations indicated by low frequency modes) are not
      treated as such but are treated as vibrations and this may
      case some error
  (4) All equations used are the standard statistical mechanics
      equations for an ideal gas
  (5) All vibrations are strinctly harmonic

------------
INNER ENERGY
------------

The inner energy is: U= E(el) + E(ZPE) + E(vib) + E(rot) + E(trans)
    E(el)   - is the total energy from the electronic structure calculation
              = E(kin-el) + E(nuc-el) + E(el-el) + E(nuc-nuc)
    E(ZPE)  - the the zero temperature vibrational energy from the frequency calculation
    E(vib)  - the the finite temperature correction to E(ZPE) due to population
              of excietd vibrational states
    E(rot)  - is the rotational thermal energy
    E(trans)- is the translational thermal energy

Summary of contributions to the inner energy U:
Electronic energy                ...   -363.11631601 Eh
Zero point energy                ...      0.15500604 Eh      97.27 kcal/mol
Thermal vibrational correction   ...      0.00376419 Eh       2.36 kcal/mol
Thermal rotational correction    ...      0.00141627 Eh       0.89 kcal/mol
Thermal translational correction ...      0.00141627 Eh       0.89 kcal/mol
-----------------------------------------------------------------------
Total thermal energy                   -362.95471323 Eh

Summary of corrections to the electronic energy:
(perhaps to be used in another calculation)
Total thermal correction                  0.00659674 Eh       4.14 kcal/mol
Non-thermal (ZPE) correction              0.15500604 Eh      97.27 kcal/mol
-----------------------------------------------------------------------
Total correction                          0.16160278 Eh     101.41 kcal/mol

--------
ENTHALPY
--------

The enthalpy is H = U + kB*T
                kB is Boltzmann's constant
Total free energy                 ...   -362.95471323 Eh
Thermal Enthalpy correction       ...      0.00094421 Eh       0.59 kcal/mol
-----------------------------------------------------------------------
Total Enthalpy                    ...   -362.95376902 Eh

-------
ENTROPY
-------

The entropy contributions are T*S = T*(S(el)+S(vib)+S(rot)+S(trans)
     S(el)   - electronic entropy
     S(vib)  - vibrational entropy
     S(rot)  - rotational entropy
     S(trans)- translational entropy
The entropies will be listed as mutliplied by the temperature to get
units of energy

Electronic entropy                ...      0.00000000 Eh      0.00 kcal/mol
Vibrational entropy               ...      0.00624867 Eh      3.92 kcal/mol
Rotational entropy                ...      0.01177261 Eh      7.39 kcal/mol
Translational entropy             ...      0.01892854 Eh     11.88 kcal/mol
-----------------------------------------------------------------------
Final entropy term                ...      0.03694982 Eh     23.19 kcal/mol

CAUTION: The rotational entropy is not quite correctly treated here
         because it includes a symmetry number that is not yet correctly
         implemented in ORCA!
For a nonlinear molecule the correct rotational entropy is:
    S(rot) = R*(ln(qrot/sn)+1.5)
    R    = 8.31441 J/mol/K = 1.987191683e-3 kcal/mol/K
    qrot = 174068.7305480
    sn is the rotational symmetry number. We have assumed 3 here
       if it is different for your molecule then you should correct
       the printed rotational entropy by manually evaluating the equation
       as given above

For convenience we print out the resulting values for sn=1 - 12:
 sn= 1  qrot/sn=  174068.7305 T*S(rot)=     8.04 kcal/mol T*S(tot)=    23.84 kcal/mol
 sn= 2  qrot/sn=   87034.3653 T*S(rot)=     7.63 kcal/mol T*S(tot)=    23.43 kcal/mol
 sn= 3  qrot/sn=   58022.9102 T*S(rot)=     7.39 kcal/mol T*S(tot)=    23.19 kcal/mol
 sn= 4  qrot/sn=   43517.1826 T*S(rot)=     7.22 kcal/mol T*S(tot)=    23.02 kcal/mol
 sn= 5  qrot/sn=   34813.7461 T*S(rot)=     7.08 kcal/mol T*S(tot)=    22.88 kcal/mol
 sn= 6  qrot/sn=   29011.4551 T*S(rot)=     6.98 kcal/mol T*S(tot)=    22.78 kcal/mol
 sn= 7  qrot/sn=   24866.9615 T*S(rot)=     6.89 kcal/mol T*S(tot)=    22.68 kcal/mol
 sn= 8  qrot/sn=   21758.5913 T*S(rot)=     6.81 kcal/mol T*S(tot)=    22.61 kcal/mol
 sn= 9  qrot/sn=   19340.9701 T*S(rot)=     6.74 kcal/mol T*S(tot)=    22.54 kcal/mol
 sn=10  qrot/sn=   17406.8731 T*S(rot)=     6.67 kcal/mol T*S(tot)=    22.47 kcal/mol
 sn=11  qrot/sn=   15824.4300 T*S(rot)=     6.62 kcal/mol T*S(tot)=    22.42 kcal/mol
 sn=12  qrot/sn=   14505.7275 T*S(rot)=     6.57 kcal/mol T*S(tot)=    22.36 kcal/mol

-------------------
GIBBS FREE ENTHALPY
-------------------

The Gibbs free enthalpy is G = H - T*S

Total enthalpy                    ...   -362.95376902 Eh
Total entropy correction          ...     -0.03694982 Eh    -23.19 kcal/mol
-----------------------------------------------------------------------
Final Gibbs free enthalpy         ...   -362.99071884 Eh

For completeness - the Gibbs free enthalpy minus the electronic energy
G-E(el)                           ...      0.12559716 Eh     78.81 kcal/mol

                             ****ORCA TERMINATED NORMALLY****
TOTAL RUN TIME: 0 days 0 hours 39 minutes 54 seconds 522 msec
