                         Program Version 3.0.3 - RELEASE   -
|  1> ! NORI PBE0 def2-TZVP UseSym TightOPT Freq TightSCF Grid3 FinalGrid5 XYZFile
|  2> % pal
|  3>     nprocs 8
|  4> end
|  5> %method
|  6>     SymThresh 5.0e-2
|  7> end
|  8> % geom
|  9>     MaxIter 10
| 10> end
| 11> % maxcore 2000
| 12> % output
| 13>     printlevel mini
| 14>     print[ P_Basis ] 0
| 15>     print[ P_SCFInfo ] 1
| 16>     print[ P_SCFIterInfo ] 1
| 17>     print[ P_OrbEn ] 0
| 18>     print[ P_Cartesian ] 0
| 19> end
| 20> % elprop
| 21>     Dipole false
| 22> end
| 23> *xyz 1 1
| 24>  N        1.0171693579     0.0332556113     0.2203701005
| 25>  C        2.5128039637     0.0167433477     0.0388067047
| 26>  C        2.8461410964    -0.0241138388    -1.4348883203
| 27>  O        4.2362461546    -0.0310412678    -1.5131449185
| 28>  C        3.1131846461     1.0549787495     0.9904532553
| 29>  O        3.1683700437     0.0641505455     2.0278172006
| 30>  C        3.0975692284    -0.9788935759     1.0439572012
| 31>  H        0.5741552004    -0.8019830728    -0.1703586238
| 32>  H        0.5875694288     0.8541952102    -0.2132359216
| 33>  H        0.8171800464     0.0608463401     1.2260776188
| 34>  H        2.3988851491    -0.9241823014    -1.8873690878
| 35>  H        2.4053746767     0.8538204737    -1.9348679917
| 36>  H        4.5194385649    -0.0644060450    -2.4314816827
| 37>  H        2.5142211102     1.9289254044     1.2637169225
| 38>  H        4.1069094924     1.3672048577     0.6618237241
| 39>  H        4.0863440158    -1.3231021599     0.7325464385
| 40>  H        2.4856178245    -1.8280382783     1.3628173802
| 41> *
| 42>
| 43>                          ****END OF INPUT****
 Total Charge           Charge          ....    1
 Multiplicity           Mult            ....    1
 Number of Electrons    NEL             ....   56
FINAL SINGLE POINT ENERGY      -363.076319111799

CARTESIAN COORDINATES (ANGSTROEM)
---------------------------------
  N     -1.205043    1.377321    0.000000
  C     -0.112069    0.339874    0.000000
  C      1.237186    1.021723   -0.000000
  O      2.183385    0.000169    0.000000
  C     -0.489362   -0.740341    1.017344
  O     -1.228685   -1.432753   -0.000000
  C     -0.489361   -0.740341   -1.017344
  H     -1.165101    1.976150   -0.828448
  H     -1.165101    1.976150    0.828448
  H     -2.107992    0.890563    0.000000
  H      1.321587    1.667274   -0.889363
  H      1.321587    1.667274    0.889363
  H      3.072037    0.367625    0.000000
  H     -1.103275   -0.462012    1.879159
  H      0.389081   -1.300943    1.345835
  H      0.389081   -1.300943   -1.345835
  H     -1.103275   -0.462012   -1.879159

FINAL SINGLE POINT ENERGY      -363.076319599060
                    ***********************HURRAY********************
 Multiplicity           Mult            ....    1
 Number of Electrons    NEL             ....   56
 Basis Dimension        Dim             ....  277
FINAL SINGLE POINT ENERGY      -363.076319654735

VIBRATIONAL FREQUENCIES
-----------------------

   0:         0.00 cm**-1
   1:         0.00 cm**-1
   2:         0.00 cm**-1
   3:         0.00 cm**-1
   4:         0.00 cm**-1
   5:         0.00 cm**-1
   6:        96.51 cm**-1
   7:       133.55 cm**-1
   8:       234.29 cm**-1
   9:       250.56 cm**-1
  10:       271.20 cm**-1
  11:       308.83 cm**-1
  12:       383.22 cm**-1
  13:       393.92 cm**-1
  14:       500.49 cm**-1
  15:       649.87 cm**-1
  16:       813.36 cm**-1
  17:       880.44 cm**-1
  18:       914.97 cm**-1
  19:       934.79 cm**-1
  20:       959.78 cm**-1
  21:      1030.60 cm**-1
  22:      1038.75 cm**-1
  23:      1064.36 cm**-1
  24:      1137.62 cm**-1
  25:      1147.15 cm**-1
  26:      1169.84 cm**-1
  27:      1201.93 cm**-1
  28:      1213.54 cm**-1
  29:      1261.83 cm**-1
  30:      1299.30 cm**-1
  31:      1322.78 cm**-1
  32:      1322.93 cm**-1
  33:      1404.50 cm**-1
  34:      1472.74 cm**-1
  35:      1490.26 cm**-1
  36:      1494.37 cm**-1
  37:      1510.87 cm**-1
  38:      1522.54 cm**-1
  39:      1652.16 cm**-1
  40:      1655.98 cm**-1
  41:      2971.62 cm**-1
  42:      3004.67 cm**-1
  43:      3061.52 cm**-1
  44:      3066.97 cm**-1
  45:      3128.75 cm**-1
  46:      3128.89 cm**-1
  47:      3393.97 cm**-1
  48:      3473.49 cm**-1
  49:      3495.23 cm**-1
  50:      3864.18 cm**-1

IR SPECTRUM
-----------

 Mode    freq (cm**-1)   T**2         TX         TY         TZ
-------------------------------------------------------------------
   6:        96.51   14.146944  (  0.000011  -0.000038  -3.761242)
   7:       133.55   18.689324  ( -1.290224   4.126093  -0.000041)
   8:       234.29    6.825498  ( -0.148529   2.608340  -0.000009)
   9:       250.56   79.844761  (  0.000003  -0.000019   8.935590)
  10:       271.20   25.005351  ( -0.000013   0.000047   5.000535)
  11:       308.83   18.750642  (  0.000007  -0.000010   4.330201)
  12:       383.22   10.969871  (  3.248586   0.645415  -0.000020)
  13:       393.92    1.334072  (  0.000058   0.000016   1.155021)
  14:       500.49   20.969538  ( -3.426538   3.037824   0.000002)
  15:       649.87   10.178744  (  2.838314  -1.456954  -0.000000)
  16:       813.36    7.428068  ( -1.372135  -2.354849  -0.000002)
  17:       880.44    0.234621  (  0.000005   0.000003   0.484377)
  18:       914.97   23.784914  (  4.481836   1.923034  -0.000003)
  19:       934.79    2.492199  ( -0.000012  -0.000017  -1.578670)
  20:       959.78   25.019637  (  2.650882   4.241752  -0.000004)
  21:      1030.60    7.043197  (  2.647526   0.183851   0.000004)
  22:      1038.75   31.345997  (  0.000006   0.000004  -5.598750)
  23:      1064.36   51.467518  (  0.000002   0.000002   7.174087)
  24:      1137.62   68.960480  (  5.336812  -6.362304  -0.000000)
  25:      1147.15    1.073063  ( -0.000011   0.000007  -1.035888)
  26:      1169.84   14.283314  (  3.625829  -1.066151  -0.000000)
  27:      1201.93   42.544959  (  4.591929  -4.632402  -0.000000)
  28:      1213.54    0.564757  (  0.000004   0.000000   0.751503)
  29:      1261.83   22.070929  (  0.049919   4.697705  -0.000001)
  30:      1299.30    0.774631  ( -0.000011  -0.000001  -0.880131)
  31:      1322.78   11.339422  (  3.343048   0.404292   0.000001)
  32:      1322.93    0.000402  ( -0.000334  -0.000037   0.020037)
  33:      1404.50   10.029449  (  2.043234   2.419637  -0.000001)
  34:      1472.74   42.170549  (  5.020340  -4.119070   0.000001)
  35:      1490.26  128.848000  ( -9.109129   6.772870  -0.000003)
  36:      1494.37    9.586221  ( -0.000005  -0.000007   3.096162)
  37:      1510.87    9.733557  ( -1.538842   2.713949  -0.000000)
  38:      1522.54    5.839573  (  2.248892   0.884341   0.000000)
  39:      1652.16   35.243239  ( -3.866384  -4.504921  -0.000036)
  40:      1655.98   35.651878  (  0.000028   0.000033  -5.970919)
  41:      2971.62   41.522240  (  2.165298  -6.069079   0.000000)
  42:      3004.67   22.521037  (  0.000000  -0.000000   4.745633)
  43:      3061.52   28.339122  ( -0.000007   0.000013   5.323450)
  44:      3066.97    5.194644  (  0.850841  -2.114406  -0.000000)
  45:      3128.75    3.082632  (  1.696047  -0.453933  -0.000000)
  46:      3128.89    1.664382  ( -0.000009  -0.000009  -1.290109)
  47:      3393.97   42.157649  (  6.232357  -1.820819  -0.000003)
  48:      3473.49   92.294833  ( -5.330247  -7.992703  -0.000009)
  49:      3495.23   76.277805  ( -0.000004  -0.000002   8.733717)
  50:      3864.18  122.005826  (-10.989548  -1.111606  -0.000000)

--------------------------
THERMOCHEMISTRY AT 298.15K
--------------------------

Temperature         ... 298.15 K
Pressure            ... 1.00 atm
Total Mass          ... 104.13 AMU

Throughout the following assumptions are being made:
  (1) The electronic state is orbitally nondegenerate
  (2) There are no thermally accessible electronically excited states
  (3) Hindered rotations indicated by low frequency modes) are not
      treated as such but are treated as vibrations and this may
      case some error
  (4) All equations used are the standard statistical mechanics
      equations for an ideal gas
  (5) All vibrations are strinctly harmonic

------------
INNER ENERGY
------------

The inner energy is: U= E(el) + E(ZPE) + E(vib) + E(rot) + E(trans)
    E(el)   - is the total energy from the electronic structure calculation
              = E(kin-el) + E(nuc-el) + E(el-el) + E(nuc-nuc)
    E(ZPE)  - the the zero temperature vibrational energy from the frequency calculation
    E(vib)  - the the finite temperature correction to E(ZPE) due to population
              of excietd vibrational states
    E(rot)  - is the rotational thermal energy
    E(trans)- is the translational thermal energy

Summary of contributions to the inner energy U:
Electronic energy                ...   -363.07631965 Eh
Zero point energy                ...      0.15202007 Eh      95.39 kcal/mol
Thermal vibrational correction   ...      0.00481764 Eh       3.02 kcal/mol
Thermal rotational correction    ...      0.00141627 Eh       0.89 kcal/mol
Thermal translational correction ...      0.00141627 Eh       0.89 kcal/mol
-----------------------------------------------------------------------
Total thermal energy                   -362.91664941 Eh

Summary of corrections to the electronic energy:
(perhaps to be used in another calculation)
Total thermal correction                  0.00765018 Eh       4.80 kcal/mol
Non-thermal (ZPE) correction              0.15202007 Eh      95.39 kcal/mol
-----------------------------------------------------------------------
Total correction                          0.15967025 Eh     100.19 kcal/mol

--------
ENTHALPY
--------

The enthalpy is H = U + kB*T
                kB is Boltzmann's constant
Total free energy                 ...   -362.91664941 Eh
Thermal Enthalpy correction       ...      0.00094421 Eh       0.59 kcal/mol
-----------------------------------------------------------------------
Total Enthalpy                    ...   -362.91570520 Eh

-------
ENTROPY
-------

The entropy contributions are T*S = T*(S(el)+S(vib)+S(rot)+S(trans)
     S(el)   - electronic entropy
     S(vib)  - vibrational entropy
     S(rot)  - rotational entropy
     S(trans)- translational entropy
The entropies will be listed as mutliplied by the temperature to get
units of energy

Electronic entropy                ...      0.00000000 Eh      0.00 kcal/mol
Vibrational entropy               ...      0.00824997 Eh      5.18 kcal/mol
Rotational entropy                ...      0.01196961 Eh      7.51 kcal/mol
Translational entropy             ...      0.01892854 Eh     11.88 kcal/mol
-----------------------------------------------------------------------
Final entropy term                ...      0.03914812 Eh     24.57 kcal/mol

CAUTION: The rotational entropy is not quite correctly treated here
         because it includes a symmetry number that is not yet correctly
         implemented in ORCA!
For a nonlinear molecule the correct rotational entropy is:
    S(rot) = R*(ln(qrot/sn)+1.5)
    R    = 8.31441 J/mol/K = 1.987191683e-3 kcal/mol/K
    qrot = 214454.6905745
    sn is the rotational symmetry number. We have assumed 3 here
       if it is different for your molecule then you should correct
       the printed rotational entropy by manually evaluating the equation
       as given above

For convenience we print out the resulting values for sn=1 - 12:
 sn= 1  qrot/sn=  214454.6906 T*S(rot)=     8.16 kcal/mol T*S(tot)=    25.22 kcal/mol
 sn= 2  qrot/sn=  107227.3453 T*S(rot)=     7.75 kcal/mol T*S(tot)=    24.81 kcal/mol
 sn= 3  qrot/sn=   71484.8969 T*S(rot)=     7.51 kcal/mol T*S(tot)=    24.57 kcal/mol
 sn= 4  qrot/sn=   53613.6726 T*S(rot)=     7.34 kcal/mol T*S(tot)=    24.40 kcal/mol
 sn= 5  qrot/sn=   42890.9381 T*S(rot)=     7.21 kcal/mol T*S(tot)=    24.26 kcal/mol
 sn= 6  qrot/sn=   35742.4484 T*S(rot)=     7.10 kcal/mol T*S(tot)=    24.16 kcal/mol
 sn= 7  qrot/sn=   30636.3844 T*S(rot)=     7.01 kcal/mol T*S(tot)=    24.06 kcal/mol
 sn= 8  qrot/sn=   26806.8363 T*S(rot)=     6.93 kcal/mol T*S(tot)=    23.98 kcal/mol
 sn= 9  qrot/sn=   23828.2990 T*S(rot)=     6.86 kcal/mol T*S(tot)=    23.91 kcal/mol
 sn=10  qrot/sn=   21445.4691 T*S(rot)=     6.80 kcal/mol T*S(tot)=    23.85 kcal/mol
 sn=11  qrot/sn=   19495.8810 T*S(rot)=     6.74 kcal/mol T*S(tot)=    23.80 kcal/mol
 sn=12  qrot/sn=   17871.2242 T*S(rot)=     6.69 kcal/mol T*S(tot)=    23.74 kcal/mol

-------------------
GIBBS FREE ENTHALPY
-------------------

The Gibbs free enthalpy is G = H - T*S

Total enthalpy                    ...   -362.91570520 Eh
Total entropy correction          ...     -0.03914812 Eh    -24.57 kcal/mol
-----------------------------------------------------------------------
Final Gibbs free enthalpy         ...   -362.95485332 Eh

For completeness - the Gibbs free enthalpy minus the electronic energy
G-E(el)                           ...      0.12146634 Eh     76.22 kcal/mol

                             ****ORCA TERMINATED NORMALLY****
TOTAL RUN TIME: 0 days 0 hours 34 minutes 49 seconds 469 msec
