                         Program Version 3.0.3 - RELEASE   -
|  1> ! NORI PBE0 def2-TZVP UseSym TightOPT Freq TightSCF Grid3 FinalGrid5 XYZFile
|  2> % pal
|  3>     nprocs 8
|  4> end
|  5> %method
|  6>     SymThresh 5.0e-2
|  7> end
|  8> % geom
|  9>     MaxIter 10
| 10> end
| 11> % maxcore 2000
| 12> % output
| 13>     printlevel mini
| 14>     print[ P_Basis ] 0
| 15>     print[ P_SCFInfo ] 1
| 16>     print[ P_SCFIterInfo ] 1
| 17>     print[ P_OrbEn ] 0
| 18>     print[ P_Cartesian ] 0
| 19> end
| 20> % elprop
| 21>     Dipole false
| 22> end
| 23> *xyz 1 1
| 24>  N        0.9712049085     0.1176493241    -0.0874981953
| 25>  C        2.4719199979     0.0772737100    -0.0005045315
| 26>  C        3.0093166318     1.1832885558     0.9174892276
| 27>  O        4.2097630227     0.6653368411     1.4372395897
| 28>  C        4.2603895815    -0.6940533073     1.3496148396
| 29>  O        5.1483241236    -1.3409506829     1.7763296351
| 30>  C        3.0050415469    -1.1864492882     0.6335828505
| 31>  H        0.6160186074    -0.6319754614    -0.6868391197
| 32>  H        0.6381200477     1.0051994388    -0.4753073130
| 33>  H        0.5441412709     0.0037613564     0.8361550862
| 34>  H        2.8328158911     0.2017277832    -1.0227740853
| 35>  H        2.3103005813     1.3946850456     1.7389452669
| 36>  H        3.2264953932     2.1141367540     0.3921680040
| 37>  H        3.2524721357    -1.9876214406    -0.0607771002
| 38>  H        2.3353362599    -1.5909786286     1.4020958454
| 39> *
| 40>
| 41>                          ****END OF INPUT****
 Total Charge           Charge          ....    1
 Multiplicity           Mult            ....    1
 Number of Electrons    NEL             ....   54
FINAL SINGLE POINT ENERGY      -361.921774611784
FINAL SINGLE POINT ENERGY      -361.921775436100
FINAL SINGLE POINT ENERGY      -361.921775743444

CARTESIAN COORDINATES (ANGSTROEM)
---------------------------------
  N     -1.693789   -0.234913   -1.802225
  C     -0.816031    0.397695   -0.757669
  C     -1.196332   -0.073362    0.652669
  O      0.000052   -0.002086    1.389622
  C      1.098702    0.000688    0.582490
  O      2.204770   -0.002023    0.989090
  C      0.637171    0.001000   -0.873154
  H     -1.426919    0.068715   -2.742206
  H     -2.678913    0.010367   -1.668042
  H     -1.621538   -1.255907   -1.774680
  H     -0.952836    1.474654   -0.866017
  H     -1.564136   -1.109387    0.642694
  H     -1.943088    0.559646    1.133032
  H      1.256866    0.668832   -1.468859
  H      0.768445   -1.019534   -1.251875

FINAL SINGLE POINT ENERGY      -361.921775942848
                    ***********************HURRAY********************
 Multiplicity           Mult            ....    1
 Number of Electrons    NEL             ....   54
 Basis Dimension        Dim             ....  265
FINAL SINGLE POINT ENERGY      -361.921776019384

VIBRATIONAL FREQUENCIES
-----------------------

   0:         0.00 cm**-1
   1:         0.00 cm**-1
   2:         0.00 cm**-1
   3:         0.00 cm**-1
   4:         0.00 cm**-1
   5:         0.00 cm**-1
   6:        90.76 cm**-1
   7:       163.23 cm**-1
   8:       223.69 cm**-1
   9:       291.93 cm**-1
  10:       416.19 cm**-1
  11:       500.30 cm**-1
  12:       527.35 cm**-1
  13:       594.26 cm**-1
  14:       691.61 cm**-1
  15:       846.15 cm**-1
  16:       865.59 cm**-1
  17:       908.67 cm**-1
  18:       960.04 cm**-1
  19:       979.03 cm**-1
  20:      1042.15 cm**-1
  21:      1102.24 cm**-1
  22:      1124.40 cm**-1
  23:      1165.30 cm**-1
  24:      1189.95 cm**-1
  25:      1219.50 cm**-1
  26:      1277.37 cm**-1
  27:      1285.47 cm**-1
  28:      1356.89 cm**-1
  29:      1389.93 cm**-1
  30:      1427.21 cm**-1
  31:      1460.66 cm**-1
  32:      1509.98 cm**-1
  33:      1522.76 cm**-1
  34:      1652.78 cm**-1
  35:      1660.61 cm**-1
  36:      1949.86 cm**-1
  37:      3016.46 cm**-1
  38:      3060.59 cm**-1
  39:      3119.33 cm**-1
  40:      3134.99 cm**-1
  41:      3162.49 cm**-1
  42:      3404.86 cm**-1
  43:      3483.56 cm**-1
  44:      3491.11 cm**-1

IR SPECTRUM
-----------

 Mode    freq (cm**-1)   T**2         TX         TY         TZ
-------------------------------------------------------------------
   6:        90.76    0.634671  ( -0.633640  -0.122218  -0.467156)
   7:       163.23    0.680437  (  0.115264  -0.701727  -0.418007)
   8:       223.69    0.012090  ( -0.050762   0.017538   0.095947)
   9:       291.93    2.427872  (  1.327087  -0.076931  -0.812893)
  10:       416.19   16.469774  ( -2.722079   0.860911  -2.884249)
  11:       500.30    4.257651  ( -1.078061   0.151756  -1.752828)
  12:       527.35    2.982075  ( -1.541876   0.563547   0.535825)
  13:       594.26    5.431011  (  0.672368   2.199299   0.376851)
  14:       691.61    2.130220  ( -0.841271  -0.423560   1.114935)
  15:       846.15   18.999363  ( -4.093390  -0.817085   1.255347)
  16:       865.59   14.086405  (  2.876868  -1.611065   1.792903)
  17:       908.67    3.409808  ( -1.439387  -0.922721   0.697539)
  18:       960.04   19.950012  ( -3.376270  -1.463552   2.531566)
  19:       979.03    4.629095  ( -1.283251   1.525111  -0.810183)
  20:      1042.15    7.995805  (  2.611129   0.835721   0.692372)
  21:      1102.24   20.032163  (  0.349275  -2.694330  -3.556790)
  22:      1124.40   77.030195  (  3.745050  -0.522160   7.920363)
  23:      1165.30  155.895979  ( 11.644684   0.306131  -4.494841)
  24:      1189.95   73.896746  (  6.982611   0.120300  -5.012525)
  25:      1219.50    0.920150  ( -0.892188  -0.029694   0.351098)
  26:      1277.37   21.659669  ( -0.908718   0.470074   4.540147)
  27:      1285.47    4.718864  ( -1.930555   0.114359  -0.989315)
  28:      1356.89    4.432896  ( -1.703552  -0.028552   1.236928)
  29:      1389.93   21.388740  (  0.589998   0.958549  -4.485736)
  30:      1427.21   13.811556  ( -3.098877   0.648967  -1.946114)
  31:      1460.66   14.154065  ( -3.210437   1.249034   1.512308)
  32:      1509.98   73.445888  (  3.930623   2.965051   7.014597)
  33:      1522.76   85.670749  ( -5.705664  -4.715756  -5.556779)
  34:      1652.78   38.985362  (  4.357364   0.748359  -4.408934)
  35:      1660.61   51.363953  (  2.666765  -6.381466   1.878620)
  36:      1949.86  411.864302  (-19.125623  -0.118081  -6.786819)
  37:      3016.46   26.960911  (  3.846675   3.139655   1.518739)
  38:      3060.59    1.244373  (  0.919000   0.531046  -0.343223)
  39:      3119.33    0.422518  (  0.593144  -0.098744  -0.246877)
  40:      3134.99    1.625670  ( -1.094520   0.639174  -0.138390)
  41:      3162.49    2.100668  (  0.640519   1.054220  -0.760936)
  42:      3404.86   49.699931  ( -4.676474  -2.191629  -4.798675)
  43:      3483.56   90.567026  (  6.538268  -6.737606  -1.556516)
  44:      3491.11  106.163243  (  3.762975   5.165018  -8.082441)

--------------------------
THERMOCHEMISTRY AT 298.15K
--------------------------

Temperature         ... 298.15 K
Pressure            ... 1.00 atm
Total Mass          ... 102.11 AMU

Throughout the following assumptions are being made:
  (1) The electronic state is orbitally nondegenerate
  (2) There are no thermally accessible electronically excited states
  (3) Hindered rotations indicated by low frequency modes) are not
      treated as such but are treated as vibrations and this may
      case some error
  (4) All equations used are the standard statistical mechanics
      equations for an ideal gas
  (5) All vibrations are strinctly harmonic

------------
INNER ENERGY
------------

The inner energy is: U= E(el) + E(ZPE) + E(vib) + E(rot) + E(trans)
    E(el)   - is the total energy from the electronic structure calculation
              = E(kin-el) + E(nuc-el) + E(el-el) + E(nuc-nuc)
    E(ZPE)  - the the zero temperature vibrational energy from the frequency calculation
    E(vib)  - the the finite temperature correction to E(ZPE) due to population
              of excietd vibrational states
    E(rot)  - is the rotational thermal energy
    E(trans)- is the translational thermal energy

Summary of contributions to the inner energy U:
Electronic energy                ...   -361.92177602 Eh
Zero point energy                ...      0.13046890 Eh      81.87 kcal/mol
Thermal vibrational correction   ...      0.00379164 Eh       2.38 kcal/mol
Thermal rotational correction    ...      0.00141627 Eh       0.89 kcal/mol
Thermal translational correction ...      0.00141627 Eh       0.89 kcal/mol
-----------------------------------------------------------------------
Total thermal energy                   -361.78468293 Eh

Summary of corrections to the electronic energy:
(perhaps to be used in another calculation)
Total thermal correction                  0.00662419 Eh       4.16 kcal/mol
Non-thermal (ZPE) correction              0.13046890 Eh      81.87 kcal/mol
-----------------------------------------------------------------------
Total correction                          0.13709309 Eh      86.03 kcal/mol

--------
ENTHALPY
--------

The enthalpy is H = U + kB*T
                kB is Boltzmann's constant
Total free energy                 ...   -361.78468293 Eh
Thermal Enthalpy correction       ...      0.00094421 Eh       0.59 kcal/mol
-----------------------------------------------------------------------
Total Enthalpy                    ...   -361.78373872 Eh

-------
ENTROPY
-------

The entropy contributions are T*S = T*(S(el)+S(vib)+S(rot)+S(trans)
     S(el)   - electronic entropy
     S(vib)  - vibrational entropy
     S(rot)  - rotational entropy
     S(trans)- translational entropy
The entropies will be listed as mutliplied by the temperature to get
units of energy

Electronic entropy                ...      0.00000000 Eh      0.00 kcal/mol
Vibrational entropy               ...      0.00648540 Eh      4.07 kcal/mol
Rotational entropy                ...      0.01190651 Eh      7.47 kcal/mol
Translational entropy             ...      0.01890086 Eh     11.86 kcal/mol
-----------------------------------------------------------------------
Final entropy term                ...      0.03729277 Eh     23.40 kcal/mol

CAUTION: The rotational entropy is not quite correctly treated here
         because it includes a symmetry number that is not yet correctly
         implemented in ORCA!
For a nonlinear molecule the correct rotational entropy is:
    S(rot) = R*(ln(qrot/sn)+1.5)
    R    = 8.31441 J/mol/K = 1.987191683e-3 kcal/mol/K
    qrot = 200590.8335327
    sn is the rotational symmetry number. We have assumed 3 here
       if it is different for your molecule then you should correct
       the printed rotational entropy by manually evaluating the equation
       as given above

For convenience we print out the resulting values for sn=1 - 12:
 sn= 1  qrot/sn=  200590.8335 T*S(rot)=     8.12 kcal/mol T*S(tot)=    24.05 kcal/mol
 sn= 2  qrot/sn=  100295.4168 T*S(rot)=     7.71 kcal/mol T*S(tot)=    23.64 kcal/mol
 sn= 3  qrot/sn=   66863.6112 T*S(rot)=     7.47 kcal/mol T*S(tot)=    23.40 kcal/mol
 sn= 4  qrot/sn=   50147.7084 T*S(rot)=     7.30 kcal/mol T*S(tot)=    23.23 kcal/mol
 sn= 5  qrot/sn=   40118.1667 T*S(rot)=     7.17 kcal/mol T*S(tot)=    23.10 kcal/mol
 sn= 6  qrot/sn=   33431.8056 T*S(rot)=     7.06 kcal/mol T*S(tot)=    22.99 kcal/mol
 sn= 7  qrot/sn=   28655.8334 T*S(rot)=     6.97 kcal/mol T*S(tot)=    22.90 kcal/mol
 sn= 8  qrot/sn=   25073.8542 T*S(rot)=     6.89 kcal/mol T*S(tot)=    22.82 kcal/mol
 sn= 9  qrot/sn=   22287.8704 T*S(rot)=     6.82 kcal/mol T*S(tot)=    22.75 kcal/mol
 sn=10  qrot/sn=   20059.0834 T*S(rot)=     6.76 kcal/mol T*S(tot)=    22.69 kcal/mol
 sn=11  qrot/sn=   18235.5303 T*S(rot)=     6.70 kcal/mol T*S(tot)=    22.63 kcal/mol
 sn=12  qrot/sn=   16715.9028 T*S(rot)=     6.65 kcal/mol T*S(tot)=    22.58 kcal/mol

-------------------
GIBBS FREE ENTHALPY
-------------------

The Gibbs free enthalpy is G = H - T*S

Total enthalpy                    ...   -361.78373872 Eh
Total entropy correction          ...     -0.03729277 Eh    -23.40 kcal/mol
-----------------------------------------------------------------------
Final Gibbs free enthalpy         ...   -361.82103149 Eh

For completeness - the Gibbs free enthalpy minus the electronic energy
G-E(el)                           ...      0.10074453 Eh     63.22 kcal/mol

                             ****ORCA TERMINATED NORMALLY****
TOTAL RUN TIME: 0 days 0 hours 31 minutes 13 seconds 655 msec
