                         Program Version 3.0.3 - RELEASE   -
|  1> ! NORI PBE0 def2-TZVP UseSym TightOPT Freq TightSCF Grid3 FinalGrid5 XYZFile
|  2> % pal
|  3>     nprocs 8
|  4> end
|  5> %method
|  6>     SymThresh 5.0e-2
|  7> end
|  8> % geom
|  9>     MaxIter 10
| 10> end
| 11> % maxcore 2000
| 12> % output
| 13>     printlevel mini
| 14>     print[ P_Basis ] 0
| 15>     print[ P_SCFInfo ] 1
| 16>     print[ P_SCFIterInfo ] 1
| 17>     print[ P_OrbEn ] 0
| 18>     print[ P_Cartesian ] 0
| 19> end
| 20> % elprop
| 21>     Dipole false
| 22> end
| 23> *xyz 1 1
| 24>  N        0.9455503171     0.1169031421     0.4956865165
| 25>  C        2.3635776840     0.0326324456    -0.0122086526
| 26>  C        2.6808656056     1.2264448044    -0.8939010687
| 27>  O        4.0317029529     1.1681836273    -1.2704931350
| 28>  N        4.4497874964     0.0081998706    -1.8858809749
| 29>  C        3.7765993110    -1.0490612065    -1.7021515235
| 30>  C        2.5683340882    -1.2250455045    -0.8249245747
| 31>  H        0.8052876843     0.9479505349     1.0767743913
| 32>  H        0.7038345572    -0.7024601119     1.0596171572
| 33>  H        0.2791305136     0.1646744064    -0.2800005735
| 34>  H        3.0004360728     0.0499798553     0.8742180924
| 35>  H        2.0378556618     1.2228140416    -1.7876318306
| 36>  H        2.5673114041     2.1803325241    -0.3728718189
| 37>  H        4.1662601052    -1.9221264252    -2.2160907547
| 38>  H        2.7160823687    -2.1050417240    -0.1918135443
| 39>  H        1.6982941770    -1.4320402803    -1.4621877062
| 40> *
| 41>
| 42>                          ****END OF INPUT****
 Total Charge           Charge          ....    1
 Multiplicity           Mult            ....    1
 Number of Electrons    NEL             ....   54
FINAL SINGLE POINT ENERGY      -341.981848988916

CARTESIAN COORDINATES (ANGSTROEM)
---------------------------------
  N      1.691677   -0.000059   -1.672082
  C      0.675581    0.374466   -0.621808
  C      0.896751   -0.438266    0.640607
  O      0.000175    0.000312    1.627439
  N     -1.336811   -0.010475    1.293114
  C     -1.652345    0.013426    0.066399
  C     -0.728244    0.110807   -1.115662
  H      2.644505    0.207369   -1.361198
  H      1.529875    0.510692   -2.543966
  H      1.646280   -0.999724   -1.887594
  H      0.838618    1.433340   -0.411497
  H      0.741633   -1.508920    0.436650
  H      1.891346   -0.293885    1.069169
  H     -2.721482    0.004516   -0.120466
  H     -1.086520    0.902697   -1.780156
  H     -0.780278   -0.828953   -1.681451

FINAL SINGLE POINT ENERGY      -341.981849655281
                    ***********************HURRAY********************
 Multiplicity           Mult            ....    1
 Number of Electrons    NEL             ....   54
 Basis Dimension        Dim             ....  271
FINAL SINGLE POINT ENERGY      -341.981849965112

VIBRATIONAL FREQUENCIES
-----------------------

   0:         0.00 cm**-1
   1:         0.00 cm**-1
   2:         0.00 cm**-1
   3:         0.00 cm**-1
   4:         0.00 cm**-1
   5:         0.00 cm**-1
   6:       127.73 cm**-1
   7:       192.67 cm**-1
   8:       224.00 cm**-1
   9:       294.84 cm**-1
  10:       425.70 cm**-1
  11:       441.12 cm**-1
  12:       485.75 cm**-1
  13:       534.97 cm**-1
  14:       791.88 cm**-1
  15:       842.59 cm**-1
  16:       883.19 cm**-1
  17:       899.44 cm**-1
  18:       925.69 cm**-1
  19:       935.51 cm**-1
  20:       977.42 cm**-1
  21:      1017.88 cm**-1
  22:      1058.80 cm**-1
  23:      1084.37 cm**-1
  24:      1122.41 cm**-1
  25:      1199.63 cm**-1
  26:      1238.37 cm**-1
  27:      1311.20 cm**-1
  28:      1324.39 cm**-1
  29:      1339.66 cm**-1
  30:      1372.50 cm**-1
  31:      1391.30 cm**-1
  32:      1418.54 cm**-1
  33:      1466.76 cm**-1
  34:      1485.58 cm**-1
  35:      1510.47 cm**-1
  36:      1654.47 cm**-1
  37:      1655.69 cm**-1
  38:      1724.96 cm**-1
  39:      3000.09 cm**-1
  40:      3031.14 cm**-1
  41:      3092.23 cm**-1
  42:      3110.56 cm**-1
  43:      3121.48 cm**-1
  44:      3199.52 cm**-1
  45:      3406.64 cm**-1
  46:      3489.32 cm**-1
  47:      3492.09 cm**-1

IR SPECTRUM
-----------

 Mode    freq (cm**-1)   T**2         TX         TY         TZ
-------------------------------------------------------------------
   6:       127.73    1.352993  (  0.607830   0.938769   0.319762)
   7:       192.67    0.622815  ( -0.279767  -0.620884  -0.398809)
   8:       224.00    0.889536  ( -0.309734  -0.875111  -0.166678)
   9:       294.84    4.424723  (  0.628202  -0.254021   1.991371)
  10:       425.70    5.646950  (  1.772443   1.129082  -1.109311)
  11:       441.12    4.619687  ( -1.004021   0.495471   1.834704)
  12:       485.75    8.222246  ( -2.456636  -0.555368   1.370676)
  13:       534.97    3.401157  (  0.544073   0.859529  -1.538295)
  14:       791.88    6.614336  ( -1.527287  -1.724489   1.143621)
  15:       842.59   11.597303  (  0.077998   2.912370   1.763327)
  16:       883.19   45.818690  (  4.397075   0.527726   5.119172)
  17:       899.44   15.232021  ( -0.263250   1.067539  -3.744740)
  18:       925.69    2.243935  (  1.341249  -0.449249   0.493114)
  19:       935.51   15.445877  (  0.598081  -3.815281   0.729252)
  20:       977.42   18.535312  ( -4.044182   0.244219  -1.456112)
  21:      1017.88   26.983903  (  1.685428  -0.722581   4.860156)
  22:      1058.80   14.823603  ( -3.010496   1.845224   1.534818)
  23:      1084.37   27.246292  ( -5.025339   0.675378  -1.239404)
  24:      1122.41    4.043522  ( -1.988021   0.097258   0.286068)
  25:      1199.63    1.091110  (  0.887813   0.201096   0.512308)
  26:      1238.37    1.216426  (  0.545475   0.545551  -0.788198)
  27:      1311.20    0.185415  (  0.395418   0.094151   0.142110)
  28:      1324.39    2.318181  ( -0.447189  -0.276897  -1.428822)
  29:      1339.66   12.278551  (  3.086096  -0.510757  -1.579142)
  30:      1372.50    3.844796  ( -0.909769  -1.317421   1.132042)
  31:      1391.30    3.862932  ( -1.747924  -0.385749   0.811721)
  32:      1418.54   20.476522  (  3.270540   0.870738  -3.003648)
  33:      1466.76    8.398691  ( -2.344159   0.319374  -1.673801)
  34:      1485.58   12.541411  ( -2.578701  -1.138841   2.143538)
  35:      1510.47  149.669997  ( -7.797783   3.663025   8.686013)
  36:      1654.47   36.043688  ( -4.477138  -0.411640  -3.978627)
  37:      1655.69   52.350472  ( -1.261049  -6.935794   1.629416)
  38:      1724.96   15.398735  (  3.869382  -0.205394  -0.620023)
  39:      3000.09   18.637212  (  2.172529  -3.551536  -1.141895)
  40:      3031.14    5.887996  (  0.741027  -1.217291  -1.963945)
  41:      3092.23    0.367327  ( -0.177860   0.457831  -0.355082)
  42:      3110.56    2.215429  (  1.467299   0.193426   0.158265)
  43:      3121.48    1.752659  ( -1.203394  -0.529783   0.154376)
  44:      3199.52    1.492274  (  1.111716  -0.102642   0.495808)
  45:      3406.64   44.131474  ( -4.794205   0.952671   4.498833)
  46:      3489.32   86.906721  (  2.843980   8.856944  -0.610775)
  47:      3492.09   92.308240  ( -6.543116   1.769765  -6.809097)

--------------------------
THERMOCHEMISTRY AT 298.15K
--------------------------

Temperature         ... 298.15 K
Pressure            ... 1.00 atm
Total Mass          ... 101.13 AMU

Throughout the following assumptions are being made:
  (1) The electronic state is orbitally nondegenerate
  (2) There are no thermally accessible electronically excited states
  (3) Hindered rotations indicated by low frequency modes) are not
      treated as such but are treated as vibrations and this may
      case some error
  (4) All equations used are the standard statistical mechanics
      equations for an ideal gas
  (5) All vibrations are strinctly harmonic

------------
INNER ENERGY
------------

The inner energy is: U= E(el) + E(ZPE) + E(vib) + E(rot) + E(trans)
    E(el)   - is the total energy from the electronic structure calculation
              = E(kin-el) + E(nuc-el) + E(el-el) + E(nuc-nuc)
    E(ZPE)  - the the zero temperature vibrational energy from the frequency calculation
    E(vib)  - the the finite temperature correction to E(ZPE) due to population
              of excietd vibrational states
    E(rot)  - is the rotational thermal energy
    E(trans)- is the translational thermal energy

Summary of contributions to the inner energy U:
Electronic energy                ...   -341.98184997 Eh
Zero point energy                ...      0.14193569 Eh      89.07 kcal/mol
Thermal vibrational correction   ...      0.00381298 Eh       2.39 kcal/mol
Thermal rotational correction    ...      0.00141627 Eh       0.89 kcal/mol
Thermal translational correction ...      0.00141627 Eh       0.89 kcal/mol
-----------------------------------------------------------------------
Total thermal energy                   -341.83326875 Eh

Summary of corrections to the electronic energy:
(perhaps to be used in another calculation)
Total thermal correction                  0.00664553 Eh       4.17 kcal/mol
Non-thermal (ZPE) correction              0.14193569 Eh      89.07 kcal/mol
-----------------------------------------------------------------------
Total correction                          0.14858121 Eh      93.24 kcal/mol

--------
ENTHALPY
--------

The enthalpy is H = U + kB*T
                kB is Boltzmann's constant
Total free energy                 ...   -341.83326875 Eh
Thermal Enthalpy correction       ...      0.00094421 Eh       0.59 kcal/mol
-----------------------------------------------------------------------
Total Enthalpy                    ...   -341.83232454 Eh

-------
ENTROPY
-------

The entropy contributions are T*S = T*(S(el)+S(vib)+S(rot)+S(trans)
     S(el)   - electronic entropy
     S(vib)  - vibrational entropy
     S(rot)  - rotational entropy
     S(trans)- translational entropy
The entropies will be listed as mutliplied by the temperature to get
units of energy

Electronic entropy                ...      0.00000000 Eh      0.00 kcal/mol
Vibrational entropy               ...      0.00622143 Eh      3.90 kcal/mol
Rotational entropy                ...      0.01187208 Eh      7.45 kcal/mol
Translational entropy             ...      0.01888714 Eh     11.85 kcal/mol
-----------------------------------------------------------------------
Final entropy term                ...      0.03698066 Eh     23.21 kcal/mol

CAUTION: The rotational entropy is not quite correctly treated here
         because it includes a symmetry number that is not yet correctly
         implemented in ORCA!
For a nonlinear molecule the correct rotational entropy is:
    S(rot) = R*(ln(qrot/sn)+1.5)
    R    = 8.31441 J/mol/K = 1.987191683e-3 kcal/mol/K
    qrot = 193408.4213383
    sn is the rotational symmetry number. We have assumed 3 here
       if it is different for your molecule then you should correct
       the printed rotational entropy by manually evaluating the equation
       as given above

For convenience we print out the resulting values for sn=1 - 12:
 sn= 1  qrot/sn=  193408.4213 T*S(rot)=     8.10 kcal/mol T*S(tot)=    23.86 kcal/mol
 sn= 2  qrot/sn=   96704.2107 T*S(rot)=     7.69 kcal/mol T*S(tot)=    23.45 kcal/mol
 sn= 3  qrot/sn=   64469.4738 T*S(rot)=     7.45 kcal/mol T*S(tot)=    23.21 kcal/mol
 sn= 4  qrot/sn=   48352.1053 T*S(rot)=     7.28 kcal/mol T*S(tot)=    23.04 kcal/mol
 sn= 5  qrot/sn=   38681.6843 T*S(rot)=     7.15 kcal/mol T*S(tot)=    22.90 kcal/mol
 sn= 6  qrot/sn=   32234.7369 T*S(rot)=     7.04 kcal/mol T*S(tot)=    22.79 kcal/mol
 sn= 7  qrot/sn=   27629.7745 T*S(rot)=     6.95 kcal/mol T*S(tot)=    22.70 kcal/mol
 sn= 8  qrot/sn=   24176.0527 T*S(rot)=     6.87 kcal/mol T*S(tot)=    22.62 kcal/mol
 sn= 9  qrot/sn=   21489.8246 T*S(rot)=     6.80 kcal/mol T*S(tot)=    22.55 kcal/mol
 sn=10  qrot/sn=   19340.8421 T*S(rot)=     6.74 kcal/mol T*S(tot)=    22.49 kcal/mol
 sn=11  qrot/sn=   17582.5838 T*S(rot)=     6.68 kcal/mol T*S(tot)=    22.44 kcal/mol
 sn=12  qrot/sn=   16117.3684 T*S(rot)=     6.63 kcal/mol T*S(tot)=    22.38 kcal/mol

-------------------
GIBBS FREE ENTHALPY
-------------------

The Gibbs free enthalpy is G = H - T*S

Total enthalpy                    ...   -341.83232454 Eh
Total entropy correction          ...     -0.03698066 Eh    -23.21 kcal/mol
-----------------------------------------------------------------------
Final Gibbs free enthalpy         ...   -341.86930520 Eh

For completeness - the Gibbs free enthalpy minus the electronic energy
G-E(el)                           ...      0.11254476 Eh     70.62 kcal/mol

                             ****ORCA TERMINATED NORMALLY****
TOTAL RUN TIME: 0 days 0 hours 29 minutes 52 seconds 855 msec
