                         Program Version 3.0.3 - RELEASE   -
|  1> ! NORI PBE0 def2-TZVP UseSym TightOPT Freq TightSCF Grid3 FinalGrid5 XYZFile
|  2> % pal
|  3>     nprocs 8
|  4> end
|  5> %method
|  6>     SymThresh 5.0e-2
|  7> end
|  8> % geom
|  9>     MaxIter 10
| 10> end
| 11> % maxcore 2000
| 12> % output
| 13>     printlevel mini
| 14>     print[ P_Basis ] 0
| 15>     print[ P_SCFInfo ] 1
| 16>     print[ P_SCFIterInfo ] 1
| 17>     print[ P_OrbEn ] 0
| 18>     print[ P_Cartesian ] 0
| 19> end
| 20> % elprop
| 21>     Dipole false
| 22> end
| 23> *xyz 1 1
| 24>  N        2.8790587936     1.0573016628     0.0153884912
| 25>  C        2.1095286322    -0.2220323866    -0.2506167655
| 26>  C        2.5615370884    -1.2897755884     0.6825402662
| 27>  C        2.6117669346    -2.7072862059     0.1873889740
| 28>  C        3.8849708914    -1.9743341255     0.4466196960
| 29>  C        4.7600578315    -2.3441058894     1.6187182079
| 30>  O        5.7176631027    -3.3053298077     1.2783554421
| 31>  H        2.6322876908     1.8041098584    -0.6372257053
| 32>  H        3.8831201975     0.8773888339    -0.0607453345
| 33>  H        2.7023242218     1.3958008600     0.9633149119
| 34>  H        2.3057847146    -0.4799306950    -1.2922732162
| 35>  H        1.0529603235     0.0294216370    -0.1424630748
| 36>  H        2.2528547809    -1.1593400188     1.7166073753
| 37>  H        2.3086866636    -3.4722912558     0.8917043105
| 38>  H        2.3209655366    -2.9014229315    -0.8377368795
| 39>  H        4.4433672196    -1.6742259083    -0.4385836309
| 40>  H        4.1282179264    -2.6662802340     2.4591112811
| 41>  H        5.3256873957    -1.4713063166     1.9583802763
| 42>  H        5.2901600547    -4.1546814886     1.1370053743
| 43> *
| 44>
| 45>                          ****END OF INPUT****
 Total Charge           Charge          ....    1
 Multiplicity           Mult            ....    1
 Number of Electrons    NEL             ....   56
FINAL SINGLE POINT ENERGY      -327.197107381777
FINAL SINGLE POINT ENERGY      -327.197108658941

CARTESIAN COORDINATES (ANGSTROEM)
---------------------------------
  N      1.560526    0.002565   -2.219841
  C      0.088547   -0.331729   -2.070639
  C     -0.457652    0.315841   -0.846572
  C     -1.510324   -0.407397   -0.055479
  C     -0.136715   -0.263066    0.509067
  C      0.125371    0.657462    1.675376
  O     -0.001455    0.001427    2.904357
  H      1.987046   -0.463734   -3.023006
  H      2.064330   -0.278606   -1.375322
  H      1.694099    1.009483   -2.332002
  H      0.031001   -1.419629   -2.017607
  H     -0.395127    0.002506   -2.990032
  H     -0.568466    1.395429   -0.906543
  H     -2.302681    0.203696    0.359774
  H     -1.831281   -1.382270   -0.401871
  H      0.461491   -1.172444    0.526793
  H     -0.532540    1.535815    1.602486
  H      1.155517    1.024570    1.641721
  H     -0.927388   -0.192536    3.075385

FINAL SINGLE POINT ENERGY      -327.197109271018
                    ***********************HURRAY********************
 Multiplicity           Mult            ....    1
 Number of Electrons    NEL             ....   56
 Basis Dimension        Dim             ....  289
FINAL SINGLE POINT ENERGY      -327.197109382613

VIBRATIONAL FREQUENCIES
-----------------------

   0:         0.00 cm**-1
   1:         0.00 cm**-1
   2:         0.00 cm**-1
   3:         0.00 cm**-1
   4:         0.00 cm**-1
   5:         0.00 cm**-1
   6:        70.59 cm**-1
   7:       123.53 cm**-1
   8:       147.98 cm**-1
   9:       171.98 cm**-1
  10:       228.75 cm**-1
  11:       289.30 cm**-1
  12:       364.90 cm**-1
  13:       387.45 cm**-1
  14:       415.75 cm**-1
  15:       492.64 cm**-1
  16:       795.18 cm**-1
  17:       837.66 cm**-1
  18:       865.00 cm**-1
  19:       886.37 cm**-1
  20:       906.90 cm**-1
  21:       936.98 cm**-1
  22:       972.99 cm**-1
  23:      1029.87 cm**-1
  24:      1054.70 cm**-1
  25:      1088.21 cm**-1
  26:      1118.30 cm**-1
  27:      1122.37 cm**-1
  28:      1135.30 cm**-1
  29:      1162.71 cm**-1
  30:      1220.31 cm**-1
  31:      1226.81 cm**-1
  32:      1251.57 cm**-1
  33:      1320.90 cm**-1
  34:      1347.81 cm**-1
  35:      1380.28 cm**-1
  36:      1400.25 cm**-1
  37:      1417.16 cm**-1
  38:      1453.78 cm**-1
  39:      1488.79 cm**-1
  40:      1490.24 cm**-1
  41:      1495.20 cm**-1
  42:      1510.27 cm**-1
  43:      1651.55 cm**-1
  44:      1663.12 cm**-1
  45:      3004.40 cm**-1
  46:      3081.34 cm**-1
  47:      3095.54 cm**-1
  48:      3134.81 cm**-1
  49:      3146.18 cm**-1
  50:      3155.98 cm**-1
  51:      3162.76 cm**-1
  52:      3243.55 cm**-1
  53:      3419.10 cm**-1
  54:      3502.73 cm**-1
  55:      3512.19 cm**-1
  56:      3856.46 cm**-1

IR SPECTRUM
-----------

 Mode    freq (cm**-1)   T**2         TX         TY         TZ
-------------------------------------------------------------------
   6:        70.59   18.239456  (  0.550052   1.049322  -4.103148)
   7:       123.53    1.342270  ( -0.006840   0.584819  -1.000105)
   8:       147.98    9.540088  ( -0.065368  -2.720923  -1.460272)
   9:       171.98    3.031522  ( -0.308493   1.158954   1.262212)
  10:       228.75    0.186519  (  0.343472   0.243120   0.097155)
  11:       289.30  104.283833  ( -1.572012   8.335285   5.686444)
  12:       364.90   36.264419  (  2.030547  -3.422672  -4.519581)
  13:       387.45    1.409581  (  0.125836   1.034398   0.569005)
  14:       415.75    5.693892  ( -2.273909  -0.615279   0.380342)
  15:       492.64    4.121128  (  0.979526  -1.532320  -0.902027)
  16:       795.18   28.255143  (  0.933951   2.392659  -4.653822)
  17:       837.66    1.582366  (  0.927080  -0.811985  -0.252130)
  18:       865.00    9.764444  (  0.029977   3.066761  -0.598766)
  19:       886.37    6.408206  (  0.234553  -0.605164  -2.446828)
  20:       906.90   25.529358  (  4.388939   0.122512  -2.500313)
  21:       936.98   10.693282  (  3.117774  -0.978122   0.126680)
  22:       972.99    8.486176  (  0.423620   2.817848  -0.605356)
  23:      1029.87    8.898899  ( -0.098995  -0.696612  -2.898936)
  24:      1054.70    7.080300  ( -0.764991   0.370316  -2.521498)
  25:      1088.21    2.716175  (  1.196558  -0.478829   1.027204)
  26:      1118.30  105.474023  ( -0.257151  -3.805379   9.535564)
  27:      1122.37   32.103554  ( -2.381678  -0.277301   5.133641)
  28:      1135.30   35.287452  ( -0.294883  -0.072702  -5.932555)
  29:      1162.71    2.965773  (  0.398472  -0.710019  -1.517520)
  30:      1220.31    6.934470  ( -0.213007   2.554273   0.603976)
  31:      1226.81   18.495496  ( -1.552906  -0.524822   3.975995)
  32:      1251.57    3.941815  ( -1.213963   0.839012  -1.328220)
  33:      1320.90    9.233321  (  0.196895  -1.771032   2.461300)
  34:      1347.81    2.838131  ( -0.307222   0.731562  -1.486124)
  35:      1380.28   15.383863  (  0.871718   0.574183  -3.780778)
  36:      1400.25    0.875074  ( -0.580511   0.651957  -0.336202)
  37:      1417.16   64.441617  (  0.908871   2.113450  -7.690832)
  38:      1453.78   16.388678  ( -3.996749  -0.509031   0.394414)
  39:      1488.79   13.419371  (  3.314419   1.199288   0.997851)
  40:      1490.24   25.063893  ( -3.585001   2.334269   2.600548)
  41:      1495.20  104.619645  (  9.879998   2.253500  -1.388173)
  42:      1510.27   21.510935  ( -4.506654  -1.048560   0.318634)
  43:      1651.55   48.921062  (  1.820897  -6.172737   2.739108)
  44:      1663.12   34.882901  ( -0.454037   1.721916   5.631319)
  45:      3004.40   34.545594  (  0.866864  -5.443827   2.039336)
  46:      3081.34   19.797701  ( -4.261680  -1.274420   0.107879)
  47:      3095.54    3.798788  ( -0.240211   0.602195   1.838055)
  48:      3134.81    9.098196  ( -2.309324   1.719168   0.899823)
  49:      3146.18    0.878023  (  0.089620   0.916844   0.171429)
  50:      3155.98    0.920738  ( -0.617678  -0.528678  -0.509619)
  51:      3162.76    2.258989  (  0.165725   0.992207  -1.116714)
  52:      3243.55    0.292809  (  0.065597   0.400259   0.358189)
  53:      3419.10   33.725797  (  5.639146   0.856837  -1.091631)
  54:      3502.73   95.718648  ( -0.339942   4.669248  -8.590763)
  55:      3512.19   94.604790  ( -1.376040   8.184953   5.071277)
  56:      3856.46   49.666714  ( -5.209081  -1.779141   4.400778)

--------------------------
THERMOCHEMISTRY AT 298.15K
--------------------------

Temperature         ... 298.15 K
Pressure            ... 1.00 atm
Total Mass          ... 102.16 AMU

Throughout the following assumptions are being made:
  (1) The electronic state is orbitally nondegenerate
  (2) There are no thermally accessible electronically excited states
  (3) Hindered rotations indicated by low frequency modes) are not
      treated as such but are treated as vibrations and this may
      case some error
  (4) All equations used are the standard statistical mechanics
      equations for an ideal gas
  (5) All vibrations are strinctly harmonic

------------
INNER ENERGY
------------

The inner energy is: U= E(el) + E(ZPE) + E(vib) + E(rot) + E(trans)
    E(el)   - is the total energy from the electronic structure calculation
              = E(kin-el) + E(nuc-el) + E(el-el) + E(nuc-nuc)
    E(ZPE)  - the the zero temperature vibrational energy from the frequency calculation
    E(vib)  - the the finite temperature correction to E(ZPE) due to population
              of excietd vibrational states
    E(rot)  - is the rotational thermal energy
    E(trans)- is the translational thermal energy

Summary of contributions to the inner energy U:
Electronic energy                ...   -327.19710938 Eh
Zero point energy                ...      0.17596225 Eh     110.42 kcal/mol
Thermal vibrational correction   ...      0.00557753 Eh       3.50 kcal/mol
Thermal rotational correction    ...      0.00141627 Eh       0.89 kcal/mol
Thermal translational correction ...      0.00141627 Eh       0.89 kcal/mol
-----------------------------------------------------------------------
Total thermal energy                   -327.01273706 Eh

Summary of corrections to the electronic energy:
(perhaps to be used in another calculation)
Total thermal correction                  0.00841007 Eh       5.28 kcal/mol
Non-thermal (ZPE) correction              0.17596225 Eh     110.42 kcal/mol
-----------------------------------------------------------------------
Total correction                          0.18437233 Eh     115.70 kcal/mol

--------
ENTHALPY
--------

The enthalpy is H = U + kB*T
                kB is Boltzmann's constant
Total free energy                 ...   -327.01273706 Eh
Thermal Enthalpy correction       ...      0.00094421 Eh       0.59 kcal/mol
-----------------------------------------------------------------------
Total Enthalpy                    ...   -327.01179285 Eh

-------
ENTROPY
-------

The entropy contributions are T*S = T*(S(el)+S(vib)+S(rot)+S(trans)
     S(el)   - electronic entropy
     S(vib)  - vibrational entropy
     S(rot)  - rotational entropy
     S(trans)- translational entropy
The entropies will be listed as mutliplied by the temperature to get
units of energy

Electronic entropy                ...      0.00000000 Eh      0.00 kcal/mol
Vibrational entropy               ...      0.01004321 Eh      6.30 kcal/mol
Rotational entropy                ...      0.01230903 Eh      7.72 kcal/mol
Translational entropy             ...      0.01890147 Eh     11.86 kcal/mol
-----------------------------------------------------------------------
Final entropy term                ...      0.04125371 Eh     25.89 kcal/mol

CAUTION: The rotational entropy is not quite correctly treated here
         because it includes a symmetry number that is not yet correctly
         implemented in ORCA!
For a nonlinear molecule the correct rotational entropy is:
    S(rot) = R*(ln(qrot/sn)+1.5)
    R    = 8.31441 J/mol/K = 1.987191683e-3 kcal/mol/K
    qrot = 307227.5005522
    sn is the rotational symmetry number. We have assumed 3 here
       if it is different for your molecule then you should correct
       the printed rotational entropy by manually evaluating the equation
       as given above

For convenience we print out the resulting values for sn=1 - 12:
 sn= 1  qrot/sn=  307227.5006 T*S(rot)=     8.37 kcal/mol T*S(tot)=    26.54 kcal/mol
 sn= 2  qrot/sn=  153613.7503 T*S(rot)=     7.96 kcal/mol T*S(tot)=    26.13 kcal/mol
 sn= 3  qrot/sn=  102409.1669 T*S(rot)=     7.72 kcal/mol T*S(tot)=    25.89 kcal/mol
 sn= 4  qrot/sn=   76806.8751 T*S(rot)=     7.55 kcal/mol T*S(tot)=    25.72 kcal/mol
 sn= 5  qrot/sn=   61445.5001 T*S(rot)=     7.42 kcal/mol T*S(tot)=    25.58 kcal/mol
 sn= 6  qrot/sn=   51204.5834 T*S(rot)=     7.31 kcal/mol T*S(tot)=    25.48 kcal/mol
 sn= 7  qrot/sn=   43889.6429 T*S(rot)=     7.22 kcal/mol T*S(tot)=    25.39 kcal/mol
 sn= 8  qrot/sn=   38403.4376 T*S(rot)=     7.14 kcal/mol T*S(tot)=    25.31 kcal/mol
 sn= 9  qrot/sn=   34136.3890 T*S(rot)=     7.07 kcal/mol T*S(tot)=    25.24 kcal/mol
 sn=10  qrot/sn=   30722.7501 T*S(rot)=     7.01 kcal/mol T*S(tot)=    25.17 kcal/mol
 sn=11  qrot/sn=   27929.7728 T*S(rot)=     6.95 kcal/mol T*S(tot)=    25.12 kcal/mol
 sn=12  qrot/sn=   25602.2917 T*S(rot)=     6.90 kcal/mol T*S(tot)=    25.07 kcal/mol

-------------------
GIBBS FREE ENTHALPY
-------------------

The Gibbs free enthalpy is G = H - T*S

Total enthalpy                    ...   -327.01179285 Eh
Total entropy correction          ...     -0.04125371 Eh    -25.89 kcal/mol
-----------------------------------------------------------------------
Final Gibbs free enthalpy         ...   -327.05304656 Eh

For completeness - the Gibbs free enthalpy minus the electronic energy
G-E(el)                           ...      0.14406282 Eh     90.40 kcal/mol

                             ****ORCA TERMINATED NORMALLY****
TOTAL RUN TIME: 0 days 0 hours 42 minutes 40 seconds 26 msec
