                         Program Version 3.0.3 - RELEASE   -
|  1> ! NORI PBE0 def2-TZVP UseSym TightOPT Freq TightSCF Grid3 FinalGrid5 XYZFile
|  2> % pal
|  3>     nprocs 8
|  4> end
|  5> %method
|  6>     SymThresh 5.0e-2
|  7> end
|  8> % geom
|  9>     MaxIter 10
| 10> end
| 11> % maxcore 2000
| 12> % output
| 13>     printlevel mini
| 14>     print[ P_Basis ] 0
| 15>     print[ P_SCFInfo ] 1
| 16>     print[ P_SCFIterInfo ] 1
| 17>     print[ P_OrbEn ] 0
| 18>     print[ P_Cartesian ] 0
| 19> end
| 20> % elprop
| 21>     Dipole false
| 22> end
| 23> *xyz 1 1
| 24>  N        3.5198879776    -0.3906859425    -0.7777958170
| 25>  C        2.4090373117    -0.0525110214     0.1777044834
| 26>  C        2.8080312136    -0.4611754476     1.5771312430
| 27>  C        1.5842998050    -0.5704427480     2.5195216885
| 28>  C        1.5262410897    -2.0853202858     2.2318007954
| 29>  C        2.9753947448    -1.9863868972     1.7394705536
| 30>  O        3.3506909449    -2.6457753913     0.5385464628
| 31>  H        3.2589494784    -0.2335530599    -1.7509241537
| 32>  H        3.7260945562    -1.4001769147    -0.6164252974
| 33>  H        4.3611046816     0.1517951909    -0.5814457936
| 34>  H        1.5347812817    -0.6030603000    -0.1717219886
| 35>  H        2.2047074388     1.0156698964     0.1033106790
| 36>  H        3.6424927367     0.1541552432     1.9256314451
| 37>  H        0.7079595035     0.0251061368     2.2631767364
| 38>  H        1.8607686260    -0.3501049656     3.5496777654
| 39>  H        1.3227640327    -2.7566505016     3.0643651581
| 40>  H        0.8455311246    -2.3244979432     1.4124660302
| 41>  H        3.6921990028    -2.2084857827     2.5344455790
| 42>  H        3.5372644496    -3.5758492658     0.6970544305
| 43> *
| 44>
| 45>                          ****END OF INPUT****
 Total Charge           Charge          ....    1
 Multiplicity           Mult            ....    1
 Number of Electrons    NEL             ....   56
FINAL SINGLE POINT ENERGY      -327.221062231782
FINAL SINGLE POINT ENERGY      -327.221063793026
FINAL SINGLE POINT ENERGY      -327.221065830846

CARTESIAN COORDINATES (ANGSTROEM)
---------------------------------
  N      2.184532    0.000039    0.259339
  C      1.175117   -0.374507   -0.790992
  C     -0.007732    0.562498   -0.711922
  C     -1.253029   -0.020540   -1.424800
  C     -1.753197   -0.553251   -0.065458
  C     -0.795254    0.436304    0.608601
  O      0.000070    0.002226    1.702017
  H      2.952300   -0.668250    0.318056
  H      1.654795    0.022278    1.157135
  H      2.578797    0.924938    0.087117
  H      0.890566   -1.405848   -0.578878
  H      1.663840   -0.338443   -1.764990
  H      0.293180    1.573891   -0.998942
  H     -1.072213   -0.749955   -2.214250
  H     -1.884777    0.771386   -1.824260
  H     -2.813869   -0.460715    0.161078
  H     -1.444392   -1.585225    0.111832
  H     -1.289100    1.381216    0.849479
  H     -0.502827    0.010701    2.521780

FINAL SINGLE POINT ENERGY      -327.221066686586
                    ***********************HURRAY********************
 Multiplicity           Mult            ....    1
 Number of Electrons    NEL             ....   56
 Basis Dimension        Dim             ....  289
FINAL SINGLE POINT ENERGY      -327.221067347408

VIBRATIONAL FREQUENCIES
-----------------------

   0:         0.00 cm**-1
   1:         0.00 cm**-1
   2:         0.00 cm**-1
   3:         0.00 cm**-1
   4:         0.00 cm**-1
   5:         0.00 cm**-1
   6:       118.50 cm**-1
   7:       196.94 cm**-1
   8:       251.97 cm**-1
   9:       268.97 cm**-1
  10:       299.03 cm**-1
  11:       348.52 cm**-1
  12:       386.22 cm**-1
  13:       419.78 cm**-1
  14:       580.57 cm**-1
  15:       652.07 cm**-1
  16:       767.41 cm**-1
  17:       805.41 cm**-1
  18:       866.41 cm**-1
  19:       926.96 cm**-1
  20:       954.79 cm**-1
  21:       957.80 cm**-1
  22:       973.88 cm**-1
  23:      1015.39 cm**-1
  24:      1059.13 cm**-1
  25:      1083.65 cm**-1
  26:      1121.73 cm**-1
  27:      1155.92 cm**-1
  28:      1188.13 cm**-1
  29:      1205.27 cm**-1
  30:      1232.80 cm**-1
  31:      1267.75 cm**-1
  32:      1274.07 cm**-1
  33:      1284.37 cm**-1
  34:      1330.79 cm**-1
  35:      1347.97 cm**-1
  36:      1363.70 cm**-1
  37:      1413.53 cm**-1
  38:      1421.51 cm**-1
  39:      1477.15 cm**-1
  40:      1490.74 cm**-1
  41:      1496.60 cm**-1
  42:      1504.22 cm**-1
  43:      1646.84 cm**-1
  44:      1675.03 cm**-1
  45:      3073.90 cm**-1
  46:      3085.14 cm**-1
  47:      3093.64 cm**-1
  48:      3099.66 cm**-1
  49:      3103.55 cm**-1
  50:      3120.08 cm**-1
  51:      3153.14 cm**-1
  52:      3160.43 cm**-1
  53:      3165.92 cm**-1
  54:      3476.18 cm**-1
  55:      3535.76 cm**-1
  56:      3857.09 cm**-1

IR SPECTRUM
-----------

 Mode    freq (cm**-1)   T**2         TX         TY         TZ
-------------------------------------------------------------------
   6:       118.50    7.236256  ( -1.069777  -2.466832  -0.081075)
   7:       196.94    4.493187  ( -1.233244  -1.355463   1.065372)
   8:       251.97  106.918369  (  0.017732   9.783257   3.347526)
   9:       268.97   33.886142  (  4.925912   2.874733  -1.165096)
  10:       299.03   21.011185  ( -3.107347  -1.816204   2.838482)
  11:       348.52   13.058700  ( -1.540847   3.037721   1.206955)
  12:       386.22    7.899921  ( -1.776919  -0.256942  -2.162512)
  13:       419.78   19.667189  (  4.016831   1.871726   0.169995)
  14:       580.57    9.401168  (  0.074952  -0.859194  -2.942335)
  15:       652.07    2.888100  ( -1.268974   0.845204   0.750624)
  16:       767.41    1.215577  ( -0.537014   0.901471  -0.338443)
  17:       805.41   18.199904  (  3.095321   0.869080  -2.804210)
  18:       866.41    2.465099  ( -0.242302   1.194755  -0.989418)
  19:       926.96   24.258232  ( -2.021635  -1.417685   4.261618)
  20:       954.79   15.244318  (  3.169010  -0.930687   2.082190)
  21:       957.80    2.843136  (  1.441250   0.498741  -0.719161)
  22:       973.88   11.918477  (  1.343312  -1.522616   2.792065)
  23:      1015.39    4.740816  (  1.825527  -1.055282   0.542814)
  24:      1059.13   24.405884  ( -4.413304  -0.563155  -2.147437)
  25:      1083.65   19.698422  ( -3.415773   2.767343   0.610512)
  26:      1121.73   36.074758  (  4.300137  -0.944639   4.085491)
  27:      1155.92    0.861707  (  0.369328  -0.797583   0.298606)
  28:      1188.13   48.253254  ( -0.773560   0.781615  -6.858858)
  29:      1205.27   20.338120  (  3.183360  -0.889420   3.068106)
  30:      1232.80    3.584897  ( -1.172871   1.041932  -1.060023)
  31:      1267.75   17.720388  (  2.980343  -1.030783   2.788446)
  32:      1274.07    4.449205  (  1.223334  -0.081364   1.716403)
  33:      1284.37   13.709421  (  0.003406   1.081698   3.541093)
  34:      1330.79   25.721247  (  3.904299  -1.012229   3.074588)
  35:      1347.97   10.002123  ( -1.125072  -0.248244   2.945286)
  36:      1363.70    8.828581  (  0.331258   0.141834  -2.949361)
  37:      1413.53   13.653796  ( -1.998159  -1.684297  -2.612336)
  38:      1421.51    2.790007  ( -1.633281   0.171455  -0.304966)
  39:      1477.15    6.072160  (  0.694199   1.268080  -1.995550)
  40:      1490.74   32.285305  (  3.887702   3.468028   2.268008)
  41:      1496.60  111.580180  ( -9.013041  -2.316118  -4.998087)
  42:      1504.22   81.857317  ( -8.604894   1.393306  -2.423184)
  43:      1646.84   17.152105  ( -2.530654  -2.537991   2.075210)
  44:      1675.03   33.120964  (  3.493453  -4.571425   0.137190)
  45:      3073.90   13.044938  ( -3.276142  -1.197222   0.937280)
  46:      3085.14   15.694896  ( -1.255586   3.350413   1.700921)
  47:      3093.64   10.842734  ( -0.413062  -2.824126   1.642079)
  48:      3099.66   43.681269  ( -5.040476   1.809155   3.873220)
  49:      3103.55   15.388388  (  0.745162  -0.356797  -3.834816)
  50:      3120.08  322.997292  ( 13.159038   0.239223 -12.238455)
  51:      3153.14    2.443985  ( -1.368115  -0.704166  -0.276399)
  52:      3160.43    0.314302  (  0.151230  -0.192849  -0.504223)
  53:      3165.92   10.501080  (  2.541727  -1.828340  -0.835388)
  54:      3476.18   92.734879  (  9.381345   1.333326  -1.716824)
  55:      3535.76   82.832706  (  2.532660  -8.669135   1.124472)
  56:      3857.09  117.020511  ( -3.544063  -0.205649  10.218504)

--------------------------
THERMOCHEMISTRY AT 298.15K
--------------------------

Temperature         ... 298.15 K
Pressure            ... 1.00 atm
Total Mass          ... 102.16 AMU

Throughout the following assumptions are being made:
  (1) The electronic state is orbitally nondegenerate
  (2) There are no thermally accessible electronically excited states
  (3) Hindered rotations indicated by low frequency modes) are not
      treated as such but are treated as vibrations and this may
      case some error
  (4) All equations used are the standard statistical mechanics
      equations for an ideal gas
  (5) All vibrations are strinctly harmonic

------------
INNER ENERGY
------------

The inner energy is: U= E(el) + E(ZPE) + E(vib) + E(rot) + E(trans)
    E(el)   - is the total energy from the electronic structure calculation
              = E(kin-el) + E(nuc-el) + E(el-el) + E(nuc-nuc)
    E(ZPE)  - the the zero temperature vibrational energy from the frequency calculation
    E(vib)  - the the finite temperature correction to E(ZPE) due to population
              of excietd vibrational states
    E(rot)  - is the rotational thermal energy
    E(trans)- is the translational thermal energy

Summary of contributions to the inner energy U:
Electronic energy                ...   -327.22106735 Eh
Zero point energy                ...      0.17714122 Eh     111.16 kcal/mol
Thermal vibrational correction   ...      0.00460139 Eh       2.89 kcal/mol
Thermal rotational correction    ...      0.00141627 Eh       0.89 kcal/mol
Thermal translational correction ...      0.00141627 Eh       0.89 kcal/mol
-----------------------------------------------------------------------
Total thermal energy                   -327.03649219 Eh

Summary of corrections to the electronic energy:
(perhaps to be used in another calculation)
Total thermal correction                  0.00743394 Eh       4.66 kcal/mol
Non-thermal (ZPE) correction              0.17714122 Eh     111.16 kcal/mol
-----------------------------------------------------------------------
Total correction                          0.18457516 Eh     115.82 kcal/mol

--------
ENTHALPY
--------

The enthalpy is H = U + kB*T
                kB is Boltzmann's constant
Total free energy                 ...   -327.03649219 Eh
Thermal Enthalpy correction       ...      0.00094421 Eh       0.59 kcal/mol
-----------------------------------------------------------------------
Total Enthalpy                    ...   -327.03554798 Eh

-------
ENTROPY
-------

The entropy contributions are T*S = T*(S(el)+S(vib)+S(rot)+S(trans)
     S(el)   - electronic entropy
     S(vib)  - vibrational entropy
     S(rot)  - rotational entropy
     S(trans)- translational entropy
The entropies will be listed as mutliplied by the temperature to get
units of energy

Electronic entropy                ...      0.00000000 Eh      0.00 kcal/mol
Vibrational entropy               ...      0.00746852 Eh      4.69 kcal/mol
Rotational entropy                ...      0.01199080 Eh      7.52 kcal/mol
Translational entropy             ...      0.01890147 Eh     11.86 kcal/mol
-----------------------------------------------------------------------
Final entropy term                ...      0.03836079 Eh     24.07 kcal/mol

CAUTION: The rotational entropy is not quite correctly treated here
         because it includes a symmetry number that is not yet correctly
         implemented in ORCA!
For a nonlinear molecule the correct rotational entropy is:
    S(rot) = R*(ln(qrot/sn)+1.5)
    R    = 8.31441 J/mol/K = 1.987191683e-3 kcal/mol/K
    qrot = 219321.4727274
    sn is the rotational symmetry number. We have assumed 3 here
       if it is different for your molecule then you should correct
       the printed rotational entropy by manually evaluating the equation
       as given above

For convenience we print out the resulting values for sn=1 - 12:
 sn= 1  qrot/sn=  219321.4727 T*S(rot)=     8.18 kcal/mol T*S(tot)=    24.72 kcal/mol
 sn= 2  qrot/sn=  109660.7364 T*S(rot)=     7.76 kcal/mol T*S(tot)=    24.31 kcal/mol
 sn= 3  qrot/sn=   73107.1576 T*S(rot)=     7.52 kcal/mol T*S(tot)=    24.07 kcal/mol
 sn= 4  qrot/sn=   54830.3682 T*S(rot)=     7.35 kcal/mol T*S(tot)=    23.90 kcal/mol
 sn= 5  qrot/sn=   43864.2945 T*S(rot)=     7.22 kcal/mol T*S(tot)=    23.77 kcal/mol
 sn= 6  qrot/sn=   36553.5788 T*S(rot)=     7.11 kcal/mol T*S(tot)=    23.66 kcal/mol
 sn= 7  qrot/sn=   31331.6390 T*S(rot)=     7.02 kcal/mol T*S(tot)=    23.57 kcal/mol
 sn= 8  qrot/sn=   27415.1841 T*S(rot)=     6.94 kcal/mol T*S(tot)=    23.49 kcal/mol
 sn= 9  qrot/sn=   24369.0525 T*S(rot)=     6.87 kcal/mol T*S(tot)=    23.42 kcal/mol
 sn=10  qrot/sn=   21932.1473 T*S(rot)=     6.81 kcal/mol T*S(tot)=    23.36 kcal/mol
 sn=11  qrot/sn=   19938.3157 T*S(rot)=     6.75 kcal/mol T*S(tot)=    23.30 kcal/mol
 sn=12  qrot/sn=   18276.7894 T*S(rot)=     6.70 kcal/mol T*S(tot)=    23.25 kcal/mol

-------------------
GIBBS FREE ENTHALPY
-------------------

The Gibbs free enthalpy is G = H - T*S

Total enthalpy                    ...   -327.03554798 Eh
Total entropy correction          ...     -0.03836079 Eh    -24.07 kcal/mol
-----------------------------------------------------------------------
Final Gibbs free enthalpy         ...   -327.07390877 Eh

For completeness - the Gibbs free enthalpy minus the electronic energy
G-E(el)                           ...      0.14715858 Eh     92.34 kcal/mol

                             ****ORCA TERMINATED NORMALLY****
TOTAL RUN TIME: 0 days 0 hours 50 minutes 5 seconds 14 msec
