                         Program Version 3.0.3 - RELEASE   -
|  1> ! NORI PBE0 def2-TZVP UseSym TightOPT Freq TightSCF Grid3 FinalGrid5 XYZFile
|  2> % pal
|  3>     nprocs 8
|  4> end
|  5> %method
|  6>     SymThresh 5.0e-2
|  7> end
|  8> % geom
|  9>     MaxIter 10
| 10> end
| 11> % maxcore 2000
| 12> % output
| 13>     printlevel mini
| 14>     print[ P_Basis ] 0
| 15>     print[ P_SCFInfo ] 1
| 16>     print[ P_SCFIterInfo ] 1
| 17>     print[ P_OrbEn ] 0
| 18>     print[ P_Cartesian ] 0
| 19> end
| 20> % elprop
| 21>     Dipole false
| 22> end
| 23> *xyz 1 1
| 24>  N        3.4855130944    -0.1120366954    -1.0275374066
| 25>  C        2.4257616103    -0.0170656176     0.0679623680
| 26>  C        2.9208211170    -0.6226215802     1.3074735914
| 27>  C        3.2591658751    -0.1257173885     2.5249699004
| 28>  C        3.6449520631    -1.2448561274     3.3127386077
| 29>  C        3.5189984250    -2.3306355443     2.5137371953
| 30>  O        3.0768821909    -1.9722239086     1.2872467646
| 31>  H        3.1593281001     0.2714589460    -1.9177292011
| 32>  H        3.7398574628    -1.0917530310    -1.1737363835
| 33>  H        4.3332459554     0.3858247089    -0.7470973419
| 34>  H        1.5477601594    -0.5269953067    -0.3333115697
| 35>  H        2.2011958642     1.0388535624     0.2056126957
| 36>  H        3.2233793736     0.9080341005     2.8337525076
| 37>  H        3.9684210147    -1.2393487079     4.3409254627
| 38>  H        3.6949476938    -3.3836474100     2.6633428095
| 39> *
| 40>
| 41>                          ****END OF INPUT****
 Total Charge           Charge          ....    1
 Multiplicity           Mult            ....    1
 Number of Electrons    NEL             ....   52
FINAL SINGLE POINT ENERGY      -324.802751996494

CARTESIAN COORDINATES (ANGSTROEM)
---------------------------------
  N      2.370284   -0.000120   -0.762631
  C      1.187998   -0.966882   -0.767219
  C     -0.012835   -0.303726   -0.251368
  C     -1.188357    0.078846   -0.813043
  C     -1.957003    0.652525    0.236724
  C     -1.188765    0.581993    1.349471
  O      0.000209    0.000668    1.072826
  H      3.234542   -0.441968   -1.084966
  H      2.522789    0.349592    0.186377
  H      2.172681    0.806886   -1.358354
  H      1.503354   -1.813202   -0.153399
  H      1.047597   -1.296008   -1.795144
  H     -1.482948   -0.046294   -1.843920
  H     -2.953372    1.058310    0.170031
  H     -1.339185    0.885966    2.372572

FINAL SINGLE POINT ENERGY      -324.802752261539
                    ***********************HURRAY********************
 Multiplicity           Mult            ....    1
 Number of Electrons    NEL             ....   52
 Basis Dimension        Dim             ....  265
FINAL SINGLE POINT ENERGY      -324.802752298168

VIBRATIONAL FREQUENCIES
-----------------------

   0:         0.00 cm**-1
   1:         0.00 cm**-1
   2:         0.00 cm**-1
   3:         0.00 cm**-1
   4:         0.00 cm**-1
   5:         0.00 cm**-1
   6:        73.03 cm**-1
   7:       139.04 cm**-1
   8:       207.58 cm**-1
   9:       336.47 cm**-1
  10:       397.56 cm**-1
  11:       611.84 cm**-1
  12:       642.64 cm**-1
  13:       699.50 cm**-1
  14:       794.97 cm**-1
  15:       836.28 cm**-1
  16:       846.13 cm**-1
  17:       876.69 cm**-1
  18:       903.02 cm**-1
  19:       925.42 cm**-1
  20:       964.06 cm**-1
  21:      1040.02 cm**-1
  22:      1056.83 cm**-1
  23:      1082.09 cm**-1
  24:      1129.67 cm**-1
  25:      1193.43 cm**-1
  26:      1264.88 cm**-1
  27:      1292.00 cm**-1
  28:      1331.63 cm**-1
  29:      1399.36 cm**-1
  30:      1436.92 cm**-1
  31:      1472.25 cm**-1
  32:      1492.03 cm**-1
  33:      1544.44 cm**-1
  34:      1646.47 cm**-1
  35:      1658.74 cm**-1
  36:      1664.93 cm**-1
  37:      3097.27 cm**-1
  38:      3175.97 cm**-1
  39:      3267.42 cm**-1
  40:      3282.04 cm**-1
  41:      3301.81 cm**-1
  42:      3411.12 cm**-1
  43:      3501.50 cm**-1
  44:      3505.51 cm**-1

IR SPECTRUM
-----------

 Mode    freq (cm**-1)   T**2         TX         TY         TZ
-------------------------------------------------------------------
   6:        73.03    7.856743  (  0.171340  -1.147361   2.551656)
   7:       139.04   14.726231  ( -1.716952   3.299670   0.943656)
   8:       207.58    0.462104  (  0.448263   0.184700  -0.476499)
   9:       336.47    7.094011  (  1.179181   1.133150  -2.102264)
  10:       397.56   17.592355  ( -3.861614  -1.632646  -0.121476)
  11:       611.84    8.590949  ( -0.866165  -2.747924   0.538163)
  12:       642.64    0.680495  ( -0.644035   0.482738  -0.180772)
  13:       699.50    0.446783  ( -0.615494   0.040950   0.257435)
  14:       794.97   70.348139  (  3.201231   7.506182  -1.938425)
  15:       836.28   16.438975  ( -3.417647  -0.441308   2.136331)
  16:       846.13   57.823699  (  7.485172   0.259885  -1.314668)
  17:       876.69    7.331445  ( -1.568027   2.157290  -0.467801)
  18:       903.02    3.508135  ( -1.625956   0.638196  -0.676098)
  19:       925.42    0.836946  ( -0.074277   0.856755  -0.312088)
  20:       964.06   19.252836  (  2.319612  -1.085416   3.562879)
  21:      1040.02   29.636355  (  2.800972   0.499083   4.641318)
  22:      1056.83   21.560370  ( -3.759053   1.732580   2.104294)
  23:      1082.09   19.007551  (  2.343684  -3.653992  -0.403782)
  24:      1129.67    2.705530  (  1.064799   0.179699   1.240742)
  25:      1193.43   24.201430  ( -4.210553   2.460073   0.648623)
  26:      1264.88    3.907520  ( -1.798712   0.810362  -0.124370)
  27:      1292.00    8.580039  (  1.893587   0.166931   2.228564)
  28:      1331.63    6.477034  (  1.346584  -0.609534   2.071766)
  29:      1399.36   59.228755  ( -7.346597   2.248551   0.447531)
  30:      1436.92   20.648125  ( -3.859786   0.937868   2.206940)
  31:      1472.25   16.629356  (  2.133007  -2.740204  -2.137970)
  32:      1492.03  149.864037  ( -9.938987  -7.132243   0.460092)
  33:      1544.44   39.663892  ( -1.037363   0.872013   6.150395)
  34:      1646.47   51.391302  (  0.814510   0.457479  -7.107643)
  35:      1658.74   34.472488  (  4.735282  -3.375968   0.807734)
  36:      1664.93    9.283050  (  1.106542  -2.681306  -0.932316)
  37:      3097.27    3.194986  (  1.569399  -0.602203  -0.607721)
  38:      3175.97    1.209117  ( -0.316631   0.238064   1.025762)
  39:      3267.42    0.761257  (  0.560681  -0.052550   0.666432)
  40:      3282.04    7.402661  (  1.644874  -0.234268   2.154570)
  41:      3301.81    6.756868  ( -1.859950   1.009071   1.509712)
  42:      3411.12   39.025835  ( -5.459412  -3.035319   0.086588)
  43:      3501.50   88.547053  (  1.167594  -2.616822  -8.963036)
  44:      3505.51   86.009660  (  4.879794  -6.986415   3.658863)

--------------------------
THERMOCHEMISTRY AT 298.15K
--------------------------

Temperature         ... 298.15 K
Pressure            ... 1.00 atm
Total Mass          ... 98.12 AMU

Throughout the following assumptions are being made:
  (1) The electronic state is orbitally nondegenerate
  (2) There are no thermally accessible electronically excited states
  (3) Hindered rotations indicated by low frequency modes) are not
      treated as such but are treated as vibrations and this may
      case some error
  (4) All equations used are the standard statistical mechanics
      equations for an ideal gas
  (5) All vibrations are strinctly harmonic

------------
INNER ENERGY
------------

The inner energy is: U= E(el) + E(ZPE) + E(vib) + E(rot) + E(trans)
    E(el)   - is the total energy from the electronic structure calculation
              = E(kin-el) + E(nuc-el) + E(el-el) + E(nuc-nuc)
    E(ZPE)  - the the zero temperature vibrational energy from the frequency calculation
    E(vib)  - the the finite temperature correction to E(ZPE) due to population
              of excietd vibrational states
    E(rot)  - is the rotational thermal energy
    E(trans)- is the translational thermal energy

Summary of contributions to the inner energy U:
Electronic energy                ...   -324.80275230 Eh
Zero point energy                ...      0.13100047 Eh      82.20 kcal/mol
Thermal vibrational correction   ...      0.00370781 Eh       2.33 kcal/mol
Thermal rotational correction    ...      0.00141627 Eh       0.89 kcal/mol
Thermal translational correction ...      0.00141627 Eh       0.89 kcal/mol
-----------------------------------------------------------------------
Total thermal energy                   -324.66521147 Eh

Summary of corrections to the electronic energy:
(perhaps to be used in another calculation)
Total thermal correction                  0.00654036 Eh       4.10 kcal/mol
Non-thermal (ZPE) correction              0.13100047 Eh      82.20 kcal/mol
-----------------------------------------------------------------------
Total correction                          0.13754083 Eh      86.31 kcal/mol

--------
ENTHALPY
--------

The enthalpy is H = U + kB*T
                kB is Boltzmann's constant
Total free energy                 ...   -324.66521147 Eh
Thermal Enthalpy correction       ...      0.00094421 Eh       0.59 kcal/mol
-----------------------------------------------------------------------
Total Enthalpy                    ...   -324.66426726 Eh

-------
ENTROPY
-------

The entropy contributions are T*S = T*(S(el)+S(vib)+S(rot)+S(trans)
     S(el)   - electronic entropy
     S(vib)  - vibrational entropy
     S(rot)  - rotational entropy
     S(trans)- translational entropy
The entropies will be listed as mutliplied by the temperature to get
units of energy

Electronic entropy                ...      0.00000000 Eh      0.00 kcal/mol
Vibrational entropy               ...      0.00658036 Eh      4.13 kcal/mol
Rotational entropy                ...      0.01185095 Eh      7.44 kcal/mol
Translational entropy             ...      0.01884443 Eh     11.83 kcal/mol
-----------------------------------------------------------------------
Final entropy term                ...      0.03727575 Eh     23.39 kcal/mol

CAUTION: The rotational entropy is not quite correctly treated here
         because it includes a symmetry number that is not yet correctly
         implemented in ORCA!
For a nonlinear molecule the correct rotational entropy is:
    S(rot) = R*(ln(qrot/sn)+1.5)
    R    = 8.31441 J/mol/K = 1.987191683e-3 kcal/mol/K
    qrot = 189128.5458030
    sn is the rotational symmetry number. We have assumed 3 here
       if it is different for your molecule then you should correct
       the printed rotational entropy by manually evaluating the equation
       as given above

For convenience we print out the resulting values for sn=1 - 12:
 sn= 1  qrot/sn=  189128.5458 T*S(rot)=     8.09 kcal/mol T*S(tot)=    24.04 kcal/mol
 sn= 2  qrot/sn=   94564.2729 T*S(rot)=     7.68 kcal/mol T*S(tot)=    23.63 kcal/mol
 sn= 3  qrot/sn=   63042.8486 T*S(rot)=     7.44 kcal/mol T*S(tot)=    23.39 kcal/mol
 sn= 4  qrot/sn=   47282.1365 T*S(rot)=     7.27 kcal/mol T*S(tot)=    23.22 kcal/mol
 sn= 5  qrot/sn=   37825.7092 T*S(rot)=     7.13 kcal/mol T*S(tot)=    23.09 kcal/mol
 sn= 6  qrot/sn=   31521.4243 T*S(rot)=     7.03 kcal/mol T*S(tot)=    22.98 kcal/mol
 sn= 7  qrot/sn=   27018.3637 T*S(rot)=     6.93 kcal/mol T*S(tot)=    22.89 kcal/mol
 sn= 8  qrot/sn=   23641.0682 T*S(rot)=     6.86 kcal/mol T*S(tot)=    22.81 kcal/mol
 sn= 9  qrot/sn=   21014.2829 T*S(rot)=     6.79 kcal/mol T*S(tot)=    22.74 kcal/mol
 sn=10  qrot/sn=   18912.8546 T*S(rot)=     6.72 kcal/mol T*S(tot)=    22.68 kcal/mol
 sn=11  qrot/sn=   17193.5042 T*S(rot)=     6.67 kcal/mol T*S(tot)=    22.62 kcal/mol
 sn=12  qrot/sn=   15760.7122 T*S(rot)=     6.62 kcal/mol T*S(tot)=    22.57 kcal/mol

-------------------
GIBBS FREE ENTHALPY
-------------------

The Gibbs free enthalpy is G = H - T*S

Total enthalpy                    ...   -324.66426726 Eh
Total entropy correction          ...     -0.03727575 Eh    -23.39 kcal/mol
-----------------------------------------------------------------------
Final Gibbs free enthalpy         ...   -324.70154301 Eh

For completeness - the Gibbs free enthalpy minus the electronic energy
G-E(el)                           ...      0.10120929 Eh     63.51 kcal/mol

                             ****ORCA TERMINATED NORMALLY****
TOTAL RUN TIME: 0 days 0 hours 29 minutes 22 seconds 189 msec
