                         Program Version 3.0.3 - RELEASE   -
|  1> ! NORI PBE0 def2-TZVP UseSym TightOPT Freq TightSCF Grid3 FinalGrid5 XYZFile
|  2> % pal
|  3>     nprocs 8
|  4> end
|  5> %method
|  6>     SymThresh 5.0e-2
|  7> end
|  8> % geom
|  9>     MaxIter 10
| 10> end
| 11> % maxcore 2000
| 12> % output
| 13>     printlevel mini
| 14>     print[ P_Basis ] 0
| 15>     print[ P_SCFInfo ] 1
| 16>     print[ P_SCFIterInfo ] 1
| 17>     print[ P_OrbEn ] 0
| 18>     print[ P_Cartesian ] 0
| 19> end
| 20> % elprop
| 21>     Dipole false
| 22> end
| 23> *xyz 1 1
| 24>  N        2.9864154629    -0.8925336606    -0.7472547478
| 25>  C        2.3510754390     0.1159186736     0.1649782358
| 26>  C        2.9030235730    -0.1440708704     1.5541439948
| 27>  C        2.0922177277     0.4549475864     2.6922062637
| 28>  C        2.3073147769    -0.5809176655     3.7926960534
| 29>  C        2.3111682161    -1.8842198363     3.0176672911
| 30>  O        2.8724267068    -1.5535628770     1.7292534796
| 31>  H        2.4956919196    -0.9941485319    -1.6351189531
| 32>  H        2.9622111801    -1.7813577497    -0.2199558017
| 33>  H        3.9635706111    -0.6697182013    -0.9430262892
| 34>  H        1.2774896009    -0.0745828164     0.1328135880
| 35>  H        2.5606129085     1.1177553296    -0.2090330946
| 36>  H        3.9479085154     0.1960543331     1.6037271256
| 37>  H        1.0337919447     0.5119096697     2.4205728216
| 38>  H        2.4284785019     1.4544862934     2.9656229431
| 39>  H        1.5306832284    -0.5519089167     4.5567372851
| 40>  H        3.2702605839    -0.4227450273     4.2836057723
| 41>  H        2.9323677623    -2.6614227024     3.4622884868
| 42>  H        1.3015613411    -2.2774430303     2.8687355454
| 43> *
| 44>
| 45>                          ****END OF INPUT****
 Total Charge           Charge          ....    1
 Multiplicity           Mult            ....    1
 Number of Electrons    NEL             ....   56
FINAL SINGLE POINT ENERGY      -327.233588690831
FINAL SINGLE POINT ENERGY      -327.233590038518
FINAL SINGLE POINT ENERGY      -327.233591050014

CARTESIAN COORDINATES (ANGSTROEM)
---------------------------------
  N      2.463249    0.000729    0.223385
  C      1.464451   -0.130983   -0.889531
  C      0.168533    0.475461   -0.383986
  C     -1.077883    0.073465   -1.155664
  C     -2.129583    0.076772   -0.048666
  C     -1.355120   -0.462707    1.138293
  O      0.000815   -0.007767    0.941687
  H      3.276830   -0.602410    0.104769
  H      1.945360   -0.259069    1.079208
  H      2.788795    0.962488    0.333495
  H      1.346878   -1.199373   -1.072573
  H      1.857087    0.356613   -1.781155
  H      0.264702    1.570979   -0.351790
  H     -0.963284   -0.931093   -1.574018
  H     -1.305637    0.758749   -1.971727
  H     -2.999113   -0.533099   -0.291259
  H     -2.473613    1.094678    0.147234
  H     -1.698589   -0.082129    2.099948
  H     -1.355883   -1.555985    1.167117

FINAL SINGLE POINT ENERGY      -327.233591711625
                    ***********************HURRAY********************
 Multiplicity           Mult            ....    1
 Number of Electrons    NEL             ....   56
 Basis Dimension        Dim             ....  289
FINAL SINGLE POINT ENERGY      -327.233592632753

VIBRATIONAL FREQUENCIES
-----------------------

   0:         0.00 cm**-1
   1:         0.00 cm**-1
   2:         0.00 cm**-1
   3:         0.00 cm**-1
   4:         0.00 cm**-1
   5:         0.00 cm**-1
   6:        81.03 cm**-1
   7:       128.96 cm**-1
   8:       198.58 cm**-1
   9:       256.03 cm**-1
  10:       278.97 cm**-1
  11:       413.08 cm**-1
  12:       477.97 cm**-1
  13:       571.39 cm**-1
  14:       665.03 cm**-1
  15:       810.89 cm**-1
  16:       870.71 cm**-1
  17:       892.90 cm**-1
  18:       915.44 cm**-1
  19:       943.30 cm**-1
  20:       951.64 cm**-1
  21:       967.91 cm**-1
  22:      1012.96 cm**-1
  23:      1046.56 cm**-1
  24:      1064.68 cm**-1
  25:      1127.65 cm**-1
  26:      1147.64 cm**-1
  27:      1180.04 cm**-1
  28:      1210.68 cm**-1
  29:      1224.69 cm**-1
  30:      1269.75 cm**-1
  31:      1312.55 cm**-1
  32:      1331.74 cm**-1
  33:      1348.58 cm**-1
  34:      1360.02 cm**-1
  35:      1374.55 cm**-1
  36:      1394.55 cm**-1
  37:      1423.90 cm**-1
  38:      1473.32 cm**-1
  39:      1480.91 cm**-1
  40:      1488.21 cm**-1
  41:      1494.15 cm**-1
  42:      1526.14 cm**-1
  43:      1640.91 cm**-1
  44:      1669.14 cm**-1
  45:      3001.56 cm**-1
  46:      3066.95 cm**-1
  47:      3068.06 cm**-1
  48:      3088.09 cm**-1
  49:      3105.61 cm**-1
  50:      3138.63 cm**-1
  51:      3145.03 cm**-1
  52:      3155.09 cm**-1
  53:      3173.11 cm**-1
  54:      3300.78 cm**-1
  55:      3474.06 cm**-1
  56:      3531.21 cm**-1

IR SPECTRUM
-----------

 Mode    freq (cm**-1)   T**2         TX         TY         TZ
-------------------------------------------------------------------
   6:        81.03    9.515477  (  0.429119   3.030269   0.385752)
   7:       128.96   10.213702  (  2.194143   2.019403  -1.149543)
   8:       198.58   14.098205  ( -3.299856   0.189211   1.781391)
   9:       256.03   17.387146  (  3.355491  -1.582215  -1.903792)
  10:       278.97    0.282915  (  0.012891  -0.150165   0.510097)
  11:       413.08   25.086796  (  4.781314  -1.008711   1.099243)
  12:       477.97    4.983519  (  1.432117   0.126407   1.707800)
  13:       571.39    2.215313  ( -1.351248  -0.566108   0.262610)
  14:       665.03    2.095965  (  0.611734  -0.014253   1.312076)
  15:       810.89   35.348600  (  5.758751   0.468543   1.402091)
  16:       870.71    2.919539  (  0.557866  -1.565761   0.395877)
  17:       892.90    4.862338  (  0.510450   0.167942  -2.138592)
  18:       915.44   11.060113  (  0.928893   3.036438  -0.988593)
  19:       943.30    4.061099  (  1.881116  -0.059719  -0.720371)
  20:       951.64   10.035442  ( -1.894770  -0.010875   2.538734)
  21:       967.91   26.233381  ( -4.828262  -0.157841  -1.701869)
  22:      1012.96    7.444309  ( -1.975620  -1.551297  -1.065228)
  23:      1046.56    5.861025  (  0.610785   0.593647  -2.266175)
  24:      1064.68  149.240295  (-10.824741  -1.675276   5.409133)
  25:      1127.65   24.723356  ( -3.189125  -1.761846   3.383599)
  26:      1147.64   23.545935  (  0.178137   3.406582  -3.451000)
  27:      1180.04    4.858703  ( -1.206171  -1.814051   0.336265)
  28:      1210.68    5.230638  (  2.162224   0.585302   0.461352)
  29:      1224.69    1.180883  (  0.134365   0.266895  -1.044795)
  30:      1269.75    3.739957  (  1.606511  -0.378642  -1.007825)
  31:      1312.55    0.854943  (  0.043668  -0.373967   0.844503)
  32:      1331.74   15.252512  (  2.792851   2.120763  -1.718971)
  33:      1348.58    2.996858  (  0.823310   0.000711  -1.522833)
  34:      1360.02    2.164740  (  0.383832   0.030083  -1.420038)
  35:      1374.55    4.276137  (  2.054257   0.100080  -0.214826)
  36:      1394.55    7.380954  ( -0.487572   0.485796  -2.628161)
  37:      1423.90    1.889374  (  0.859951  -0.533636  -0.930103)
  38:      1473.32  188.381914  (-10.660725   0.125607  -8.643789)
  39:      1480.91    8.070791  (  1.057442   0.947960   2.460483)
  40:      1488.21   24.595825  (  4.145849  -2.629373  -0.702967)
  41:      1494.15    6.932009  (  1.106318   0.248536   2.376194)
  42:      1526.14    2.365532  ( -0.689870  -1.359234  -0.205168)
  43:      1640.91   32.699142  (  2.391048   5.003693  -1.394662)
  44:      1669.14   37.423004  ( -4.526005   3.343209   2.400257)
  45:      3001.56   27.116837  (  2.014550   4.638394  -1.242468)
  46:      3066.95   25.579587  ( -2.279297  -3.248910   3.135120)
  47:      3068.06   10.850176  (  0.209879   3.014797   1.310393)
  48:      3088.09    9.099083  ( -1.539638   2.590283   0.137969)
  49:      3105.61    1.757510  ( -0.438880   0.934476   0.831655)
  50:      3138.63    7.816288  ( -1.514211   0.971621   2.139955)
  51:      3145.03    2.377257  (  0.611550  -0.908774   1.085077)
  52:      3155.09    7.719094  ( -0.159398  -2.721095  -0.537891)
  53:      3173.11    1.142111  (  0.550224   0.801901  -0.443079)
  54:      3300.78  129.364305  ( -7.931827  -1.856940   7.937393)
  55:      3474.06  110.551640  (  9.685859   3.885805  -1.279175)
  56:      3531.21  101.976006  ( -5.127655   8.542463   1.646050)

--------------------------
THERMOCHEMISTRY AT 298.15K
--------------------------

Temperature         ... 298.15 K
Pressure            ... 1.00 atm
Total Mass          ... 102.16 AMU

Throughout the following assumptions are being made:
  (1) The electronic state is orbitally nondegenerate
  (2) There are no thermally accessible electronically excited states
  (3) Hindered rotations indicated by low frequency modes) are not
      treated as such but are treated as vibrations and this may
      case some error
  (4) All equations used are the standard statistical mechanics
      equations for an ideal gas
  (5) All vibrations are strinctly harmonic

------------
INNER ENERGY
------------

The inner energy is: U= E(el) + E(ZPE) + E(vib) + E(rot) + E(trans)
    E(el)   - is the total energy from the electronic structure calculation
              = E(kin-el) + E(nuc-el) + E(el-el) + E(nuc-nuc)
    E(ZPE)  - the the zero temperature vibrational energy from the frequency calculation
    E(vib)  - the the finite temperature correction to E(ZPE) due to population
              of excietd vibrational states
    E(rot)  - is the rotational thermal energy
    E(trans)- is the translational thermal energy

Summary of contributions to the inner energy U:
Electronic energy                ...   -327.23359263 Eh
Zero point energy                ...      0.17832424 Eh     111.90 kcal/mol
Thermal vibrational correction   ...      0.00444727 Eh       2.79 kcal/mol
Thermal rotational correction    ...      0.00141627 Eh       0.89 kcal/mol
Thermal translational correction ...      0.00141627 Eh       0.89 kcal/mol
-----------------------------------------------------------------------
Total thermal energy                   -327.04798857 Eh

Summary of corrections to the electronic energy:
(perhaps to be used in another calculation)
Total thermal correction                  0.00727982 Eh       4.57 kcal/mol
Non-thermal (ZPE) correction              0.17832424 Eh     111.90 kcal/mol
-----------------------------------------------------------------------
Total correction                          0.18560406 Eh     116.47 kcal/mol

--------
ENTHALPY
--------

The enthalpy is H = U + kB*T
                kB is Boltzmann's constant
Total free energy                 ...   -327.04798857 Eh
Thermal Enthalpy correction       ...      0.00094421 Eh       0.59 kcal/mol
-----------------------------------------------------------------------
Total Enthalpy                    ...   -327.04704436 Eh

-------
ENTROPY
-------

The entropy contributions are T*S = T*(S(el)+S(vib)+S(rot)+S(trans)
     S(el)   - electronic entropy
     S(vib)  - vibrational entropy
     S(rot)  - rotational entropy
     S(trans)- translational entropy
The entropies will be listed as mutliplied by the temperature to get
units of energy

Electronic entropy                ...      0.00000000 Eh      0.00 kcal/mol
Vibrational entropy               ...      0.00777930 Eh      4.88 kcal/mol
Rotational entropy                ...      0.01198057 Eh      7.52 kcal/mol
Translational entropy             ...      0.01890147 Eh     11.86 kcal/mol
-----------------------------------------------------------------------
Final entropy term                ...      0.03866134 Eh     24.26 kcal/mol

CAUTION: The rotational entropy is not quite correctly treated here
         because it includes a symmetry number that is not yet correctly
         implemented in ORCA!
For a nonlinear molecule the correct rotational entropy is:
    S(rot) = R*(ln(qrot/sn)+1.5)
    R    = 8.31441 J/mol/K = 1.987191683e-3 kcal/mol/K
    qrot = 216958.6305961
    sn is the rotational symmetry number. We have assumed 3 here
       if it is different for your molecule then you should correct
       the printed rotational entropy by manually evaluating the equation
       as given above

For convenience we print out the resulting values for sn=1 - 12:
 sn= 1  qrot/sn=  216958.6306 T*S(rot)=     8.17 kcal/mol T*S(tot)=    24.91 kcal/mol
 sn= 2  qrot/sn=  108479.3153 T*S(rot)=     7.76 kcal/mol T*S(tot)=    24.50 kcal/mol
 sn= 3  qrot/sn=   72319.5435 T*S(rot)=     7.52 kcal/mol T*S(tot)=    24.26 kcal/mol
 sn= 4  qrot/sn=   54239.6576 T*S(rot)=     7.35 kcal/mol T*S(tot)=    24.09 kcal/mol
 sn= 5  qrot/sn=   43391.7261 T*S(rot)=     7.22 kcal/mol T*S(tot)=    23.96 kcal/mol
 sn= 6  qrot/sn=   36159.7718 T*S(rot)=     7.11 kcal/mol T*S(tot)=    23.85 kcal/mol
 sn= 7  qrot/sn=   30994.0901 T*S(rot)=     7.02 kcal/mol T*S(tot)=    23.76 kcal/mol
 sn= 8  qrot/sn=   27119.8288 T*S(rot)=     6.94 kcal/mol T*S(tot)=    23.68 kcal/mol
 sn= 9  qrot/sn=   24106.5145 T*S(rot)=     6.87 kcal/mol T*S(tot)=    23.61 kcal/mol
 sn=10  qrot/sn=   21695.8631 T*S(rot)=     6.80 kcal/mol T*S(tot)=    23.55 kcal/mol
 sn=11  qrot/sn=   19723.5119 T*S(rot)=     6.75 kcal/mol T*S(tot)=    23.49 kcal/mol
 sn=12  qrot/sn=   18079.8859 T*S(rot)=     6.70 kcal/mol T*S(tot)=    23.44 kcal/mol

-------------------
GIBBS FREE ENTHALPY
-------------------

The Gibbs free enthalpy is G = H - T*S

Total enthalpy                    ...   -327.04704436 Eh
Total entropy correction          ...     -0.03866134 Eh    -24.26 kcal/mol
-----------------------------------------------------------------------
Final Gibbs free enthalpy         ...   -327.08570570 Eh

For completeness - the Gibbs free enthalpy minus the electronic energy
G-E(el)                           ...      0.14788693 Eh     92.80 kcal/mol

                             ****ORCA TERMINATED NORMALLY****
TOTAL RUN TIME: 0 days 0 hours 49 minutes 56 seconds 807 msec
