                         Program Version 3.0.3 - RELEASE   -
|  1> ! NORI PBE0 def2-TZVP UseSym TightOPT Freq TightSCF Grid3 FinalGrid5 XYZFile
|  2> % pal
|  3>     nprocs 8
|  4> end
|  5> %method
|  6>     SymThresh 5.0e-2
|  7> end
|  8> % geom
|  9>     MaxIter 10
| 10> end
| 11> % maxcore 2000
| 12> % output
| 13>     printlevel mini
| 14>     print[ P_Basis ] 0
| 15>     print[ P_SCFInfo ] 1
| 16>     print[ P_SCFIterInfo ] 1
| 17>     print[ P_OrbEn ] 0
| 18>     print[ P_Cartesian ] 0
| 19> end
| 20> % elprop
| 21>     Dipole false
| 22> end
| 23> *xyz 1 1
| 24>  N        2.2261664413     1.4159715966    -0.2126070587
| 25>  C        2.4354031623    -0.0462246502     0.0449465849
| 26>  C        3.0810220505    -0.1810440215     1.4160578752
| 27>  C        3.7290319863    -1.5559130735     1.6169823946
| 28>  C        5.1803211685    -1.2233494607     1.4155435621
| 29>  C        5.3257664462     0.0875564351     1.3544529619
| 30>  O        4.1376075810     0.7920297292     1.4506644397
| 31>  H        2.0698712691     1.6284806354    -1.1979068829
| 32>  H        3.0888456693     1.8798799176     0.1134500930
| 33>  H        1.4430121334     1.7931181270     0.3239314531
| 34>  H        3.1141827122    -0.4067097143    -0.7294836258
| 35>  H        1.4798061718    -0.5637067631    -0.0306266190
| 36>  H        2.3699500461     0.0784109635     2.2044581026
| 37>  H        3.3511276178    -2.2974766840     0.9067251192
| 38>  H        3.5399484915    -1.9481973787     2.6197510756
| 39>  H        5.9808605292    -1.9462203158     1.3858222430
| 40>  H        6.2085165236     0.7035546573     1.2680682815
| 41> *
| 42>
| 43>                          ****END OF INPUT****
 Total Charge           Charge          ....    1
 Multiplicity           Mult            ....    1
 Number of Electrons    NEL             ....   54
FINAL SINGLE POINT ENERGY      -326.003451643796

CARTESIAN COORDINATES (ANGSTROEM)
---------------------------------
  N      2.365733   -0.000452   -0.036192
  C      1.197004    0.131841   -0.966356
  C      0.045774    0.730376   -0.171992
  C     -1.304939    0.522725   -0.867129
  C     -1.872856   -0.611337   -0.061481
  C     -1.110046   -0.824100    0.995126
  O     -0.000067    0.000588    1.064779
  H      3.079839   -0.641327   -0.382363
  H      1.974408   -0.357294    0.849953
  H      2.809327    0.899723    0.154684
  H      0.943996   -0.876713   -1.296856
  H      1.487683    0.739506   -1.822545
  H      0.247734    1.776668    0.071514
  H     -1.189896    0.285555   -1.929140
  H     -1.932112    1.415989   -0.805298
  H     -2.793497   -1.127165   -0.285733
  H     -1.214632   -1.508779    1.823567

FINAL SINGLE POINT ENERGY      -326.003451925013
                    ***********************HURRAY********************
 Multiplicity           Mult            ....    1
 Number of Electrons    NEL             ....   54
 Basis Dimension        Dim             ....  277
FINAL SINGLE POINT ENERGY      -326.003452025264

VIBRATIONAL FREQUENCIES
-----------------------

   0:         0.00 cm**-1
   1:         0.00 cm**-1
   2:         0.00 cm**-1
   3:         0.00 cm**-1
   4:         0.00 cm**-1
   5:         0.00 cm**-1
   6:        85.94 cm**-1
   7:       147.92 cm**-1
   8:       237.57 cm**-1
   9:       278.42 cm**-1
  10:       391.59 cm**-1
  11:       429.84 cm**-1
  12:       520.28 cm**-1
  13:       722.25 cm**-1
  14:       755.13 cm**-1
  15:       818.61 cm**-1
  16:       849.32 cm**-1
  17:       874.66 cm**-1
  18:       929.36 cm**-1
  19:       948.44 cm**-1
  20:       963.71 cm**-1
  21:       983.16 cm**-1
  22:      1021.05 cm**-1
  23:      1055.12 cm**-1
  24:      1064.34 cm**-1
  25:      1112.68 cm**-1
  26:      1129.80 cm**-1
  27:      1160.34 cm**-1
  28:      1234.06 cm**-1
  29:      1299.22 cm**-1
  30:      1315.12 cm**-1
  31:      1337.60 cm**-1
  32:      1355.32 cm**-1
  33:      1380.87 cm**-1
  34:      1411.57 cm**-1
  35:      1475.45 cm**-1
  36:      1487.58 cm**-1
  37:      1491.74 cm**-1
  38:      1645.41 cm**-1
  39:      1670.91 cm**-1
  40:      1712.48 cm**-1
  41:      3062.03 cm**-1
  42:      3086.09 cm**-1
  43:      3100.64 cm**-1
  44:      3105.96 cm**-1
  45:      3172.99 cm**-1
  46:      3261.76 cm**-1
  47:      3284.18 cm**-1
  48:      3315.88 cm**-1
  49:      3472.71 cm**-1
  50:      3527.14 cm**-1

IR SPECTRUM
-----------

 Mode    freq (cm**-1)   T**2         TX         TY         TZ
-------------------------------------------------------------------
   6:        85.94    8.745480  (  1.665055   2.438733   0.160169)
   7:       147.92    9.407400  (  2.469561   1.455274  -1.091258)
   8:       237.57   22.791397  ( -4.069466   0.777616   2.371953)
   9:       278.42    0.305428  (  0.106125  -0.030148   0.541532)
  10:       391.59   14.311697  ( -3.764753   0.325929  -0.179166)
  11:       429.84   23.399925  ( -4.138008   2.370289   0.811508)
  12:       520.28   11.494145  ( -0.297636   1.673707   2.933302)
  13:       722.25    8.987702  ( -2.278286  -0.211116   1.937148)
  14:       755.13   40.331837  ( -2.618405   4.610873   3.495088)
  15:       818.61   24.911786  (  4.757784  -1.191824   0.924575)
  16:       849.32    6.146841  ( -2.266667  -0.318126  -0.952816)
  17:       874.66   17.050562  (  0.927714   2.773899   2.914686)
  18:       929.36    3.618551  (  1.715177  -0.711313  -0.413224)
  19:       948.44   28.458519  ( -3.767727  -1.983232   3.213961)
  20:       963.71   28.273507  ( -3.858631   0.695220  -3.591816)
  21:       983.16    3.069465  (  0.746859  -1.580563  -0.116130)
  22:      1021.05   22.205366  ( -1.672739  -0.470849   4.380138)
  23:      1055.12   20.339431  (  4.177380   1.484915   0.827015)
  24:      1064.34  108.138645  (  9.977679   2.767113  -0.963147)
  25:      1112.68   14.866295  ( -1.596133   3.074629   1.692723)
  26:      1129.80    2.842054  ( -1.075239  -1.290311   0.144957)
  27:      1160.34   44.902343  ( -5.459304  -3.726973   1.099096)
  28:      1234.06    3.810084  ( -1.756967  -0.682700   0.507023)
  29:      1299.22    6.995249  (  2.040170   1.683014   0.020463)
  30:      1315.12   10.395040  ( -2.459167  -0.940234  -1.861047)
  31:      1337.60   17.386381  (  2.951500   2.586032  -1.409776)
  32:      1355.32    3.995928  ( -1.592191  -0.795668   0.909818)
  33:      1380.87    2.346287  ( -1.119852  -0.039304  -1.044354)
  34:      1411.57    3.877056  ( -0.507655   0.172543   1.894617)
  35:      1475.45  187.522023  ( 11.269781  -1.583219   7.616264)
  36:      1487.58   13.421542  ( -2.100581   1.637544   2.515462)
  37:      1491.74   28.132259  (  4.028149  -2.169295   2.683363)
  38:      1645.41   31.775603  ( -3.003685  -4.263324   2.139520)
  39:      1670.91   36.371681  ( -3.073892   3.840983   3.488513)
  40:      1712.48   36.528090  (  5.274490   1.440859   2.575222)
  41:      3062.03    9.184799  (  0.411534  -1.036747   2.817906)
  42:      3086.09    9.349866  ( -1.972144  -2.244932   0.648687)
  43:      3100.64    1.722503  (  0.388868  -1.170481  -0.448619)
  44:      3105.96    2.612861  (  0.128788   1.410013   0.779833)
  45:      3172.99    0.184673  ( -0.359810  -0.221015   0.079762)
  46:      3261.76    6.595783  ( -2.111954  -0.101331  -1.457795)
  47:      3284.18    1.948527  (  1.060166   0.904055  -0.085203)
  48:      3315.88  107.016291  ( -6.365667  -2.693072   7.696878)
  49:      3472.71  121.188857  (-10.211107  -3.497920   2.164880)
  50:      3527.14  106.490931  (  3.978811  -8.790164  -3.659646)

--------------------------
THERMOCHEMISTRY AT 298.15K
--------------------------

Temperature         ... 298.15 K
Pressure            ... 1.00 atm
Total Mass          ... 100.14 AMU

Throughout the following assumptions are being made:
  (1) The electronic state is orbitally nondegenerate
  (2) There are no thermally accessible electronically excited states
  (3) Hindered rotations indicated by low frequency modes) are not
      treated as such but are treated as vibrations and this may
      case some error
  (4) All equations used are the standard statistical mechanics
      equations for an ideal gas
  (5) All vibrations are strinctly harmonic

------------
INNER ENERGY
------------

The inner energy is: U= E(el) + E(ZPE) + E(vib) + E(rot) + E(trans)
    E(el)   - is the total energy from the electronic structure calculation
              = E(kin-el) + E(nuc-el) + E(el-el) + E(nuc-nuc)
    E(ZPE)  - the the zero temperature vibrational energy from the frequency calculation
    E(vib)  - the the finite temperature correction to E(ZPE) due to population
              of excietd vibrational states
    E(rot)  - is the rotational thermal energy
    E(trans)- is the translational thermal energy

Summary of contributions to the inner energy U:
Electronic energy                ...   -326.00345203 Eh
Zero point energy                ...      0.15420061 Eh      96.76 kcal/mol
Thermal vibrational correction   ...      0.00398966 Eh       2.50 kcal/mol
Thermal rotational correction    ...      0.00141627 Eh       0.89 kcal/mol
Thermal translational correction ...      0.00141627 Eh       0.89 kcal/mol
-----------------------------------------------------------------------
Total thermal energy                   -325.84242921 Eh

Summary of corrections to the electronic energy:
(perhaps to be used in another calculation)
Total thermal correction                  0.00682221 Eh       4.28 kcal/mol
Non-thermal (ZPE) correction              0.15420061 Eh      96.76 kcal/mol
-----------------------------------------------------------------------
Total correction                          0.16102281 Eh     101.04 kcal/mol

--------
ENTHALPY
--------

The enthalpy is H = U + kB*T
                kB is Boltzmann's constant
Total free energy                 ...   -325.84242921 Eh
Thermal Enthalpy correction       ...      0.00094421 Eh       0.59 kcal/mol
-----------------------------------------------------------------------
Total Enthalpy                    ...   -325.84148500 Eh

-------
ENTROPY
-------

The entropy contributions are T*S = T*(S(el)+S(vib)+S(rot)+S(trans)
     S(el)   - electronic entropy
     S(vib)  - vibrational entropy
     S(rot)  - rotational entropy
     S(trans)- translational entropy
The entropies will be listed as mutliplied by the temperature to get
units of energy

Electronic entropy                ...      0.00000000 Eh      0.00 kcal/mol
Vibrational entropy               ...      0.00683759 Eh      4.29 kcal/mol
Rotational entropy                ...      0.01187793 Eh      7.45 kcal/mol
Translational entropy             ...      0.01887324 Eh     11.84 kcal/mol
-----------------------------------------------------------------------
Final entropy term                ...      0.03758875 Eh     23.59 kcal/mol

CAUTION: The rotational entropy is not quite correctly treated here
         because it includes a symmetry number that is not yet correctly
         implemented in ORCA!
For a nonlinear molecule the correct rotational entropy is:
    S(rot) = R*(ln(qrot/sn)+1.5)
    R    = 8.31441 J/mol/K = 1.987191683e-3 kcal/mol/K
    qrot = 194609.9356638
    sn is the rotational symmetry number. We have assumed 3 here
       if it is different for your molecule then you should correct
       the printed rotational entropy by manually evaluating the equation
       as given above

For convenience we print out the resulting values for sn=1 - 12:
 sn= 1  qrot/sn=  194609.9357 T*S(rot)=     8.10 kcal/mol T*S(tot)=    24.24 kcal/mol
 sn= 2  qrot/sn=   97304.9678 T*S(rot)=     7.69 kcal/mol T*S(tot)=    23.83 kcal/mol
 sn= 3  qrot/sn=   64869.9786 T*S(rot)=     7.45 kcal/mol T*S(tot)=    23.59 kcal/mol
 sn= 4  qrot/sn=   48652.4839 T*S(rot)=     7.28 kcal/mol T*S(tot)=    23.42 kcal/mol
 sn= 5  qrot/sn=   38921.9871 T*S(rot)=     7.15 kcal/mol T*S(tot)=    23.28 kcal/mol
 sn= 6  qrot/sn=   32434.9893 T*S(rot)=     7.04 kcal/mol T*S(tot)=    23.18 kcal/mol
 sn= 7  qrot/sn=   27801.4194 T*S(rot)=     6.95 kcal/mol T*S(tot)=    23.09 kcal/mol
 sn= 8  qrot/sn=   24326.2420 T*S(rot)=     6.87 kcal/mol T*S(tot)=    23.01 kcal/mol
 sn= 9  qrot/sn=   21623.3262 T*S(rot)=     6.80 kcal/mol T*S(tot)=    22.94 kcal/mol
 sn=10  qrot/sn=   19460.9936 T*S(rot)=     6.74 kcal/mol T*S(tot)=    22.87 kcal/mol
 sn=11  qrot/sn=   17691.8123 T*S(rot)=     6.68 kcal/mol T*S(tot)=    22.82 kcal/mol
 sn=12  qrot/sn=   16217.4946 T*S(rot)=     6.63 kcal/mol T*S(tot)=    22.77 kcal/mol

-------------------
GIBBS FREE ENTHALPY
-------------------

The Gibbs free enthalpy is G = H - T*S

Total enthalpy                    ...   -325.84148500 Eh
Total entropy correction          ...     -0.03758875 Eh    -23.59 kcal/mol
-----------------------------------------------------------------------
Final Gibbs free enthalpy         ...   -325.87907376 Eh

For completeness - the Gibbs free enthalpy minus the electronic energy
G-E(el)                           ...      0.12437827 Eh     78.05 kcal/mol

                             ****ORCA TERMINATED NORMALLY****
TOTAL RUN TIME: 0 days 0 hours 36 minutes 36 seconds 144 msec
