                         Program Version 3.0.3 - RELEASE   -
|  1> ! NORI PBE0 def2-TZVP UseSym TightOPT Freq TightSCF Grid3 FinalGrid5 XYZFile
|  2> % pal
|  3>     nprocs 8
|  4> end
|  5> %method
|  6>     SymThresh 5.0e-2
|  7> end
|  8> % geom
|  9>     MaxIter 10
| 10> end
| 11> % maxcore 2000
| 12> % output
| 13>     printlevel mini
| 14>     print[ P_Basis ] 0
| 15>     print[ P_SCFInfo ] 1
| 16>     print[ P_SCFIterInfo ] 1
| 17>     print[ P_OrbEn ] 0
| 18>     print[ P_Cartesian ] 0
| 19> end
| 20> % elprop
| 21>     Dipole false
| 22> end
| 23> *xyz 1 1
| 24>  N        3.1650042435     0.2616961078    -1.1780861249
| 25>  C        2.3569845166     0.0289539243     0.0778901753
| 26>  C        2.9162702897    -1.1350881756     0.7961330833
| 27>  C        3.3135780746    -1.3761360598     2.0634579844
| 28>  C        3.7121848543    -2.7396336767     2.0123003433
| 29>  N        3.5771402343    -3.2456458780     0.8229613259
| 30>  O        3.0634309464    -2.2358736012     0.0429287719
| 31>  H        2.7583675878     0.9942887014    -1.7641518070
| 32>  H        3.2063773183    -0.6056707866    -1.7229721121
| 33>  H        4.1277972534     0.5247739925    -0.9532313943
| 34>  H        1.3294432022    -0.1449575315    -0.2500317078
| 35>  H        2.3947530888     0.9348836837     0.6800970888
| 36>  H        3.3210176526    -0.7085142153     2.9095281626
| 37>  H        4.0988407375    -3.3603864851     2.8078862106
| 38> *
| 39>
| 40>                          ****END OF INPUT****
 Total Charge           Charge          ....    1
 Multiplicity           Mult            ....    1
 Number of Electrons    NEL             ....   52
FINAL SINGLE POINT ENERGY      -340.799361787199

CARTESIAN COORDINATES (ANGSTROEM)
---------------------------------
  N      2.402004   -0.000174   -0.442388
  C      1.238462   -0.866260   -0.867682
  C     -0.012528   -0.271604   -0.352715
  C     -1.205225    0.061133   -0.890225
  C     -1.925392    0.558218    0.230071
  N     -1.216082    0.534553    1.318770
  O      0.000090    0.000552    0.961269
  H      3.301331   -0.420554   -0.686927
  H      2.372251    0.136968    0.573021
  H      2.349403    0.925374   -0.875041
  H      1.427038   -1.856385   -0.446290
  H      1.240712   -0.930641   -1.954116
  H     -1.537783   -0.032527   -1.911027
  H     -2.936680    0.936970    0.268653

FINAL SINGLE POINT ENERGY      -340.799361974413
                    ***********************HURRAY********************
 Multiplicity           Mult            ....    1
 Number of Electrons    NEL             ....   52
 Basis Dimension        Dim             ....  259
FINAL SINGLE POINT ENERGY      -340.799362066124

VIBRATIONAL FREQUENCIES
-----------------------

   0:         0.00 cm**-1
   1:         0.00 cm**-1
   2:         0.00 cm**-1
   3:         0.00 cm**-1
   4:         0.00 cm**-1
   5:         0.00 cm**-1
   6:        66.04 cm**-1
   7:       156.28 cm**-1
   8:       205.39 cm**-1
   9:       318.92 cm**-1
  10:       418.69 cm**-1
  11:       642.33 cm**-1
  12:       647.84 cm**-1
  13:       708.12 cm**-1
  14:       843.96 cm**-1
  15:       860.89 cm**-1
  16:       911.86 cm**-1
  17:       938.81 cm**-1
  18:       941.50 cm**-1
  19:       967.85 cm**-1
  20:      1023.89 cm**-1
  21:      1048.63 cm**-1
  22:      1077.77 cm**-1
  23:      1106.57 cm**-1
  24:      1219.34 cm**-1
  25:      1282.57 cm**-1
  26:      1326.90 cm**-1
  27:      1394.35 cm**-1
  28:      1401.80 cm**-1
  29:      1481.07 cm**-1
  30:      1511.11 cm**-1
  31:      1538.10 cm**-1
  32:      1647.65 cm**-1
  33:      1663.18 cm**-1
  34:      1681.44 cm**-1
  35:      3096.16 cm**-1
  36:      3175.22 cm**-1
  37:      3264.72 cm**-1
  38:      3292.18 cm**-1
  39:      3406.67 cm**-1
  40:      3482.38 cm**-1
  41:      3505.26 cm**-1

IR SPECTRUM
-----------

 Mode    freq (cm**-1)   T**2         TX         TY         TZ
-------------------------------------------------------------------
   6:        66.04   14.366572  ( -0.951924  -2.631031   2.556969)
   7:       156.28   20.152820  ( -3.236621   2.696992   1.550272)
   8:       205.39    1.974346  ( -1.302146   0.188613   0.493139)
   9:       318.92    9.067005  (  2.253444   0.596811  -1.905994)
  10:       418.69   16.441274  (  3.868056   0.864137   0.855972)
  11:       642.33    0.252855  ( -0.478506   0.085559  -0.128712)
  12:       647.84    2.368318  ( -0.974738  -1.132935   0.366964)
  13:       708.12    4.293679  ( -1.941886  -0.685750   0.229137)
  14:       843.96   17.866842  ( -1.268017  -4.020214   0.311213)
  15:       860.89   31.987303  ( -2.315776  -4.782876   1.936126)
  16:       911.86   23.682663  (  4.661593  -0.358946  -1.350323)
  17:       938.81   15.354336  ( -1.610844   0.172158  -3.567896)
  18:       941.50    3.140136  (  1.079454   1.401692   0.100866)
  19:       967.85   25.125694  (  4.276030  -1.683412   2.001845)
  20:      1023.89    5.989658  (  1.499524  -0.950540   1.684506)
  21:      1048.63    7.703511  (  2.026033   0.059841   1.896080)
  22:      1077.77   34.325487  (  3.349910  -2.609686  -4.036475)
  23:      1106.57    4.279131  (  0.143710   2.041714  -0.299806)
  24:      1219.34   12.911398  ( -2.259048   1.463377   2.380468)
  25:      1282.57   41.770712  (  5.899646  -1.370711   2.255225)
  26:      1326.90    6.305875  (  0.940779  -1.310480   1.924435)
  27:      1394.35   20.437655  (  4.151903  -1.454584   1.040934)
  28:      1401.80   34.937203  ( -5.128144   2.061390   2.095236)
  29:      1481.07   14.951092  ( -2.003842   2.807670   1.747197)
  30:      1511.11  156.070660  ( 10.481760   6.077395   3.044443)
  31:      1538.10    6.592478  ( -2.367079   0.030772  -0.994218)
  32:      1647.65   57.113592  ( -0.353660   3.517436  -6.679533)
  33:      1663.18   36.306537  (  4.170161  -3.743479  -2.214195)
  34:      1681.44    5.664453  (  2.128397  -1.063028   0.065982)
  35:      3096.16    0.976116  (  0.890467   0.281201  -0.322660)
  36:      3175.22    1.731960  ( -0.186062  -0.418898   1.233639)
  37:      3264.72    4.548638  ( -1.952225   0.770072   0.380060)
  38:      3292.18   10.042899  (  2.063729  -0.210546   2.395745)
  39:      3406.67   50.185237  (  5.274618   3.232464   3.451785)
  40:      3482.38  113.220265  (  3.358443   2.768995  -9.709469)
  41:      3505.26  107.147807  (  6.609945  -7.943675  -0.595367)

--------------------------
THERMOCHEMISTRY AT 298.15K
--------------------------

Temperature         ... 298.15 K
Pressure            ... 1.00 atm
Total Mass          ... 99.11 AMU

Throughout the following assumptions are being made:
  (1) The electronic state is orbitally nondegenerate
  (2) There are no thermally accessible electronically excited states
  (3) Hindered rotations indicated by low frequency modes) are not
      treated as such but are treated as vibrations and this may
      case some error
  (4) All equations used are the standard statistical mechanics
      equations for an ideal gas
  (5) All vibrations are strinctly harmonic

------------
INNER ENERGY
------------

The inner energy is: U= E(el) + E(ZPE) + E(vib) + E(rot) + E(trans)
    E(el)   - is the total energy from the electronic structure calculation
              = E(kin-el) + E(nuc-el) + E(el-el) + E(nuc-nuc)
    E(ZPE)  - the the zero temperature vibrational energy from the frequency calculation
    E(vib)  - the the finite temperature correction to E(ZPE) due to population
              of excietd vibrational states
    E(rot)  - is the rotational thermal energy
    E(trans)- is the translational thermal energy

Summary of contributions to the inner energy U:
Electronic energy                ...   -340.79936207 Eh
Zero point energy                ...      0.11904663 Eh      74.70 kcal/mol
Thermal vibrational correction   ...      0.00356335 Eh       2.24 kcal/mol
Thermal rotational correction    ...      0.00141627 Eh       0.89 kcal/mol
Thermal translational correction ...      0.00141627 Eh       0.89 kcal/mol
-----------------------------------------------------------------------
Total thermal energy                   -340.67391954 Eh

Summary of corrections to the electronic energy:
(perhaps to be used in another calculation)
Total thermal correction                  0.00639589 Eh       4.01 kcal/mol
Non-thermal (ZPE) correction              0.11904663 Eh      74.70 kcal/mol
-----------------------------------------------------------------------
Total correction                          0.12544252 Eh      78.72 kcal/mol

--------
ENTHALPY
--------

The enthalpy is H = U + kB*T
                kB is Boltzmann's constant
Total free energy                 ...   -340.67391954 Eh
Thermal Enthalpy correction       ...      0.00094421 Eh       0.59 kcal/mol
-----------------------------------------------------------------------
Total Enthalpy                    ...   -340.67297533 Eh

-------
ENTROPY
-------

The entropy contributions are T*S = T*(S(el)+S(vib)+S(rot)+S(trans)
     S(el)   - electronic entropy
     S(vib)  - vibrational entropy
     S(rot)  - rotational entropy
     S(trans)- translational entropy
The entropies will be listed as mutliplied by the temperature to get
units of energy

Electronic entropy                ...      0.00000000 Eh      0.00 kcal/mol
Vibrational entropy               ...      0.00641314 Eh      4.02 kcal/mol
Rotational entropy                ...      0.01180742 Eh      7.41 kcal/mol
Translational entropy             ...      0.01885862 Eh     11.83 kcal/mol
-----------------------------------------------------------------------
Final entropy term                ...      0.03707918 Eh     23.27 kcal/mol

CAUTION: The rotational entropy is not quite correctly treated here
         because it includes a symmetry number that is not yet correctly
         implemented in ORCA!
For a nonlinear molecule the correct rotational entropy is:
    S(rot) = R*(ln(qrot/sn)+1.5)
    R    = 8.31441 J/mol/K = 1.987191683e-3 kcal/mol/K
    qrot = 180606.8987345
    sn is the rotational symmetry number. We have assumed 3 here
       if it is different for your molecule then you should correct
       the printed rotational entropy by manually evaluating the equation
       as given above

For convenience we print out the resulting values for sn=1 - 12:
 sn= 1  qrot/sn=  180606.8987 T*S(rot)=     8.06 kcal/mol T*S(tot)=    23.92 kcal/mol
 sn= 2  qrot/sn=   90303.4494 T*S(rot)=     7.65 kcal/mol T*S(tot)=    23.51 kcal/mol
 sn= 3  qrot/sn=   60202.2996 T*S(rot)=     7.41 kcal/mol T*S(tot)=    23.27 kcal/mol
 sn= 4  qrot/sn=   45151.7247 T*S(rot)=     7.24 kcal/mol T*S(tot)=    23.10 kcal/mol
 sn= 5  qrot/sn=   36121.3797 T*S(rot)=     7.11 kcal/mol T*S(tot)=    22.96 kcal/mol
 sn= 6  qrot/sn=   30101.1498 T*S(rot)=     7.00 kcal/mol T*S(tot)=    22.86 kcal/mol
 sn= 7  qrot/sn=   25800.9855 T*S(rot)=     6.91 kcal/mol T*S(tot)=    22.77 kcal/mol
 sn= 8  qrot/sn=   22575.8623 T*S(rot)=     6.83 kcal/mol T*S(tot)=    22.69 kcal/mol
 sn= 9  qrot/sn=   20067.4332 T*S(rot)=     6.76 kcal/mol T*S(tot)=    22.62 kcal/mol
 sn=10  qrot/sn=   18060.6899 T*S(rot)=     6.70 kcal/mol T*S(tot)=    22.55 kcal/mol
 sn=11  qrot/sn=   16418.8090 T*S(rot)=     6.64 kcal/mol T*S(tot)=    22.50 kcal/mol
 sn=12  qrot/sn=   15050.5749 T*S(rot)=     6.59 kcal/mol T*S(tot)=    22.45 kcal/mol

-------------------
GIBBS FREE ENTHALPY
-------------------

The Gibbs free enthalpy is G = H - T*S

Total enthalpy                    ...   -340.67297533 Eh
Total entropy correction          ...     -0.03707918 Eh    -23.27 kcal/mol
-----------------------------------------------------------------------
Final Gibbs free enthalpy         ...   -340.71005451 Eh

For completeness - the Gibbs free enthalpy minus the electronic energy
G-E(el)                           ...      0.08930755 Eh     56.04 kcal/mol

                             ****ORCA TERMINATED NORMALLY****
TOTAL RUN TIME: 0 days 0 hours 27 minutes 14 seconds 695 msec
