                         Program Version 3.0.3 - RELEASE   -
|  1> ! NORI PBE0 def2-TZVP UseSym TightOPT Freq TightSCF Grid3 FinalGrid5 XYZFile
|  2> % pal
|  3>     nprocs 8
|  4> end
|  5> %method
|  6>     SymThresh 5.0e-2
|  7> end
|  8> % geom
|  9>     MaxIter 10
| 10> end
| 11> % maxcore 2000
| 12> % output
| 13>     printlevel mini
| 14>     print[ P_Basis ] 0
| 15>     print[ P_SCFInfo ] 1
| 16>     print[ P_SCFIterInfo ] 1
| 17>     print[ P_OrbEn ] 0
| 18>     print[ P_Cartesian ] 0
| 19> end
| 20> % elprop
| 21>     Dipole false
| 22> end
| 23> *xyz 1 1
| 24>  N        1.6941745814     0.9435100114    -0.7018385896
| 25>  C        2.6378349673     0.0054697832    -0.0133215431
| 26>  C        3.2062125417    -0.9276044047    -1.0807645905
| 27>  C        3.7223932326    -2.2398869092    -0.5099472857
| 28>  C        2.5395582670    -3.1104942664    -0.8045608112
| 29>  N        1.6703916325    -2.5920540355    -1.5630024551
| 30>  O        2.1020566776    -1.2988905530    -1.9167653518
| 31>  H        1.0393208600     1.3900292040    -0.0595799902
| 32>  H        1.1775106200     0.3609042556    -1.3836128963
| 33>  H        2.1835135623     1.6758812957    -1.2190171812
| 34>  H        3.4018859713     0.5807288531     0.5084362893
| 35>  H        2.0441456869    -0.5552752607     0.7098914912
| 36>  H        3.9342478924    -0.4093816035    -1.7090737360
| 37>  H        3.9630882354    -2.1958280934     0.5545187841
| 38>  H        4.6099993340    -2.6043499307    -1.0329646893
| 39>  H        2.3910259375    -4.1239783459    -0.4537374446
| 40> *
| 41>
| 42>                          ****END OF INPUT****
 Total Charge           Charge          ....    1
 Multiplicity           Mult            ....    1
 Number of Electrons    NEL             ....   54
FINAL SINGLE POINT ENERGY      -342.003587617935

CARTESIAN COORDINATES (ANGSTROEM)
---------------------------------
  N      2.331273    0.000097   -0.065911
  C      1.179137    0.236230   -0.994199
  C      0.026516    0.783064   -0.153833
  C     -1.334852    0.560839   -0.795419
  C     -1.758687   -0.661316   -0.040025
  N     -1.030431   -0.956037    0.951113
  O     -0.000388   -0.000073    1.047141
  H      3.026553   -0.639353   -0.450969
  H      1.914800   -0.405925    0.790132
  H      2.804446    0.867363    0.193897
  H      1.490221    0.910638   -1.791253
  H      0.918606   -0.734981   -1.417285
  H      0.207944    1.820869    0.134782
  H     -1.295061    0.400653   -1.875200
  H     -2.025661    1.387701   -0.610882
  H     -2.626566   -1.273012   -0.252716

FINAL SINGLE POINT ENERGY      -342.003587856798
                    ***********************HURRAY********************
 Multiplicity           Mult            ....    1
 Number of Electrons    NEL             ....   54
 Basis Dimension        Dim             ....  271
FINAL SINGLE POINT ENERGY      -342.003587889457

VIBRATIONAL FREQUENCIES
-----------------------

   0:         0.00 cm**-1
   1:         0.00 cm**-1
   2:         0.00 cm**-1
   3:         0.00 cm**-1
   4:         0.00 cm**-1
   5:         0.00 cm**-1
   6:        92.97 cm**-1
   7:       147.19 cm**-1
   8:       249.76 cm**-1
   9:       281.49 cm**-1
  10:       391.18 cm**-1
  11:       444.90 cm**-1
  12:       527.98 cm**-1
  13:       734.59 cm**-1
  14:       808.67 cm**-1
  15:       860.00 cm**-1
  16:       869.24 cm**-1
  17:       879.47 cm**-1
  18:       903.04 cm**-1
  19:       952.65 cm**-1
  20:       974.75 cm**-1
  21:       986.47 cm**-1
  22:      1018.52 cm**-1
  23:      1062.60 cm**-1
  24:      1104.33 cm**-1
  25:      1126.30 cm**-1
  26:      1228.01 cm**-1
  27:      1250.40 cm**-1
  28:      1308.09 cm**-1
  29:      1323.78 cm**-1
  30:      1346.43 cm**-1
  31:      1359.10 cm**-1
  32:      1413.58 cm**-1
  33:      1471.39 cm**-1
  34:      1477.07 cm**-1
  35:      1490.00 cm**-1
  36:      1644.04 cm**-1
  37:      1672.42 cm**-1
  38:      1718.02 cm**-1
  39:      3079.65 cm**-1
  40:      3098.30 cm**-1
  41:      3106.54 cm**-1
  42:      3124.61 cm**-1
  43:      3172.08 cm**-1
  44:      3238.35 cm**-1
  45:      3279.66 cm**-1
  46:      3470.97 cm**-1
  47:      3527.23 cm**-1

IR SPECTRUM
-----------

 Mode    freq (cm**-1)   T**2         TX         TY         TZ
-------------------------------------------------------------------
   6:        92.97   13.536400  ( -2.528534  -2.669440   0.130414)
   7:       147.19    6.626899  ( -1.932520  -1.667452   0.334469)
   8:       249.76   42.285994  (  5.446555  -1.209579  -3.340353)
   9:       281.49    0.478442  (  0.401603  -0.238383   0.510226)
  10:       391.18   17.908838  ( -4.022642   1.138611   0.656316)
  11:       444.90    6.128677  ( -2.094585   0.546648  -1.201069)
  12:       527.98    3.785072  (  1.036501  -0.400203   1.597052)
  13:       734.59   21.393641  ( -4.371093  -1.502928  -0.168508)
  14:       808.67    3.565054  ( -0.107880   0.551056   1.802707)
  15:       860.00   58.440701  ( -7.590204   0.554825  -0.722274)
  16:       869.24   10.340460  (  2.536021   1.803902  -0.809317)
  17:       879.47   48.436901  (  3.813061   3.000920   4.989183)
  18:       903.04   17.027270  ( -3.356659   1.890834  -1.478126)
  19:       952.65   38.957954  ( -5.113396  -2.456095   2.603601)
  20:       974.75   13.214233  ( -1.700088  -2.598498   1.889905)
  21:       986.47    4.472119  (  1.849477  -0.988637   0.272307)
  22:      1018.52   16.061226  ( -2.558532   0.217390   3.076992)
  23:      1062.60    1.188456  (  0.788811   0.718519   0.223525)
  24:      1104.33   26.328619  (  4.103805  -1.739405  -2.542022)
  25:      1126.30    0.490390  (  0.345652   0.334600   0.508879)
  26:      1228.01    3.525155  ( -1.286438  -0.941975   0.991421)
  27:      1250.40    1.719920  ( -1.211589  -0.329018  -0.379104)
  28:      1308.09   19.558991  (  3.011760   3.195756  -0.524823)
  29:      1323.78    0.931592  ( -0.034314  -0.012045  -0.964505)
  30:      1346.43   10.078990  ( -1.855953  -2.375923   0.994695)
  31:      1359.10    9.252066  (  1.735381   1.678630  -1.850060)
  32:      1413.58    2.787096  ( -0.513172   0.086059   1.586299)
  33:      1471.39    4.714326  (  1.853507   0.967889  -0.584833)
  34:      1477.07  221.828121  ( 11.940294  -2.897924   8.417811)
  35:      1490.00   22.206373  ( -3.915698   2.386638   1.085193)
  36:      1644.04   29.663494  (  3.151727   4.233576  -1.344225)
  37:      1672.42   38.058615  ( -3.257068   3.589244   3.816733)
  38:      1718.02    7.412534  (  1.858180   1.780988  -0.887571)
  39:      3079.65    0.886639  ( -0.317725  -0.506551  -0.727389)
  40:      3098.30    2.906027  (  0.902133   1.397346  -0.373640)
  41:      3106.54    1.634560  (  0.606065   1.077162   0.327060)
  42:      3124.61    0.267024  (  0.118702  -0.045065   0.500902)
  43:      3172.08    0.275129  ( -0.489392  -0.117486   0.147721)
  44:      3238.35    7.068575  ( -2.302583  -1.140815  -0.682076)
  45:      3279.66  137.911264  ( -7.778436  -3.398980   8.115056)
  46:      3470.97  121.061093  (-10.432810  -3.164465   1.484494)
  47:      3527.23  109.237819  (  3.688338  -8.815632  -4.233039)

--------------------------
THERMOCHEMISTRY AT 298.15K
--------------------------

Temperature         ... 298.15 K
Pressure            ... 1.00 atm
Total Mass          ... 101.13 AMU

Throughout the following assumptions are being made:
  (1) The electronic state is orbitally nondegenerate
  (2) There are no thermally accessible electronically excited states
  (3) Hindered rotations indicated by low frequency modes) are not
      treated as such but are treated as vibrations and this may
      case some error
  (4) All equations used are the standard statistical mechanics
      equations for an ideal gas
  (5) All vibrations are strinctly harmonic

------------
INNER ENERGY
------------

The inner energy is: U= E(el) + E(ZPE) + E(vib) + E(rot) + E(trans)
    E(el)   - is the total energy from the electronic structure calculation
              = E(kin-el) + E(nuc-el) + E(el-el) + E(nuc-nuc)
    E(ZPE)  - the the zero temperature vibrational energy from the frequency calculation
    E(vib)  - the the finite temperature correction to E(ZPE) due to population
              of excietd vibrational states
    E(rot)  - is the rotational thermal energy
    E(trans)- is the translational thermal energy

Summary of contributions to the inner energy U:
Electronic energy                ...   -342.00358789 Eh
Zero point energy                ...      0.14173813 Eh      88.94 kcal/mol
Thermal vibrational correction   ...      0.00385985 Eh       2.42 kcal/mol
Thermal rotational correction    ...      0.00141627 Eh       0.89 kcal/mol
Thermal translational correction ...      0.00141627 Eh       0.89 kcal/mol
-----------------------------------------------------------------------
Total thermal energy                   -341.85515737 Eh

Summary of corrections to the electronic energy:
(perhaps to be used in another calculation)
Total thermal correction                  0.00669239 Eh       4.20 kcal/mol
Non-thermal (ZPE) correction              0.14173813 Eh      88.94 kcal/mol
-----------------------------------------------------------------------
Total correction                          0.14843052 Eh      93.14 kcal/mol

--------
ENTHALPY
--------

The enthalpy is H = U + kB*T
                kB is Boltzmann's constant
Total free energy                 ...   -341.85515737 Eh
Thermal Enthalpy correction       ...      0.00094421 Eh       0.59 kcal/mol
-----------------------------------------------------------------------
Total Enthalpy                    ...   -341.85421316 Eh

-------
ENTROPY
-------

The entropy contributions are T*S = T*(S(el)+S(vib)+S(rot)+S(trans)
     S(el)   - electronic entropy
     S(vib)  - vibrational entropy
     S(rot)  - rotational entropy
     S(trans)- translational entropy
The entropies will be listed as mutliplied by the temperature to get
units of energy

Electronic entropy                ...      0.00000000 Eh      0.00 kcal/mol
Vibrational entropy               ...      0.00658978 Eh      4.14 kcal/mol
Rotational entropy                ...      0.01184971 Eh      7.44 kcal/mol
Translational entropy             ...      0.01888714 Eh     11.85 kcal/mol
-----------------------------------------------------------------------
Final entropy term                ...      0.03732663 Eh     23.42 kcal/mol

CAUTION: The rotational entropy is not quite correctly treated here
         because it includes a symmetry number that is not yet correctly
         implemented in ORCA!
For a nonlinear molecule the correct rotational entropy is:
    S(rot) = R*(ln(qrot/sn)+1.5)
    R    = 8.31441 J/mol/K = 1.987191683e-3 kcal/mol/K
    qrot = 188878.9818753
    sn is the rotational symmetry number. We have assumed 3 here
       if it is different for your molecule then you should correct
       the printed rotational entropy by manually evaluating the equation
       as given above

For convenience we print out the resulting values for sn=1 - 12:
 sn= 1  qrot/sn=  188878.9819 T*S(rot)=     8.09 kcal/mol T*S(tot)=    24.07 kcal/mol
 sn= 2  qrot/sn=   94439.4909 T*S(rot)=     7.68 kcal/mol T*S(tot)=    23.66 kcal/mol
 sn= 3  qrot/sn=   62959.6606 T*S(rot)=     7.44 kcal/mol T*S(tot)=    23.42 kcal/mol
 sn= 4  qrot/sn=   47219.7455 T*S(rot)=     7.27 kcal/mol T*S(tot)=    23.25 kcal/mol
 sn= 5  qrot/sn=   37775.7964 T*S(rot)=     7.13 kcal/mol T*S(tot)=    23.12 kcal/mol
 sn= 6  qrot/sn=   31479.8303 T*S(rot)=     7.03 kcal/mol T*S(tot)=    23.01 kcal/mol
 sn= 7  qrot/sn=   26982.7117 T*S(rot)=     6.93 kcal/mol T*S(tot)=    22.92 kcal/mol
 sn= 8  qrot/sn=   23609.8727 T*S(rot)=     6.85 kcal/mol T*S(tot)=    22.84 kcal/mol
 sn= 9  qrot/sn=   20986.5535 T*S(rot)=     6.78 kcal/mol T*S(tot)=    22.77 kcal/mol
 sn=10  qrot/sn=   18887.8982 T*S(rot)=     6.72 kcal/mol T*S(tot)=    22.71 kcal/mol
 sn=11  qrot/sn=   17170.8165 T*S(rot)=     6.67 kcal/mol T*S(tot)=    22.65 kcal/mol
 sn=12  qrot/sn=   15739.9152 T*S(rot)=     6.61 kcal/mol T*S(tot)=    22.60 kcal/mol

-------------------
GIBBS FREE ENTHALPY
-------------------

The Gibbs free enthalpy is G = H - T*S

Total enthalpy                    ...   -341.85421316 Eh
Total entropy correction          ...     -0.03732663 Eh    -23.42 kcal/mol
-----------------------------------------------------------------------
Final Gibbs free enthalpy         ...   -341.89153979 Eh

For completeness - the Gibbs free enthalpy minus the electronic energy
G-E(el)                           ...      0.11204810 Eh     70.31 kcal/mol

                             ****ORCA TERMINATED NORMALLY****
TOTAL RUN TIME: 0 days 0 hours 32 minutes 19 seconds 731 msec
