                         Program Version 3.0.3 - RELEASE   -
|  1> ! NORI PBE0 def2-TZVP UseSym TightOPT Freq TightSCF Grid3 FinalGrid5 XYZFile
|  2> % pal
|  3>     nprocs 8
|  4> end
|  5> %method
|  6>     SymThresh 5.0e-2
|  7> end
|  8> % geom
|  9>     MaxIter 10
| 10> end
| 11> % maxcore 2000
| 12> % output
| 13>     printlevel mini
| 14>     print[ P_Basis ] 0
| 15>     print[ P_SCFInfo ] 1
| 16>     print[ P_SCFIterInfo ] 1
| 17>     print[ P_OrbEn ] 0
| 18>     print[ P_Cartesian ] 0
| 19> end
| 20> % elprop
| 21>     Dipole false
| 22> end
| 23> *xyz 1 1
| 24>  N        3.4550464256     0.2615431357    -0.9312161993
| 25>  C        2.3317254568     0.2161254161     0.0991889332
| 26>  C        2.7603548905    -0.5512180700     1.2836504840
| 27>  C        3.1703734146    -0.0304143758     2.4738469986
| 28>  O        3.4950255782    -1.0125106026     3.3172042366
| 29>  C        3.2994410364    -2.1882052067     2.6801527277
| 30>  C        2.8459848770    -1.9751279146     1.4249617581
| 31>  H        3.1878337483     0.7712515447    -1.7765217376
| 32>  H        3.7276761471    -0.6860607375    -1.1995516983
| 33>  H        4.2817416911     0.7076776145    -0.5281586980
| 34>  H        1.4792314370    -0.2305339333    -0.4139570478
| 35>  H        2.0970253763     1.2534317332     0.3361384755
| 36>  H        3.2509552511     0.9778372740     2.8504004265
| 37>  H        3.5129871790    -3.0781337711     3.2487298028
| 38>  H        2.5770974909    -2.7368721065     0.7086015379
| 39> *
| 40>
| 41>                          ****END OF INPUT****
 Total Charge           Charge          ....    1
 Multiplicity           Mult            ....    1
 Number of Electrons    NEL             ....   52
FINAL SINGLE POINT ENERGY      -324.799767147920

CARTESIAN COORDINATES (ANGSTROEM)
---------------------------------
  N      1.079951    0.000272   -2.332212
  C      0.047710    0.824563   -1.570081
  C     -0.150296    0.267174   -0.218846
  C      0.376049    0.757400    0.938156
  O     -0.000307    0.000139    1.970695
  C     -0.778262   -0.996317    1.492948
  C     -0.911370   -0.889482    0.152246
  H      1.230970    0.347177   -3.282349
  H      0.781398   -0.975528   -2.389504
  H      1.972873    0.011146   -1.834654
  H     -0.856915    0.799926   -2.179222
  H      0.431256    1.844321   -1.549192
  H      0.987198    1.617368    1.165538
  H     -1.167569   -1.686888    2.222592
  H     -1.503386   -1.533261   -0.480766

FINAL SINGLE POINT ENERGY      -324.799767358922
                    ***********************HURRAY********************
 Multiplicity           Mult            ....    1
 Number of Electrons    NEL             ....   52
 Basis Dimension        Dim             ....  265
FINAL SINGLE POINT ENERGY      -324.799767431343

VIBRATIONAL FREQUENCIES
-----------------------

   0:         0.00 cm**-1
   1:         0.00 cm**-1
   2:         0.00 cm**-1
   3:         0.00 cm**-1
   4:         0.00 cm**-1
   5:         0.00 cm**-1
   6:        86.74 cm**-1
   7:       148.69 cm**-1
   8:       193.41 cm**-1
   9:       327.33 cm**-1
  10:       402.77 cm**-1
  11:       631.55 cm**-1
  12:       635.37 cm**-1
  13:       686.20 cm**-1
  14:       770.35 cm**-1
  15:       837.11 cm**-1
  16:       845.50 cm**-1
  17:       862.30 cm**-1
  18:       888.78 cm**-1
  19:       895.99 cm**-1
  20:       993.04 cm**-1
  21:      1055.45 cm**-1
  22:      1072.30 cm**-1
  23:      1094.81 cm**-1
  24:      1132.48 cm**-1
  25:      1238.02 cm**-1
  26:      1275.94 cm**-1
  27:      1312.79 cm**-1
  28:      1333.45 cm**-1
  29:      1407.29 cm**-1
  30:      1442.23 cm**-1
  31:      1488.16 cm**-1
  32:      1495.57 cm**-1
  33:      1559.72 cm**-1
  34:      1634.66 cm**-1
  35:      1648.54 cm**-1
  36:      1662.16 cm**-1
  37:      3102.58 cm**-1
  38:      3163.54 cm**-1
  39:      3260.47 cm**-1
  40:      3277.67 cm**-1
  41:      3303.43 cm**-1
  42:      3415.08 cm**-1
  43:      3506.39 cm**-1
  44:      3507.95 cm**-1

IR SPECTRUM
-----------

 Mode    freq (cm**-1)   T**2         TX         TY         TZ
-------------------------------------------------------------------
   6:        86.74    5.020846  ( -1.515980  -1.267548  -1.056395)
   7:       148.69   13.309768  (  0.249435  -2.130759   2.950833)
   8:       193.41    0.175931  (  0.356429  -0.094495   0.199899)
   9:       327.33    1.220660  ( -0.935894  -0.099284  -0.578710)
  10:       402.77   16.369811  ( -2.409048   0.709532   3.172201)
  11:       631.55    1.630914  (  0.840945  -0.114421  -0.954272)
  12:       635.37   21.973993  ( -3.794080   2.637836   0.787889)
  13:       686.20    9.801615  ( -2.627808   1.615994   0.533673)
  14:       770.35   26.197500  (  3.948009  -3.175978  -0.723801)
  15:       837.11   33.406040  (  3.928035  -3.781965  -1.916593)
  16:       845.50   30.071594  ( -5.022964   0.241301   2.187054)
  17:       862.30   36.476166  (  0.535536   0.706348  -5.974148)
  18:       888.78    1.290010  ( -1.078187   0.355788   0.030633)
  19:       895.99   22.789552  (  1.204292   1.067380   4.494434)
  20:       993.04    6.500978  (  0.825098  -0.421606   2.375382)
  21:      1055.45    7.812556  ( -0.488963  -2.620443   0.840684)
  22:      1072.30   10.134295  (  0.345308  -0.405956  -3.138512)
  23:      1094.81   30.379217  (  1.353427  -2.140730   4.895378)
  24:      1132.48   15.300443  (  1.829099   2.054984   2.780626)
  25:      1238.02   37.145527  (  2.408293   3.210445  -4.586796)
  26:      1275.94    0.107567  ( -0.144528  -0.233649   0.179129)
  27:      1312.79    0.186069  ( -0.187961  -0.329102   0.205989)
  28:      1333.45    6.242978  ( -1.345506  -1.093991  -1.798826)
  29:      1407.29   30.629890  ( -1.183207  -0.642871   5.368112)
  30:      1442.23    1.515840  ( -0.436548  -1.079577  -0.399723)
  31:      1488.16   18.435661  ( -0.554107  -1.804551   3.856452)
  32:      1495.57  156.710705  ( -8.353895   6.083362   7.065115)
  33:      1559.72   34.722859  (  0.090057  -1.129224   5.782698)
  34:      1634.66   17.092767  (  1.175418   0.906803  -3.858610)
  35:      1648.54   56.003943  (  5.115336   4.386834   3.254684)
  36:      1662.16   27.394683  ( -0.239329   3.316378  -4.042158)
  37:      3102.58    3.730047  ( -0.216519  -0.649553   1.805892)
  38:      3163.54    0.046099  (  0.133060   0.069048  -0.153708)
  39:      3260.47    2.142322  (  0.450264   0.164234   1.382972)
  40:      3277.67    7.192157  ( -1.535818  -2.053378  -0.785532)
  41:      3303.43    7.654637  (  0.982036   1.636549  -2.002985)
  42:      3415.08   36.489503  (  3.986326  -2.338589  -3.889693)
  43:      3506.39   85.516795  (  6.247689   0.875268   6.761441)
  44:      3507.95   85.635143  ( -2.900130  -8.074406   3.468191)

--------------------------
THERMOCHEMISTRY AT 298.15K
--------------------------

Temperature         ... 298.15 K
Pressure            ... 1.00 atm
Total Mass          ... 98.12 AMU

Throughout the following assumptions are being made:
  (1) The electronic state is orbitally nondegenerate
  (2) There are no thermally accessible electronically excited states
  (3) Hindered rotations indicated by low frequency modes) are not
      treated as such but are treated as vibrations and this may
      case some error
  (4) All equations used are the standard statistical mechanics
      equations for an ideal gas
  (5) All vibrations are strinctly harmonic

------------
INNER ENERGY
------------

The inner energy is: U= E(el) + E(ZPE) + E(vib) + E(rot) + E(trans)
    E(el)   - is the total energy from the electronic structure calculation
              = E(kin-el) + E(nuc-el) + E(el-el) + E(nuc-nuc)
    E(ZPE)  - the the zero temperature vibrational energy from the frequency calculation
    E(vib)  - the the finite temperature correction to E(ZPE) due to population
              of excietd vibrational states
    E(rot)  - is the rotational thermal energy
    E(trans)- is the translational thermal energy

Summary of contributions to the inner energy U:
Electronic energy                ...   -324.79976743 Eh
Zero point energy                ...      0.13121299 Eh      82.34 kcal/mol
Thermal vibrational correction   ...      0.00369484 Eh       2.32 kcal/mol
Thermal rotational correction    ...      0.00141627 Eh       0.89 kcal/mol
Thermal translational correction ...      0.00141627 Eh       0.89 kcal/mol
-----------------------------------------------------------------------
Total thermal energy                   -324.66202705 Eh

Summary of corrections to the electronic energy:
(perhaps to be used in another calculation)
Total thermal correction                  0.00652739 Eh       4.10 kcal/mol
Non-thermal (ZPE) correction              0.13121299 Eh      82.34 kcal/mol
-----------------------------------------------------------------------
Total correction                          0.13774038 Eh      86.43 kcal/mol

--------
ENTHALPY
--------

The enthalpy is H = U + kB*T
                kB is Boltzmann's constant
Total free energy                 ...   -324.66202705 Eh
Thermal Enthalpy correction       ...      0.00094421 Eh       0.59 kcal/mol
-----------------------------------------------------------------------
Total Enthalpy                    ...   -324.66108284 Eh

-------
ENTROPY
-------

The entropy contributions are T*S = T*(S(el)+S(vib)+S(rot)+S(trans)
     S(el)   - electronic entropy
     S(vib)  - vibrational entropy
     S(rot)  - rotational entropy
     S(trans)- translational entropy
The entropies will be listed as mutliplied by the temperature to get
units of energy

Electronic entropy                ...      0.00000000 Eh      0.00 kcal/mol
Vibrational entropy               ...      0.00643820 Eh      4.04 kcal/mol
Rotational entropy                ...      0.01189671 Eh      7.47 kcal/mol
Translational entropy             ...      0.01884443 Eh     11.83 kcal/mol
-----------------------------------------------------------------------
Final entropy term                ...      0.03717935 Eh     23.33 kcal/mol

CAUTION: The rotational entropy is not quite correctly treated here
         because it includes a symmetry number that is not yet correctly
         implemented in ORCA!
For a nonlinear molecule the correct rotational entropy is:
    S(rot) = R*(ln(qrot/sn)+1.5)
    R    = 8.31441 J/mol/K = 1.987191683e-3 kcal/mol/K
    qrot = 198519.3705856
    sn is the rotational symmetry number. We have assumed 3 here
       if it is different for your molecule then you should correct
       the printed rotational entropy by manually evaluating the equation
       as given above

For convenience we print out the resulting values for sn=1 - 12:
 sn= 1  qrot/sn=  198519.3706 T*S(rot)=     8.12 kcal/mol T*S(tot)=    23.98 kcal/mol
 sn= 2  qrot/sn=   99259.6853 T*S(rot)=     7.71 kcal/mol T*S(tot)=    23.57 kcal/mol
 sn= 3  qrot/sn=   66173.1235 T*S(rot)=     7.47 kcal/mol T*S(tot)=    23.33 kcal/mol
 sn= 4  qrot/sn=   49629.8426 T*S(rot)=     7.29 kcal/mol T*S(tot)=    23.16 kcal/mol
 sn= 5  qrot/sn=   39703.8741 T*S(rot)=     7.16 kcal/mol T*S(tot)=    23.03 kcal/mol
 sn= 6  qrot/sn=   33086.5618 T*S(rot)=     7.05 kcal/mol T*S(tot)=    22.92 kcal/mol
 sn= 7  qrot/sn=   28359.9101 T*S(rot)=     6.96 kcal/mol T*S(tot)=    22.83 kcal/mol
 sn= 8  qrot/sn=   24814.9213 T*S(rot)=     6.88 kcal/mol T*S(tot)=    22.75 kcal/mol
 sn= 9  qrot/sn=   22057.7078 T*S(rot)=     6.81 kcal/mol T*S(tot)=    22.68 kcal/mol
 sn=10  qrot/sn=   19851.9371 T*S(rot)=     6.75 kcal/mol T*S(tot)=    22.62 kcal/mol
 sn=11  qrot/sn=   18047.2155 T*S(rot)=     6.70 kcal/mol T*S(tot)=    22.56 kcal/mol
 sn=12  qrot/sn=   16543.2809 T*S(rot)=     6.64 kcal/mol T*S(tot)=    22.51 kcal/mol

-------------------
GIBBS FREE ENTHALPY
-------------------

The Gibbs free enthalpy is G = H - T*S

Total enthalpy                    ...   -324.66108284 Eh
Total entropy correction          ...     -0.03717935 Eh    -23.33 kcal/mol
-----------------------------------------------------------------------
Final Gibbs free enthalpy         ...   -324.69826219 Eh

For completeness - the Gibbs free enthalpy minus the electronic energy
G-E(el)                           ...      0.10150524 Eh     63.70 kcal/mol

                             ****ORCA TERMINATED NORMALLY****
TOTAL RUN TIME: 0 days 0 hours 29 minutes 55 seconds 745 msec
