                         Program Version 3.0.3 - RELEASE   -
|  1> ! NORI PBE0 def2-TZVP UseSym TightOPT Freq TightSCF Grid3 FinalGrid5 XYZFile
|  2> % pal
|  3>     nprocs 8
|  4> end
|  5> %method
|  6>     SymThresh 5.0e-2
|  7> end
|  8> % geom
|  9>     MaxIter 10
| 10> end
| 11> % maxcore 2000
| 12> % output
| 13>     printlevel mini
| 14>     print[ P_Basis ] 0
| 15>     print[ P_SCFInfo ] 1
| 16>     print[ P_SCFIterInfo ] 1
| 17>     print[ P_OrbEn ] 0
| 18>     print[ P_Cartesian ] 0
| 19> end
| 20> % elprop
| 21>     Dipole false
| 22> end
| 23> *xyz 1 1
| 24>  N        2.6249518422    -1.4026449121     0.2768177610
| 25>  C        2.4288577487     0.0815343097     0.0652413475
| 26>  C        2.9329200835     0.8634367982     1.2510670247
| 27>  C        2.6804820567     2.3652177092     1.1168230622
| 28>  C        2.7561448492     2.8125484112     2.5676933689
| 29>  O        2.2764089311     1.7171482704     3.3419054521
| 30>  C        2.2079318745     0.5550730114     2.5659429598
| 31>  H        2.2980082056    -1.9475135605    -0.5237913464
| 32>  H        2.1126233648    -1.7217520423     1.1023726810
| 33>  H        3.6123764269    -1.6230985571     0.4244960950
| 34>  H        1.3578392528     0.2266653802    -0.0876299939
| 35>  H        2.9550146663     0.3309826834    -0.8569760218
| 36>  H        4.0106330186     0.6960272577     1.3717328904
| 37>  H        1.6790527982     2.5447795276     0.7130700544
| 38>  H        3.4044189564     2.8703131579     0.4768633625
| 39>  H        2.1358821251     3.6851498086     2.7748418322
| 40>  H        3.7864859928     3.0394761270     2.8625083948
| 41>  H        2.6619906380    -0.2713847158     3.1269843486
| 42>  H        1.1520971686     0.2958113353     2.3679967271
| 43> *
| 44>
| 45>                          ****END OF INPUT****
 Total Charge           Charge          ....    1
 Multiplicity           Mult            ....    1
 Number of Electrons    NEL             ....   56
FINAL SINGLE POINT ENERGY      -327.213712049817
FINAL SINGLE POINT ENERGY      -327.213713333957

CARTESIAN COORDINATES (ANGSTROEM)
---------------------------------
  N      1.632616   -0.003047   -2.134096
  C      0.223169   -0.341144   -1.703597
  C     -0.109387    0.317098   -0.389355
  C     -1.496129   -0.070086    0.125130
  C     -1.364729    0.241278    1.607494
  O     -0.000107    0.002175    1.939347
  C      0.776338   -0.122174    0.782243
  H      1.868508   -0.429593   -3.032408
  H      2.311165   -0.332127   -1.443700
  H      1.753404    1.008197   -2.225440
  H      0.180889   -1.429633   -1.631408
  H     -0.430112   -0.014728   -2.513645
  H     -0.064615    1.407830   -0.501750
  H     -1.668265   -1.140142   -0.026997
  H     -2.305345    0.480090   -0.355917
  H     -1.993420   -0.394801    2.231868
  H     -1.610303    1.287817    1.818529
  H      1.679528    0.490337    0.895778
  H      1.090061   -1.173536    0.649989

FINAL SINGLE POINT ENERGY      -327.213714049115
                    ***********************HURRAY********************
 Multiplicity           Mult            ....    1
 Number of Electrons    NEL             ....   56
 Basis Dimension        Dim             ....  289
FINAL SINGLE POINT ENERGY      -327.213714148549

VIBRATIONAL FREQUENCIES
-----------------------

   0:         0.00 cm**-1
   1:         0.00 cm**-1
   2:         0.00 cm**-1
   3:         0.00 cm**-1
   4:         0.00 cm**-1
   5:         0.00 cm**-1
   6:       -53.43 cm**-1 ***imaginary mode***
   7:        98.71 cm**-1
   8:       148.19 cm**-1
   9:       196.88 cm**-1
  10:       237.53 cm**-1
  11:       394.97 cm**-1
  12:       416.99 cm**-1
  13:       567.79 cm**-1
  14:       675.68 cm**-1
  15:       821.90 cm**-1
  16:       858.09 cm**-1
  17:       889.59 cm**-1
  18:       922.07 cm**-1
  19:       941.67 cm**-1
  20:       968.25 cm**-1
  21:       994.20 cm**-1
  22:      1008.81 cm**-1
  23:      1031.25 cm**-1
  24:      1107.95 cm**-1
  25:      1161.18 cm**-1
  26:      1169.25 cm**-1
  27:      1185.25 cm**-1
  28:      1211.18 cm**-1
  29:      1248.86 cm**-1
  30:      1275.79 cm**-1
  31:      1304.16 cm**-1
  32:      1324.53 cm**-1
  33:      1351.09 cm**-1
  34:      1363.55 cm**-1
  35:      1388.57 cm**-1
  36:      1409.42 cm**-1
  37:      1427.22 cm**-1
  38:      1483.64 cm**-1
  39:      1492.01 cm**-1
  40:      1504.69 cm**-1
  41:      1519.54 cm**-1
  42:      1530.12 cm**-1
  43:      1658.41 cm**-1
  44:      1661.61 cm**-1
  45:      2941.54 cm**-1
  46:      3031.38 cm**-1
  47:      3045.96 cm**-1
  48:      3048.79 cm**-1
  49:      3066.86 cm**-1
  50:      3094.86 cm**-1
  51:      3125.41 cm**-1
  52:      3140.53 cm**-1
  53:      3155.60 cm**-1
  54:      3421.06 cm**-1
  55:      3502.42 cm**-1
  56:      3508.03 cm**-1

IR SPECTRUM
-----------

 Mode    freq (cm**-1)   T**2         TX         TY         TZ
-------------------------------------------------------------------
   7:        98.71   10.838407  (  0.141804   1.946935  -2.650989)
   8:       148.19    6.217809  ( -0.115639   1.124608   2.222542)
   9:       196.88    7.278829  (  0.763302  -0.816673  -2.455452)
  10:       237.53    1.836794  ( -0.405938   0.543391   1.173343)
  11:       394.97   11.524987  ( -2.242642   0.426235   2.512741)
  12:       416.99    0.997491  ( -0.506581  -0.253561   0.822541)
  13:       567.79    0.326590  (  0.460396  -0.193116   0.278087)
  14:       675.68    3.195309  (  0.400807  -0.095341   1.739417)
  15:       821.90   16.404562  (  0.740625  -1.705111   3.598421)
  16:       858.09    4.566275  ( -0.290393  -1.564790  -1.425966)
  17:       889.59   13.158188  ( -2.824795   1.215243   1.924033)
  18:       922.07    6.185482  ( -2.014402   0.175378   1.448071)
  19:       941.67   13.447592  (  3.227516  -1.445155   0.970699)
  20:       968.25    3.069492  (  0.617030  -0.427762   1.582967)
  21:       994.20   25.157641  ( -0.905567   0.287550  -4.924927)
  22:      1008.81   12.314815  (  1.324901   2.161583   2.426316)
  23:      1031.25    1.785340  (  0.985608  -0.828431   0.357236)
  24:      1107.95    1.519242  ( -1.072092   0.287786   0.535761)
  25:      1161.18   25.690311  ( -2.222181   0.869406   4.471728)
  26:      1169.25   94.979607  ( -9.156057   1.627196   2.915214)
  27:      1185.25    3.107333  ( -1.727189   0.317817  -0.152132)
  28:      1211.18   18.893964  ( -2.278576   2.005142   3.111504)
  29:      1248.86    3.902394  (  1.538829  -0.350838  -1.187987)
  30:      1275.79    7.318162  (  0.859988  -2.522819  -0.462567)
  31:      1304.16    1.198171  ( -0.594069  -0.806219  -0.441887)
  32:      1324.53    3.416306  (  1.023083  -0.660744   1.390333)
  33:      1351.09    1.024830  (  0.674998   0.049550   0.752829)
  34:      1363.55    2.596619  (  0.213294  -0.486262   1.521405)
  35:      1388.57    5.168007  ( -0.475279  -0.763832   2.087745)
  36:      1409.42    2.907366  (  1.389721   0.271358  -0.949951)
  37:      1427.22   12.003421  (  2.698733   0.088396  -2.170817)
  38:      1483.64    2.234956  ( -0.627320  -0.723271  -1.148175)
  39:      1492.01   21.207698  (  0.474819   2.483442   3.848995)
  40:      1504.69  154.139039  (-11.336486  -2.422493   4.444620)
  41:      1519.54    2.885505  (  0.645173   1.495769   0.481593)
  42:      1530.12    2.062902  (  1.186731   0.394427  -0.706398)
  43:      1658.41   51.009927  ( -2.695200   5.410930  -3.803638)
  44:      1661.61   34.056676  ( -0.486651   3.539345   4.614421)
  45:      2941.54   71.859444  ( -5.331039   5.498322   3.634270)
  46:      3031.38   13.366201  ( -3.645113   0.209346  -0.188492)
  47:      3045.96   30.722699  (  4.691067   2.139981  -2.033978)
  48:      3048.79   21.702944  ( -2.078879   3.943678   1.352262)
  49:      3066.86   17.566913  ( -0.639735  -3.757996  -1.742159)
  50:      3094.86    3.197231  ( -0.192534  -1.226428  -1.286871)
  51:      3125.41    9.471636  ( -2.336645  -1.721136   1.024409)
  52:      3140.53    7.362739  (  1.023505  -2.422794   0.667267)
  53:      3155.60    1.075070  (  0.086240  -0.787523   0.668909)
  54:      3421.06   42.827137  ( -5.808267  -1.199723   2.766195)
  55:      3502.42   90.759520  ( -2.851543   7.537458  -5.080841)
  56:      3508.03  104.274815  (  0.579573   5.486559   8.592821)

--------------------------
THERMOCHEMISTRY AT 298.15K
--------------------------

Temperature         ... 298.15 K
Pressure            ... 1.00 atm
Total Mass          ... 102.16 AMU

Throughout the following assumptions are being made:
  (1) The electronic state is orbitally nondegenerate
  (2) There are no thermally accessible electronically excited states
  (3) Hindered rotations indicated by low frequency modes) are not
      treated as such but are treated as vibrations and this may
      case some error
  (4) All equations used are the standard statistical mechanics
      equations for an ideal gas
  (5) All vibrations are strinctly harmonic

------------
INNER ENERGY
------------

The inner energy is: U= E(el) + E(ZPE) + E(vib) + E(rot) + E(trans)
    E(el)   - is the total energy from the electronic structure calculation
              = E(kin-el) + E(nuc-el) + E(el-el) + E(nuc-nuc)
    E(ZPE)  - the the zero temperature vibrational energy from the frequency calculation
    E(vib)  - the the finite temperature correction to E(ZPE) due to population
              of excietd vibrational states
    E(rot)  - is the rotational thermal energy
    E(trans)- is the translational thermal energy

Summary of contributions to the inner energy U:
Electronic energy                ...   -327.21371415 Eh
Zero point energy                ...      0.17777229 Eh     111.55 kcal/mol
Thermal vibrational correction   ...      0.00400967 Eh       2.52 kcal/mol
Thermal rotational correction    ...      0.00141627 Eh       0.89 kcal/mol
Thermal translational correction ...      0.00141627 Eh       0.89 kcal/mol
-----------------------------------------------------------------------
Total thermal energy                   -327.02909965 Eh

Summary of corrections to the electronic energy:
(perhaps to be used in another calculation)
Total thermal correction                  0.00684221 Eh       4.29 kcal/mol
Non-thermal (ZPE) correction              0.17777229 Eh     111.55 kcal/mol
-----------------------------------------------------------------------
Total correction                          0.18461450 Eh     115.85 kcal/mol

--------
ENTHALPY
--------

The enthalpy is H = U + kB*T
                kB is Boltzmann's constant
Total free energy                 ...   -327.02909965 Eh
Thermal Enthalpy correction       ...      0.00094421 Eh       0.59 kcal/mol
-----------------------------------------------------------------------
Total Enthalpy                    ...   -327.02815544 Eh

-------
ENTROPY
-------

The entropy contributions are T*S = T*(S(el)+S(vib)+S(rot)+S(trans)
     S(el)   - electronic entropy
     S(vib)  - vibrational entropy
     S(rot)  - rotational entropy
     S(trans)- translational entropy
The entropies will be listed as mutliplied by the temperature to get
units of energy

Electronic entropy                ...      0.00000000 Eh      0.00 kcal/mol
Vibrational entropy               ...      0.00690266 Eh      4.33 kcal/mol
Rotational entropy                ...      0.01205682 Eh      7.57 kcal/mol
Translational entropy             ...      0.01890147 Eh     11.86 kcal/mol
-----------------------------------------------------------------------
Final entropy term                ...      0.03786095 Eh     23.76 kcal/mol

CAUTION: The rotational entropy is not quite correctly treated here
         because it includes a symmetry number that is not yet correctly
         implemented in ORCA!
For a nonlinear molecule the correct rotational entropy is:
    S(rot) = R*(ln(qrot/sn)+1.5)
    R    = 8.31441 J/mol/K = 1.987191683e-3 kcal/mol/K
    qrot = 235207.8168451
    sn is the rotational symmetry number. We have assumed 3 here
       if it is different for your molecule then you should correct
       the printed rotational entropy by manually evaluating the equation
       as given above

For convenience we print out the resulting values for sn=1 - 12:
 sn= 1  qrot/sn=  235207.8168 T*S(rot)=     8.22 kcal/mol T*S(tot)=    24.41 kcal/mol
 sn= 2  qrot/sn=  117603.9084 T*S(rot)=     7.81 kcal/mol T*S(tot)=    24.00 kcal/mol
 sn= 3  qrot/sn=   78402.6056 T*S(rot)=     7.57 kcal/mol T*S(tot)=    23.76 kcal/mol
 sn= 4  qrot/sn=   58801.9542 T*S(rot)=     7.40 kcal/mol T*S(tot)=    23.59 kcal/mol
 sn= 5  qrot/sn=   47041.5634 T*S(rot)=     7.26 kcal/mol T*S(tot)=    23.46 kcal/mol
 sn= 6  qrot/sn=   39201.3028 T*S(rot)=     7.16 kcal/mol T*S(tot)=    23.35 kcal/mol
 sn= 7  qrot/sn=   33601.1167 T*S(rot)=     7.06 kcal/mol T*S(tot)=    23.26 kcal/mol
 sn= 8  qrot/sn=   29400.9771 T*S(rot)=     6.98 kcal/mol T*S(tot)=    23.18 kcal/mol
 sn= 9  qrot/sn=   26134.2019 T*S(rot)=     6.91 kcal/mol T*S(tot)=    23.11 kcal/mol
 sn=10  qrot/sn=   23520.7817 T*S(rot)=     6.85 kcal/mol T*S(tot)=    23.04 kcal/mol
 sn=11  qrot/sn=   21382.5288 T*S(rot)=     6.80 kcal/mol T*S(tot)=    22.99 kcal/mol
 sn=12  qrot/sn=   19600.6514 T*S(rot)=     6.74 kcal/mol T*S(tot)=    22.94 kcal/mol

-------------------
GIBBS FREE ENTHALPY
-------------------

The Gibbs free enthalpy is G = H - T*S

Total enthalpy                    ...   -327.02815544 Eh
Total entropy correction          ...     -0.03786095 Eh    -23.76 kcal/mol
-----------------------------------------------------------------------
Final Gibbs free enthalpy         ...   -327.06601639 Eh

For completeness - the Gibbs free enthalpy minus the electronic energy
G-E(el)                           ...      0.14769776 Eh     92.68 kcal/mol

                             ****ORCA TERMINATED NORMALLY****
TOTAL RUN TIME: 0 days 0 hours 46 minutes 21 seconds 946 msec
