                         Program Version 3.0.3 - RELEASE   -
|  1> ! NORI PBE0 def2-TZVP UseSym TightOPT Freq TightSCF Grid3 FinalGrid5 XYZFile
|  2> % pal
|  3>     nprocs 8
|  4> end
|  5> %method
|  6>     SymThresh 5.0e-2
|  7> end
|  8> % geom
|  9>     MaxIter 10
| 10> end
| 11> % maxcore 2000
| 12> % output
| 13>     printlevel mini
| 14>     print[ P_Basis ] 0
| 15>     print[ P_SCFInfo ] 1
| 16>     print[ P_SCFIterInfo ] 1
| 17>     print[ P_OrbEn ] 0
| 18>     print[ P_Cartesian ] 0
| 19> end
| 20> % elprop
| 21>     Dipole false
| 22> end
| 23> *xyz 1 1
| 24>  N        1.3808052077     0.9770707820     0.6524571607
| 25>  C        2.3584714763     0.0233102209    -0.0203772443
| 26>  C        2.7483801092    -1.0530342500     0.9155610307
| 27>  C        2.4290463423    -2.3398361989     0.8214398845
| 28>  C        3.0768900056    -3.0927467309     1.9298989762
| 29>  O        3.6473673113    -2.0954260371     2.7607437950
| 30>  C        3.6634920625    -0.8584180556     2.0972711431
| 31>  H        1.0963575891     1.7371697032     0.0307725340
| 32>  H        1.7961773190     1.3913365035     1.4891499942
| 33>  H        0.5436784022     0.4702851115     0.9488279217
| 34>  H        3.2025556011     0.6417815051    -0.3347474270
| 35>  H        1.8507616383    -0.3593209454    -0.9048878846
| 36>  H        1.8322087643    -2.8056680626     0.0461933795
| 37>  H        3.8470344641    -3.7767402400     1.5440228286
| 38>  H        2.3691941103    -3.6889172630     2.5154850052
| 39>  H        3.3378463603    -0.0791979003     2.8028434910
| 40>  H        4.6795332364    -0.5877781424     1.7663954114
| 41> *
| 42>
| 43>                          ****END OF INPUT****
 Total Charge           Charge          ....    1
 Multiplicity           Mult            ....    1
 Number of Electrons    NEL             ....   54
FINAL SINGLE POINT ENERGY      -325.987272920467

CARTESIAN COORDINATES (ANGSTROEM)
---------------------------------
  N      1.459350    0.000427   -2.160269
  C      0.099975   -0.538250   -1.735228
  C     -0.190518   -0.148374   -0.338718
  C     -1.121783    0.708462    0.067932
  C     -1.126560    0.765037    1.555269
  O     -0.000506   -0.000606    1.950741
  C      0.485639   -0.748938    0.867055
  H      1.691429   -0.258302   -3.121767
  H      2.197480   -0.355783   -1.549698
  H      1.471057    1.020213   -2.087042
  H      0.157299   -1.620826   -1.872673
  H     -0.623493   -0.129295   -2.439648
  H     -1.814875    1.258989   -0.557083
  H     -2.057068    0.343003    1.962308
  H     -1.026566    1.782703    1.946757
  H      1.583432   -0.676722    0.857335
  H      0.234724   -1.817766    0.965862

FINAL SINGLE POINT ENERGY      -325.987273352845
                    ***********************HURRAY********************
 Multiplicity           Mult            ....    1
 Number of Electrons    NEL             ....   54
 Basis Dimension        Dim             ....  277
FINAL SINGLE POINT ENERGY      -325.987273541565

VIBRATIONAL FREQUENCIES
-----------------------

   0:         0.00 cm**-1
   1:         0.00 cm**-1
   2:         0.00 cm**-1
   3:         0.00 cm**-1
   4:         0.00 cm**-1
   5:         0.00 cm**-1
   6:        79.93 cm**-1
   7:       115.82 cm**-1
   8:       159.91 cm**-1
   9:       188.29 cm**-1
  10:       310.88 cm**-1
  11:       351.54 cm**-1
  12:       498.63 cm**-1
  13:       613.38 cm**-1
  14:       773.31 cm**-1
  15:       828.78 cm**-1
  16:       846.77 cm**-1
  17:       876.90 cm**-1
  18:       915.07 cm**-1
  19:       944.02 cm**-1
  20:       989.99 cm**-1
  21:      1024.99 cm**-1
  22:      1040.05 cm**-1
  23:      1059.09 cm**-1
  24:      1098.91 cm**-1
  25:      1160.09 cm**-1
  26:      1198.08 cm**-1
  27:      1230.58 cm**-1
  28:      1232.72 cm**-1
  29:      1301.03 cm**-1
  30:      1340.38 cm**-1
  31:      1378.94 cm**-1
  32:      1399.30 cm**-1
  33:      1405.99 cm**-1
  34:      1485.09 cm**-1
  35:      1495.53 cm**-1
  36:      1496.60 cm**-1
  37:      1512.46 cm**-1
  38:      1649.97 cm**-1
  39:      1662.66 cm**-1
  40:      1727.41 cm**-1
  41:      2976.90 cm**-1
  42:      3002.09 cm**-1
  43:      3011.65 cm**-1
  44:      3075.57 cm**-1
  45:      3088.21 cm**-1
  46:      3158.96 cm**-1
  47:      3223.94 cm**-1
  48:      3418.11 cm**-1
  49:      3505.24 cm**-1
  50:      3508.56 cm**-1

IR SPECTRUM
-----------

 Mode    freq (cm**-1)   T**2         TX         TY         TZ
-------------------------------------------------------------------
   6:        79.93    7.724857  ( -0.488858   2.624631  -0.772779)
   7:       115.82   11.056547  ( -1.153102  -1.018172   2.947919)
   8:       159.91   12.024706  (  0.813220   2.376070   2.391165)
   9:       188.29    0.714030  ( -0.551606  -0.328593   0.549352)
  10:       310.88    3.573924  (  1.040716   0.512491  -1.492712)
  11:       351.54    4.894265  (  1.270977   0.077790  -1.809097)
  12:       498.63   14.597904  ( -2.804842  -1.502357   2.115109)
  13:       613.38    1.066421  ( -0.456720  -0.926180   0.004225)
  14:       773.31   10.727823  (  0.565300  -0.641039   3.161855)
  15:       828.78    6.570458  ( -2.390623   0.450467  -0.807749)
  16:       846.77   31.050260  ( -2.643519  -2.383693   4.287199)
  17:       876.90   27.843243  ( -3.014507   2.640516   3.432734)
  18:       915.07    2.943949  ( -1.113197  -0.464239  -1.220337)
  19:       944.02    3.517506  ( -0.757063  -0.411931  -1.665736)
  20:       989.99   21.023639  ( -2.597890   0.792093  -3.694211)
  21:      1024.99   12.694908  ( -2.765927  -2.148828   0.653522)
  22:      1040.05   11.321040  ( -0.098417  -2.372131  -2.384187)
  23:      1059.09    2.148501  ( -0.585988   0.628868   1.187284)
  24:      1098.91   12.301685  ( -1.450726  -2.511638  -1.971992)
  25:      1160.09   63.072588  ( -6.148320   4.954024   0.853464)
  26:      1198.08    7.226901  ( -0.217903  -2.489345  -0.991253)
  27:      1230.58    5.467544  ( -1.305995   0.116296   1.936077)
  28:      1232.72   32.036127  ( -3.025733   3.071957   3.666626)
  29:      1301.03    1.599105  ( -0.034305   0.165829  -1.253168)
  30:      1340.38    9.928764  ( -2.126752   2.297939   0.353789)
  31:      1378.94    7.997965  (  1.490622  -0.577212  -2.332989)
  32:      1399.30    2.598424  ( -0.019301  -0.106555  -1.608321)
  33:      1405.99   40.987591  ( -3.633325   1.742496   4.974962)
  34:      1485.09   12.707173  (  0.970976   1.312985   3.168667)
  35:      1495.53   56.886973  (  6.691050   3.186048  -1.402113)
  36:      1496.60  107.870116  (  8.740325   2.664668  -4.937243)
  37:      1512.46    2.246970  ( -0.593386  -0.402106  -1.316501)
  38:      1649.97   49.398389  (  3.155164  -5.577136   2.887712)
  39:      1662.66   36.701497  (  0.255104  -2.528095  -5.499560)
  40:      1727.41   16.862463  (  2.904491  -1.664747  -2.378028)
  41:      2976.90   44.593447  ( -3.178072   5.720750   1.329032)
  42:      3002.09   43.438747  ( -6.371558  -1.183090   1.200955)
  43:      3011.65   11.437196  (  3.234900  -0.701817  -0.692871)
  44:      3075.57    7.050433  ( -0.085554  -2.636170  -0.306136)
  45:      3088.21    4.455665  (  0.657710  -0.930558  -1.776835)
  46:      3158.96    0.016131  ( -0.060761  -0.004711  -0.111430)
  47:      3223.94    0.616834  (  0.416861  -0.429928  -0.508156)
  48:      3418.11   40.569851  (  5.307926   1.872270  -2.981674)
  49:      3505.24   89.052137  ( -3.409771   8.797684  -0.162340)
  50:      3508.56   94.157575  (  2.442470   1.158762   9.319291)

--------------------------
THERMOCHEMISTRY AT 298.15K
--------------------------

Temperature         ... 298.15 K
Pressure            ... 1.00 atm
Total Mass          ... 100.14 AMU

Throughout the following assumptions are being made:
  (1) The electronic state is orbitally nondegenerate
  (2) There are no thermally accessible electronically excited states
  (3) Hindered rotations indicated by low frequency modes) are not
      treated as such but are treated as vibrations and this may
      case some error
  (4) All equations used are the standard statistical mechanics
      equations for an ideal gas
  (5) All vibrations are strinctly harmonic

------------
INNER ENERGY
------------

The inner energy is: U= E(el) + E(ZPE) + E(vib) + E(rot) + E(trans)
    E(el)   - is the total energy from the electronic structure calculation
              = E(kin-el) + E(nuc-el) + E(el-el) + E(nuc-nuc)
    E(ZPE)  - the the zero temperature vibrational energy from the frequency calculation
    E(vib)  - the the finite temperature correction to E(ZPE) due to population
              of excietd vibrational states
    E(rot)  - is the rotational thermal energy
    E(trans)- is the translational thermal energy

Summary of contributions to the inner energy U:
Electronic energy                ...   -325.98727354 Eh
Zero point energy                ...      0.15346267 Eh      96.30 kcal/mol
Thermal vibrational correction   ...      0.00450105 Eh       2.82 kcal/mol
Thermal rotational correction    ...      0.00141627 Eh       0.89 kcal/mol
Thermal translational correction ...      0.00141627 Eh       0.89 kcal/mol
-----------------------------------------------------------------------
Total thermal energy                   -325.82647728 Eh

Summary of corrections to the electronic energy:
(perhaps to be used in another calculation)
Total thermal correction                  0.00733359 Eh       4.60 kcal/mol
Non-thermal (ZPE) correction              0.15346267 Eh      96.30 kcal/mol
-----------------------------------------------------------------------
Total correction                          0.16079626 Eh     100.90 kcal/mol

--------
ENTHALPY
--------

The enthalpy is H = U + kB*T
                kB is Boltzmann's constant
Total free energy                 ...   -325.82647728 Eh
Thermal Enthalpy correction       ...      0.00094421 Eh       0.59 kcal/mol
-----------------------------------------------------------------------
Total Enthalpy                    ...   -325.82553307 Eh

-------
ENTROPY
-------

The entropy contributions are T*S = T*(S(el)+S(vib)+S(rot)+S(trans)
     S(el)   - electronic entropy
     S(vib)  - vibrational entropy
     S(rot)  - rotational entropy
     S(trans)- translational entropy
The entropies will be listed as mutliplied by the temperature to get
units of energy

Electronic entropy                ...      0.00000000 Eh      0.00 kcal/mol
Vibrational entropy               ...      0.00816422 Eh      5.12 kcal/mol
Rotational entropy                ...      0.01200460 Eh      7.53 kcal/mol
Translational entropy             ...      0.01887324 Eh     11.84 kcal/mol
-----------------------------------------------------------------------
Final entropy term                ...      0.03904206 Eh     24.50 kcal/mol

CAUTION: The rotational entropy is not quite correctly treated here
         because it includes a symmetry number that is not yet correctly
         implemented in ORCA!
For a nonlinear molecule the correct rotational entropy is:
    S(rot) = R*(ln(qrot/sn)+1.5)
    R    = 8.31441 J/mol/K = 1.987191683e-3 kcal/mol/K
    qrot = 222550.9837934
    sn is the rotational symmetry number. We have assumed 3 here
       if it is different for your molecule then you should correct
       the printed rotational entropy by manually evaluating the equation
       as given above

For convenience we print out the resulting values for sn=1 - 12:
 sn= 1  qrot/sn=  222550.9838 T*S(rot)=     8.18 kcal/mol T*S(tot)=    25.15 kcal/mol
 sn= 2  qrot/sn=  111275.4919 T*S(rot)=     7.77 kcal/mol T*S(tot)=    24.74 kcal/mol
 sn= 3  qrot/sn=   74183.6613 T*S(rot)=     7.53 kcal/mol T*S(tot)=    24.50 kcal/mol
 sn= 4  qrot/sn=   55637.7459 T*S(rot)=     7.36 kcal/mol T*S(tot)=    24.33 kcal/mol
 sn= 5  qrot/sn=   44510.1968 T*S(rot)=     7.23 kcal/mol T*S(tot)=    24.20 kcal/mol
 sn= 6  qrot/sn=   37091.8306 T*S(rot)=     7.12 kcal/mol T*S(tot)=    24.09 kcal/mol
 sn= 7  qrot/sn=   31792.9977 T*S(rot)=     7.03 kcal/mol T*S(tot)=    24.00 kcal/mol
 sn= 8  qrot/sn=   27818.8730 T*S(rot)=     6.95 kcal/mol T*S(tot)=    23.92 kcal/mol
 sn= 9  qrot/sn=   24727.8871 T*S(rot)=     6.88 kcal/mol T*S(tot)=    23.85 kcal/mol
 sn=10  qrot/sn=   22255.0984 T*S(rot)=     6.82 kcal/mol T*S(tot)=    23.79 kcal/mol
 sn=11  qrot/sn=   20231.9076 T*S(rot)=     6.76 kcal/mol T*S(tot)=    23.73 kcal/mol
 sn=12  qrot/sn=   18545.9153 T*S(rot)=     6.71 kcal/mol T*S(tot)=    23.68 kcal/mol

-------------------
GIBBS FREE ENTHALPY
-------------------

The Gibbs free enthalpy is G = H - T*S

Total enthalpy                    ...   -325.82553307 Eh
Total entropy correction          ...     -0.03904206 Eh    -24.50 kcal/mol
-----------------------------------------------------------------------
Final Gibbs free enthalpy         ...   -325.86457514 Eh

For completeness - the Gibbs free enthalpy minus the electronic energy
G-E(el)                           ...      0.12269841 Eh     76.99 kcal/mol

                             ****ORCA TERMINATED NORMALLY****
TOTAL RUN TIME: 0 days 0 hours 34 minutes 29 seconds 85 msec
