                         Program Version 3.0.3 - RELEASE   -
|  1> ! NORI PBE0 def2-TZVP UseSym TightOPT Freq TightSCF Grid3 FinalGrid5 XYZFile
|  2> % pal
|  3>     nprocs 8
|  4> end
|  5> %method
|  6>     SymThresh 5.0e-2
|  7> end
|  8> % geom
|  9>     MaxIter 10
| 10> end
| 11> % maxcore 2000
| 12> % output
| 13>     printlevel mini
| 14>     print[ P_Basis ] 0
| 15>     print[ P_SCFInfo ] 1
| 16>     print[ P_SCFIterInfo ] 1
| 17>     print[ P_OrbEn ] 0
| 18>     print[ P_Cartesian ] 0
| 19> end
| 20> % elprop
| 21>     Dipole false
| 22> end
| 23> *xyz 1 1
| 24>  N        1.0922445661    -0.5076418341    -0.2621487533
| 25>  C        2.4393637688     0.0743032627     0.1516791915
| 26>  C        2.8257068332     1.1896485642    -0.7328335829
| 27>  C        2.6951230260     2.5275578220    -0.5094630637
| 28>  O        3.1662910582     3.2039693699    -1.5376913215
| 29>  N        3.6376268983     2.3356661851    -2.4917658556
| 30>  C        3.4418799906     1.1445070465    -2.0162623155
| 31>  H        0.8124527901    -1.2883416131     0.3370797874
| 32>  H        1.1244568265    -0.8435116223    -1.2272728306
| 33>  H        0.3644308276     0.2093565611    -0.2181158975
| 34>  H        2.3254046001     0.3863465419     1.1896235072
| 35>  H        3.1447291077    -0.7569661249     0.1133405966
| 36>  H        2.3171056611     3.1105097212     0.3187065964
| 37>  H        3.7616140456     0.2907261196    -2.5992660586
| 38> *
| 39>
| 40>                          ****END OF INPUT****
 Total Charge           Charge          ....    1
 Multiplicity           Mult            ....    1
 Number of Electrons    NEL             ....   52
FINAL SINGLE POINT ENERGY      -340.795314701696

CARTESIAN COORDINATES (ANGSTROEM)
---------------------------------
  N      1.104948   -0.000000   -2.355563
  C      0.054161    0.802549   -1.596593
  C     -0.127629    0.273795   -0.231670
  C      0.407665    0.739926    0.931584
  O      0.000211    0.000145    1.943199
  N     -0.833061   -0.993134    1.489900
  C     -0.914361   -0.830391    0.205224
  H      1.238934    0.349242   -3.307923
  H      0.836077   -0.984708   -2.413033
  H      2.003518    0.037645   -1.869164
  H      0.404293    1.834498   -1.600057
  H     -0.854771    0.741186   -2.196316
  H      1.053425    1.572594    1.172611
  H     -1.545013   -1.498380   -0.366691

FINAL SINGLE POINT ENERGY      -340.795314912129
                    ***********************HURRAY********************
 Multiplicity           Mult            ....    1
 Number of Electrons    NEL             ....   52
 Basis Dimension        Dim             ....  259
FINAL SINGLE POINT ENERGY      -340.795314990924

VIBRATIONAL FREQUENCIES
-----------------------

   0:         0.00 cm**-1
   1:         0.00 cm**-1
   2:         0.00 cm**-1
   3:         0.00 cm**-1
   4:         0.00 cm**-1
   5:         0.00 cm**-1
   6:        84.62 cm**-1
   7:       151.70 cm**-1
   8:       193.65 cm**-1
   9:       323.14 cm**-1
  10:       409.36 cm**-1
  11:       627.27 cm**-1
  12:       654.81 cm**-1
  13:       693.27 cm**-1
  14:       842.17 cm**-1
  15:       865.90 cm**-1
  16:       892.27 cm**-1
  17:       910.48 cm**-1
  18:       935.55 cm**-1
  19:       945.43 cm**-1
  20:      1023.22 cm**-1
  21:      1060.77 cm**-1
  22:      1094.47 cm**-1
  23:      1193.76 cm**-1
  24:      1217.63 cm**-1
  25:      1322.64 cm**-1
  26:      1335.40 cm**-1
  27:      1406.58 cm**-1
  28:      1431.63 cm**-1
  29:      1486.81 cm**-1
  30:      1502.95 cm**-1
  31:      1517.74 cm**-1
  32:      1648.52 cm**-1
  33:      1652.29 cm**-1
  34:      1662.99 cm**-1
  35:      3106.25 cm**-1
  36:      3165.17 cm**-1
  37:      3243.62 cm**-1
  38:      3264.11 cm**-1
  39:      3413.71 cm**-1
  40:      3502.71 cm**-1
  41:      3504.94 cm**-1

IR SPECTRUM
-----------

 Mode    freq (cm**-1)   T**2         TX         TY         TZ
-------------------------------------------------------------------
   6:        84.62    3.343821  ( -1.508006  -0.893971  -0.520149)
   7:       151.70   12.116611  ( -0.727124  -1.036420   3.242489)
   8:       193.65    0.037085  ( -0.044251  -0.075896  -0.171366)
   9:       323.14    0.067217  ( -0.051955  -0.180892  -0.178313)
  10:       409.36    9.061932  (  0.886963   0.580977  -2.817391)
  11:       627.27   17.243090  (  3.313073  -2.095485  -1.369517)
  12:       654.81    0.663290  ( -0.486039   0.042997   0.652079)
  13:       693.27   15.643533  (  3.197918  -2.281557  -0.459727)
  14:       842.17   11.559770  ( -2.188829  -2.453359  -0.865925)
  15:       865.90   52.753471  (  3.921374  -0.384859  -6.101490)
  16:       892.27    3.522159  ( -1.264325   0.802945  -1.130894)
  17:       910.48   20.023168  (  3.336826  -2.971522   0.242524)
  18:       935.55   26.311901  (  1.577927   1.134118   4.747191)
  19:       945.43    4.277745  (  0.036640   0.542557  -1.995504)
  20:      1023.22   14.887402  (  0.795935   2.551000  -2.783215)
  21:      1060.77    7.312131  (  0.056492  -1.797091   2.019753)
  22:      1094.47   11.992399  ( -1.891655   1.741309  -2.319888)
  23:      1193.76   43.376249  (  0.940594   1.530710  -6.336281)
  24:      1217.63    7.253964  (  1.115636   1.682557  -1.782785)
  25:      1322.64    4.239848  (  1.057342   1.199190  -1.297620)
  26:      1335.40   11.478405  (  1.757488   1.693092   2.350123)
  27:      1406.58   14.856787  ( -0.717573  -0.325063   3.773090)
  28:      1431.63   16.287756  ( -2.345359  -2.368078   2.275797)
  29:      1486.81   19.159836  ( -0.240410   1.353103  -4.155857)
  30:      1502.95  155.239834  (  8.020421  -6.282453  -7.172410)
  31:      1517.74    7.437022  ( -2.227892  -0.414544  -1.517127)
  32:      1648.52   44.843807  (  2.721190   3.561289  -4.975555)
  33:      1652.29   68.090310  ( -4.412038  -3.186674  -6.202366)
  34:      1662.99   13.146374  ( -0.413489   3.090435  -1.850571)
  35:      3106.25    2.171348  ( -0.397210  -0.328300   1.380504)
  36:      3165.17    0.351558  ( -0.441059  -0.382696  -0.102807)
  37:      3243.62    2.585993  ( -1.003467  -1.020586  -0.733111)
  38:      3264.11    7.269077  (  1.553696   1.940108   1.044551)
  39:      3413.71   43.996614  ( -4.263946   2.385761   4.485925)
  40:      3502.71   90.043736  ( -2.442330   5.441941  -7.379976)
  41:      3504.94   92.766839  (  6.607938   6.505943   2.602826)

--------------------------
THERMOCHEMISTRY AT 298.15K
--------------------------

Temperature         ... 298.15 K
Pressure            ... 1.00 atm
Total Mass          ... 99.11 AMU

Throughout the following assumptions are being made:
  (1) The electronic state is orbitally nondegenerate
  (2) There are no thermally accessible electronically excited states
  (3) Hindered rotations indicated by low frequency modes) are not
      treated as such but are treated as vibrations and this may
      case some error
  (4) All equations used are the standard statistical mechanics
      equations for an ideal gas
  (5) All vibrations are strinctly harmonic

------------
INNER ENERGY
------------

The inner energy is: U= E(el) + E(ZPE) + E(vib) + E(rot) + E(trans)
    E(el)   - is the total energy from the electronic structure calculation
              = E(kin-el) + E(nuc-el) + E(el-el) + E(nuc-nuc)
    E(ZPE)  - the the zero temperature vibrational energy from the frequency calculation
    E(vib)  - the the finite temperature correction to E(ZPE) due to population
              of excietd vibrational states
    E(rot)  - is the rotational thermal energy
    E(trans)- is the translational thermal energy

Summary of contributions to the inner energy U:
Electronic energy                ...   -340.79531499 Eh
Zero point energy                ...      0.11911981 Eh      74.75 kcal/mol
Thermal vibrational correction   ...      0.00356692 Eh       2.24 kcal/mol
Thermal rotational correction    ...      0.00141627 Eh       0.89 kcal/mol
Thermal translational correction ...      0.00141627 Eh       0.89 kcal/mol
-----------------------------------------------------------------------
Total thermal energy                   -340.66979572 Eh

Summary of corrections to the electronic energy:
(perhaps to be used in another calculation)
Total thermal correction                  0.00639946 Eh       4.02 kcal/mol
Non-thermal (ZPE) correction              0.11911981 Eh      74.75 kcal/mol
-----------------------------------------------------------------------
Total correction                          0.12551927 Eh      78.76 kcal/mol

--------
ENTHALPY
--------

The enthalpy is H = U + kB*T
                kB is Boltzmann's constant
Total free energy                 ...   -340.66979572 Eh
Thermal Enthalpy correction       ...      0.00094421 Eh       0.59 kcal/mol
-----------------------------------------------------------------------
Total Enthalpy                    ...   -340.66885151 Eh

-------
ENTROPY
-------

The entropy contributions are T*S = T*(S(el)+S(vib)+S(rot)+S(trans)
     S(el)   - electronic entropy
     S(vib)  - vibrational entropy
     S(rot)  - rotational entropy
     S(trans)- translational entropy
The entropies will be listed as mutliplied by the temperature to get
units of energy

Electronic entropy                ...      0.00000000 Eh      0.00 kcal/mol
Vibrational entropy               ...      0.00628121 Eh      3.94 kcal/mol
Rotational entropy                ...      0.01188751 Eh      7.46 kcal/mol
Translational entropy             ...      0.01885862 Eh     11.83 kcal/mol
-----------------------------------------------------------------------
Final entropy term                ...      0.03702734 Eh     23.23 kcal/mol

CAUTION: The rotational entropy is not quite correctly treated here
         because it includes a symmetry number that is not yet correctly
         implemented in ORCA!
For a nonlinear molecule the correct rotational entropy is:
    S(rot) = R*(ln(qrot/sn)+1.5)
    R    = 8.31441 J/mol/K = 1.987191683e-3 kcal/mol/K
    qrot = 196595.6030988
    sn is the rotational symmetry number. We have assumed 3 here
       if it is different for your molecule then you should correct
       the printed rotational entropy by manually evaluating the equation
       as given above

For convenience we print out the resulting values for sn=1 - 12:
 sn= 1  qrot/sn=  196595.6031 T*S(rot)=     8.11 kcal/mol T*S(tot)=    23.89 kcal/mol
 sn= 2  qrot/sn=   98297.8015 T*S(rot)=     7.70 kcal/mol T*S(tot)=    23.48 kcal/mol
 sn= 3  qrot/sn=   65531.8677 T*S(rot)=     7.46 kcal/mol T*S(tot)=    23.23 kcal/mol
 sn= 4  qrot/sn=   49148.9008 T*S(rot)=     7.29 kcal/mol T*S(tot)=    23.06 kcal/mol
 sn= 5  qrot/sn=   39319.1206 T*S(rot)=     7.16 kcal/mol T*S(tot)=    22.93 kcal/mol
 sn= 6  qrot/sn=   32765.9338 T*S(rot)=     7.05 kcal/mol T*S(tot)=    22.82 kcal/mol
 sn= 7  qrot/sn=   28085.0862 T*S(rot)=     6.96 kcal/mol T*S(tot)=    22.73 kcal/mol
 sn= 8  qrot/sn=   24574.4504 T*S(rot)=     6.88 kcal/mol T*S(tot)=    22.65 kcal/mol
 sn= 9  qrot/sn=   21843.9559 T*S(rot)=     6.81 kcal/mol T*S(tot)=    22.58 kcal/mol
 sn=10  qrot/sn=   19659.5603 T*S(rot)=     6.75 kcal/mol T*S(tot)=    22.52 kcal/mol
 sn=11  qrot/sn=   17872.3276 T*S(rot)=     6.69 kcal/mol T*S(tot)=    22.47 kcal/mol
 sn=12  qrot/sn=   16382.9669 T*S(rot)=     6.64 kcal/mol T*S(tot)=    22.41 kcal/mol

-------------------
GIBBS FREE ENTHALPY
-------------------

The Gibbs free enthalpy is G = H - T*S

Total enthalpy                    ...   -340.66885151 Eh
Total entropy correction          ...     -0.03702734 Eh    -23.23 kcal/mol
-----------------------------------------------------------------------
Final Gibbs free enthalpy         ...   -340.70587886 Eh

For completeness - the Gibbs free enthalpy minus the electronic energy
G-E(el)                           ...      0.08943613 Eh     56.12 kcal/mol

                             ****ORCA TERMINATED NORMALLY****
TOTAL RUN TIME: 0 days 0 hours 26 minutes 37 seconds 606 msec
