                         Program Version 3.0.3 - RELEASE   -
|  1> ! NORI PBE0 def2-TZVP UseSym TightOPT Freq TightSCF Grid3 FinalGrid5 XYZFile
|  2> % pal
|  3>     nprocs 8
|  4> end
|  5> %method
|  6>     SymThresh 5.0e-2
|  7> end
|  8> % geom
|  9>     MaxIter 10
| 10> end
| 11> % maxcore 2000
| 12> % output
| 13>     printlevel mini
| 14>     print[ P_Basis ] 0
| 15>     print[ P_SCFInfo ] 1
| 16>     print[ P_SCFIterInfo ] 1
| 17>     print[ P_OrbEn ] 0
| 18>     print[ P_Cartesian ] 0
| 19> end
| 20> % elprop
| 21>     Dipole false
| 22> end
| 23> *xyz 1 1
| 24>  N        3.0237889722    -0.7412954297     0.9375265306
| 25>  C        2.3928293117    -0.0060331264    -0.2254177847
| 26>  C        3.2202676619     1.1809226480    -0.5722287901
| 27>  C        2.5398338169     2.4572536487    -0.9829971516
| 28>  O        1.1582996471     2.3959745463    -0.9900988434
| 29>  C        3.2489011692     2.3866564823     0.3346852040
| 30>  O        4.5007875680     2.9295404114     0.5256061715
| 31>  H        2.4558775289    -1.5303066561     1.2522724061
| 32>  H        3.1524635505    -0.0987087495     1.7229619469
| 33>  H        3.9482820247    -1.0965245870     0.6861006126
| 34>  H        2.3184810068    -0.7251486222    -1.0422950121
| 35>  H        1.3877657514     0.2780860571     0.0841612647
| 36>  H        4.1579296976     0.9861446073    -1.0833274604
| 37>  H        3.0167695298     3.0066843834    -1.7906114344
| 38>  H        0.7931291896     3.2858663644    -0.9595979407
| 39>  H        2.5805538642     2.3700356148     1.1994280685
| 40>  H        4.4294997094     3.8807524071     0.6572122123
| 41> *
| 42>
| 43>                          ****END OF INPUT****
 Total Charge           Charge          ....    1
 Multiplicity           Mult            ....    1
 Number of Electrons    NEL             ....   56
FINAL SINGLE POINT ENERGY      -363.094102711147
FINAL SINGLE POINT ENERGY      -363.094103711172
FINAL SINGLE POINT ENERGY      -363.094104424018

CARTESIAN COORDINATES (ANGSTROEM)
---------------------------------
  N     -1.862995   -0.678046   -1.504173
  C     -1.582211    0.041550   -0.203003
  C     -0.203466    0.600738   -0.230675
  C      0.627547    0.571169    1.022566
  O     -0.000661   -0.001053    2.113849
  C      0.995623   -0.310895   -0.130704
  O      2.024693    0.000193   -0.992678
  H     -2.779595   -1.129504   -1.507750
  H     -1.147781   -1.391301   -1.665531
  H     -1.824682   -0.031012   -2.294294
  H     -2.349741    0.809682   -0.102005
  H     -1.707667   -0.686354    0.598106
  H     -0.047524    1.475481   -0.854041
  H      1.236900    1.452351    1.205704
  H      0.655800   -0.260476    2.767952
  H      0.797127   -1.371854    0.038143
  H      2.869830   -0.223913   -0.589316

FINAL SINGLE POINT ENERGY      -363.094104715127
                    ***********************HURRAY********************
 Multiplicity           Mult            ....    1
 Number of Electrons    NEL             ....   56
 Basis Dimension        Dim             ....  277
FINAL SINGLE POINT ENERGY      -363.094104835650

VIBRATIONAL FREQUENCIES
-----------------------

   0:         0.00 cm**-1
   1:         0.00 cm**-1
   2:         0.00 cm**-1
   3:         0.00 cm**-1
   4:         0.00 cm**-1
   5:         0.00 cm**-1
   6:        88.63 cm**-1
   7:       130.44 cm**-1
   8:       195.37 cm**-1
   9:       260.02 cm**-1
  10:       292.37 cm**-1
  11:       304.31 cm**-1
  12:       317.30 cm**-1
  13:       332.24 cm**-1
  14:       417.85 cm**-1
  15:       505.10 cm**-1
  16:       594.73 cm**-1
  17:       812.56 cm**-1
  18:       860.05 cm**-1
  19:       895.66 cm**-1
  20:       922.23 cm**-1
  21:       932.49 cm**-1
  22:      1030.91 cm**-1
  23:      1041.48 cm**-1
  24:      1094.20 cm**-1
  25:      1140.18 cm**-1
  26:      1150.47 cm**-1
  27:      1185.25 cm**-1
  28:      1213.57 cm**-1
  29:      1231.40 cm**-1
  30:      1273.77 cm**-1
  31:      1280.86 cm**-1
  32:      1328.62 cm**-1
  33:      1358.86 cm**-1
  34:      1372.21 cm**-1
  35:      1417.28 cm**-1
  36:      1495.54 cm**-1
  37:      1496.44 cm**-1
  38:      1516.29 cm**-1
  39:      1651.05 cm**-1
  40:      1663.25 cm**-1
  41:      3084.70 cm**-1
  42:      3107.21 cm**-1
  43:      3157.24 cm**-1
  44:      3164.38 cm**-1
  45:      3181.57 cm**-1
  46:      3419.69 cm**-1
  47:      3500.62 cm**-1
  48:      3513.20 cm**-1
  49:      3835.81 cm**-1
  50:      3846.66 cm**-1

IR SPECTRUM
-----------

 Mode    freq (cm**-1)   T**2         TX         TY         TZ
-------------------------------------------------------------------
   6:        88.63   11.246934  (  1.930195  -1.959677   1.918579)
   7:       130.44   16.600307  (  3.435630   0.562414  -2.116706)
   8:       195.37    2.992522  (  0.444146  -0.333709   1.638260)
   9:       260.02   11.810623  ( -1.981972  -0.784816  -2.695640)
  10:       292.37   27.347773  (  0.157871  -4.774693  -2.127241)
  11:       304.31   51.785085  ( -0.449659   6.598778   2.835315)
  12:       317.30   30.186216  ( -1.710456   3.972632   3.388031)
  13:       332.24  174.867364  (  0.842720  11.658451   6.183665)
  14:       417.85    6.913193  (  1.541267  -2.015943  -0.688232)
  15:       505.10    3.592874  ( -1.876474  -0.093637   0.250903)
  16:       594.73   11.598529  (  1.020741   1.854842  -2.667617)
  17:       812.56   27.329673  (  4.666213  -2.189912   0.872018)
  18:       860.05    5.289496  ( -1.884582  -1.311265  -0.135762)
  19:       895.66   34.767243  (  4.894860   3.025760  -1.285442)
  20:       922.23    5.928871  ( -0.364120   1.519423   1.867523)
  21:       932.49   25.678229  ( -3.653461  -0.734367  -3.433825)
  22:      1030.91    8.109674  ( -2.011059   0.409108   1.974322)
  23:      1041.48    5.075606  ( -0.314417   1.141238  -1.916852)
  24:      1094.20    7.128154  ( -2.593635  -0.540680  -0.329964)
  25:      1140.18    8.847579  ( -2.317393   1.767352  -0.594757)
  26:      1150.47   71.254142  ( -4.621494  -1.714813   6.852398)
  27:      1185.25   48.774027  (  2.644306   0.036557  -6.463771)
  28:      1213.57   84.069103  (  6.209156   1.715897  -6.524660)
  29:      1231.40   30.942009  ( -0.729106   1.205975  -5.381082)
  30:      1273.77   55.178189  ( -3.965307  -3.222858   5.391448)
  31:      1280.86   40.218847  ( -4.204367  -0.885601   4.664531)
  32:      1328.62   13.980331  (  3.481502  -0.352013  -1.317406)
  33:      1358.86    9.539216  ( -0.783831   2.199282  -2.021876)
  34:      1372.21    8.309839  ( -2.443498  -0.607631  -1.403545)
  35:      1417.28   12.354429  ( -3.455209  -0.621328  -0.172950)
  36:      1495.54  166.642104  ( -5.425953  -5.952808 -10.087875)
  37:      1496.44   13.882255  (  2.281993   0.532342  -2.896787)
  38:      1516.29   27.673222  (  4.034555  -2.406780  -2.367065)
  39:      1651.05   47.776248  ( -1.272270   6.133691  -2.921542)
  40:      1663.25   33.606594  (  5.726376   0.026671  -0.902496)
  41:      3084.70   22.444350  ( -2.630113  -3.610250   1.578907)
  42:      3107.21    4.945077  (  2.051997   0.200138   0.833264)
  43:      3157.24    5.046577  ( -1.561747  -1.394946   0.813418)
  44:      3164.38    1.766174  ( -0.406236  -0.470270   1.174731)
  45:      3181.57    0.192706  (  0.024160  -0.373620   0.229196)
  46:      3419.69   32.830426  (  1.361211   2.871889   4.767576)
  47:      3500.62   95.818271  ( -7.013554   5.773583  -3.646105)
  48:      3513.20   95.070778  (  6.960753   5.278152  -4.331259)
  49:      3835.81   71.633685  ( -8.387595   1.128134  -0.096162)
  50:      3846.66  108.262880  (  5.378699  -2.720560   8.481217)

--------------------------
THERMOCHEMISTRY AT 298.15K
--------------------------

Temperature         ... 298.15 K
Pressure            ... 1.00 atm
Total Mass          ... 104.13 AMU

Throughout the following assumptions are being made:
  (1) The electronic state is orbitally nondegenerate
  (2) There are no thermally accessible electronically excited states
  (3) Hindered rotations indicated by low frequency modes) are not
      treated as such but are treated as vibrations and this may
      case some error
  (4) All equations used are the standard statistical mechanics
      equations for an ideal gas
  (5) All vibrations are strinctly harmonic

------------
INNER ENERGY
------------

The inner energy is: U= E(el) + E(ZPE) + E(vib) + E(rot) + E(trans)
    E(el)   - is the total energy from the electronic structure calculation
              = E(kin-el) + E(nuc-el) + E(el-el) + E(nuc-nuc)
    E(ZPE)  - the the zero temperature vibrational energy from the frequency calculation
    E(vib)  - the the finite temperature correction to E(ZPE) due to population
              of excietd vibrational states
    E(rot)  - is the rotational thermal energy
    E(trans)- is the translational thermal energy

Summary of contributions to the inner energy U:
Electronic energy                ...   -363.09410484 Eh
Zero point energy                ...      0.15175809 Eh      95.23 kcal/mol
Thermal vibrational correction   ...      0.00532378 Eh       3.34 kcal/mol
Thermal rotational correction    ...      0.00141627 Eh       0.89 kcal/mol
Thermal translational correction ...      0.00141627 Eh       0.89 kcal/mol
-----------------------------------------------------------------------
Total thermal energy                   -362.93419042 Eh

Summary of corrections to the electronic energy:
(perhaps to be used in another calculation)
Total thermal correction                  0.00815632 Eh       5.12 kcal/mol
Non-thermal (ZPE) correction              0.15175809 Eh      95.23 kcal/mol
-----------------------------------------------------------------------
Total correction                          0.15991441 Eh     100.35 kcal/mol

--------
ENTHALPY
--------

The enthalpy is H = U + kB*T
                kB is Boltzmann's constant
Total free energy                 ...   -362.93419042 Eh
Thermal Enthalpy correction       ...      0.00094421 Eh       0.59 kcal/mol
-----------------------------------------------------------------------
Total Enthalpy                    ...   -362.93324622 Eh

-------
ENTROPY
-------

The entropy contributions are T*S = T*(S(el)+S(vib)+S(rot)+S(trans)
     S(el)   - electronic entropy
     S(vib)  - vibrational entropy
     S(rot)  - rotational entropy
     S(trans)- translational entropy
The entropies will be listed as mutliplied by the temperature to get
units of energy

Electronic entropy                ...      0.00000000 Eh      0.00 kcal/mol
Vibrational entropy               ...      0.00916500 Eh      5.75 kcal/mol
Rotational entropy                ...      0.01221561 Eh      7.67 kcal/mol
Translational entropy             ...      0.01892854 Eh     11.88 kcal/mol
-----------------------------------------------------------------------
Final entropy term                ...      0.04030916 Eh     25.29 kcal/mol

CAUTION: The rotational entropy is not quite correctly treated here
         because it includes a symmetry number that is not yet correctly
         implemented in ORCA!
For a nonlinear molecule the correct rotational entropy is:
    S(rot) = R*(ln(qrot/sn)+1.5)
    R    = 8.31441 J/mol/K = 1.987191683e-3 kcal/mol/K
    qrot = 278284.3445743
    sn is the rotational symmetry number. We have assumed 3 here
       if it is different for your molecule then you should correct
       the printed rotational entropy by manually evaluating the equation
       as given above

For convenience we print out the resulting values for sn=1 - 12:
 sn= 1  qrot/sn=  278284.3446 T*S(rot)=     8.32 kcal/mol T*S(tot)=    25.95 kcal/mol
 sn= 2  qrot/sn=  139142.1723 T*S(rot)=     7.91 kcal/mol T*S(tot)=    25.53 kcal/mol
 sn= 3  qrot/sn=   92761.4482 T*S(rot)=     7.67 kcal/mol T*S(tot)=    25.29 kcal/mol
 sn= 4  qrot/sn=   69571.0861 T*S(rot)=     7.49 kcal/mol T*S(tot)=    25.12 kcal/mol
 sn= 5  qrot/sn=   55656.8689 T*S(rot)=     7.36 kcal/mol T*S(tot)=    24.99 kcal/mol
 sn= 6  qrot/sn=   46380.7241 T*S(rot)=     7.25 kcal/mol T*S(tot)=    24.88 kcal/mol
 sn= 7  qrot/sn=   39754.9064 T*S(rot)=     7.16 kcal/mol T*S(tot)=    24.79 kcal/mol
 sn= 8  qrot/sn=   34785.5431 T*S(rot)=     7.08 kcal/mol T*S(tot)=    24.71 kcal/mol
 sn= 9  qrot/sn=   30920.4827 T*S(rot)=     7.01 kcal/mol T*S(tot)=    24.64 kcal/mol
 sn=10  qrot/sn=   27828.4345 T*S(rot)=     6.95 kcal/mol T*S(tot)=    24.58 kcal/mol
 sn=11  qrot/sn=   25298.5768 T*S(rot)=     6.90 kcal/mol T*S(tot)=    24.52 kcal/mol
 sn=12  qrot/sn=   23190.3620 T*S(rot)=     6.84 kcal/mol T*S(tot)=    24.47 kcal/mol

-------------------
GIBBS FREE ENTHALPY
-------------------

The Gibbs free enthalpy is G = H - T*S

Total enthalpy                    ...   -362.93324622 Eh
Total entropy correction          ...     -0.04030916 Eh    -25.29 kcal/mol
-----------------------------------------------------------------------
Final Gibbs free enthalpy         ...   -362.97355538 Eh

For completeness - the Gibbs free enthalpy minus the electronic energy
G-E(el)                           ...      0.12054946 Eh     75.65 kcal/mol

                             ****ORCA TERMINATED NORMALLY****
TOTAL RUN TIME: 0 days 0 hours 35 minutes 17 seconds 871 msec
