                         Program Version 3.0.3 - RELEASE   -
|  1> ! NORI PBE0 def2-TZVP UseSym TightOPT Freq TightSCF Grid3 FinalGrid5 XYZFile
|  2> % pal
|  3>     nprocs 8
|  4> end
|  5> %method
|  6>     SymThresh 5.0e-2
|  7> end
|  8> % geom
|  9>     MaxIter 10
| 10> end
| 11> % maxcore 2000
| 12> % output
| 13>     printlevel mini
| 14>     print[ P_Basis ] 0
| 15>     print[ P_SCFInfo ] 1
| 16>     print[ P_SCFIterInfo ] 1
| 17>     print[ P_OrbEn ] 0
| 18>     print[ P_Cartesian ] 0
| 19> end
| 20> % elprop
| 21>     Dipole false
| 22> end
| 23> *xyz 1 1
| 24>  N        3.2785880754    -1.0347843327    -0.3453743342
| 25>  C        2.2208644123     0.0091424112    -0.0942837552
| 26>  C        2.7561557893     1.3196912640    -0.6352423455
| 27>  C        2.3996730526     2.6685188559     0.0049097932
| 28>  O        3.7974206716     2.8306033588     0.4263080422
| 29>  C        4.1153140557     1.6255105630    -0.0360408405
| 30>  O        5.1055556321     0.9691829084     0.1104101360
| 31>  H        3.1427862645    -1.8660207787     0.2306163275
| 32>  H        4.2096895893    -0.6037988186    -0.1293960832
| 33>  H        3.2939725721    -1.3315978169    -1.3223161315
| 34>  H        1.2917354244    -0.3183157508    -0.5590857707
| 35>  H        2.0784783561     0.0546334560     0.9864192439
| 36>  H        2.7555623777     1.3475161412    -1.7272369168
| 37>  H        1.7513899878     2.6389508390     0.8797966488
| 38>  H        2.1089137390     3.4606777002    -0.6806040138
| 39> *
| 40>
| 41>                          ****END OF INPUT****
 Total Charge           Charge          ....    1
 Multiplicity           Mult            ....    1
 Number of Electrons    NEL             ....   54
FINAL SINGLE POINT ENERGY      -361.915004062891

CARTESIAN COORDINATES (ANGSTROEM)
---------------------------------
  N      0.406078   -0.313523   -2.142933
  C     -0.857924   -0.427407   -1.329728
  C     -0.701609    0.495257   -0.137659
  C     -1.338879    0.179215    1.222514
  O     -0.000412    0.000352    1.800721
  C      0.575405    0.177182    0.615787
  O      1.705007   -0.001223    0.262303
  H      0.518998   -1.095076   -2.789325
  H      1.214086   -0.288149   -1.474918
  H      0.429036    0.548975   -2.689386
  H     -1.706148   -0.188060   -1.970131
  H     -0.934169   -1.470022   -1.017141
  H     -0.781427    1.548123   -0.416600
  H     -1.899993   -0.751478    1.295684
  H     -1.862154    0.999702    1.707075

FINAL SINGLE POINT ENERGY      -361.915004390001
                    ***********************HURRAY********************
 Multiplicity           Mult            ....    1
 Number of Electrons    NEL             ....   54
 Basis Dimension        Dim             ....  265
FINAL SINGLE POINT ENERGY      -361.915004497955

VIBRATIONAL FREQUENCIES
-----------------------

   0:         0.00 cm**-1
   1:         0.00 cm**-1
   2:         0.00 cm**-1
   3:         0.00 cm**-1
   4:         0.00 cm**-1
   5:         0.00 cm**-1
   6:       140.19 cm**-1
   7:       177.20 cm**-1
   8:       224.27 cm**-1
   9:       318.76 cm**-1
  10:       337.22 cm**-1
  11:       414.12 cm**-1
  12:       539.70 cm**-1
  13:       708.08 cm**-1
  14:       764.02 cm**-1
  15:       840.01 cm**-1
  16:       876.04 cm**-1
  17:       938.12 cm**-1
  18:       960.39 cm**-1
  19:       977.93 cm**-1
  20:      1014.92 cm**-1
  21:      1109.90 cm**-1
  22:      1119.94 cm**-1
  23:      1159.77 cm**-1
  24:      1210.27 cm**-1
  25:      1215.26 cm**-1
  26:      1229.24 cm**-1
  27:      1335.38 cm**-1
  28:      1343.31 cm**-1
  29:      1400.17 cm**-1
  30:      1414.85 cm**-1
  31:      1502.11 cm**-1
  32:      1508.75 cm**-1
  33:      1535.59 cm**-1
  34:      1649.11 cm**-1
  35:      1675.21 cm**-1
  36:      1892.43 cm**-1
  37:      3028.78 cm**-1
  38:      3100.47 cm**-1
  39:      3111.73 cm**-1
  40:      3119.20 cm**-1
  41:      3164.28 cm**-1
  42:      3195.98 cm**-1
  43:      3466.30 cm**-1
  44:      3524.08 cm**-1

IR SPECTRUM
-----------

 Mode    freq (cm**-1)   T**2         TX         TY         TZ
-------------------------------------------------------------------
   6:       140.19    3.915217  ( -0.101528  -1.750061   0.917712)
   7:       177.20    8.573463  (  0.658667  -1.624471   2.345360)
   8:       224.27   65.787194  (  1.581771   2.289048   7.618757)
   9:       318.76    2.072356  (  0.208400  -0.331923  -1.385190)
  10:       337.22    0.501870  (  0.156287   0.589744   0.360065)
  11:       414.12   10.498446  ( -1.302009   0.932115   2.816803)
  12:       539.70    6.908722  (  0.739895  -0.725923   2.415432)
  13:       708.08    6.601378  ( -0.669093  -2.480652   0.007678)
  14:       764.02    1.950167  (  1.000824  -0.924415   0.306555)
  15:       840.01   10.938393  ( -1.514816   0.507479  -2.895892)
  16:       876.04    3.956246  (  0.534150  -1.461284   1.239184)
  17:       938.12   27.168044  (  4.547938  -0.556527   2.484870)
  18:       960.39   15.913378  ( -2.124296  -0.290206  -3.364004)
  19:       977.93   51.868380  (  6.782833  -0.515864  -2.365469)
  20:      1014.92   18.772163  (  2.369257  -2.286572  -2.816092)
  21:      1109.90    9.287199  (  1.498925   1.276910  -2.325924)
  22:      1119.94   15.984315  (  1.237019   1.085043   3.643732)
  23:      1159.77    6.216865  ( -0.233414   1.580189   1.914520)
  24:      1210.27   13.451879  ( -2.559402  -2.380060   1.112048)
  25:      1215.26  107.853486  ( -1.535266  -0.771699  10.242115)
  26:      1229.24   34.655019  ( -5.032657   0.278604  -3.041342)
  27:      1335.38    2.207124  ( -1.365644   0.501861  -0.300458)
  28:      1343.31   21.446709  ( -2.304410   0.956053  -3.901585)
  29:      1400.17   73.216312  ( -2.447558  -0.252718   8.195237)
  30:      1414.85    3.738230  (  1.801755   0.440973   0.545391)
  31:      1502.11   10.137207  ( -2.352367  -2.099935  -0.440283)
  32:      1508.75    3.703317  (  0.346403  -1.782057  -0.638432)
  33:      1535.59  213.065624  (  9.396252  -0.971213 -11.128020)
  34:      1649.11   28.806816  ( -3.372403   3.960684  -1.321624)
  35:      1675.21   33.352210  ( -1.012547  -4.703483  -3.194402)
  36:      1892.43  402.645094  (-18.161921   1.266564   8.437152)
  37:      3028.78  384.198174  ( 10.188185   2.182885  16.602231)
  38:      3100.47    1.211102  ( -0.740488   0.562539  -0.588498)
  39:      3111.73    0.924908  ( -0.792594   0.501169   0.213382)
  40:      3119.20    4.925836  ( -2.144771  -0.553617  -0.138931)
  41:      3164.28    0.549712  ( -0.514288   0.460017  -0.271301)
  42:      3195.98    0.114180  (  0.106311  -0.271038  -0.171512)
  43:      3466.30  106.059183  ( -0.887050  -0.586129  10.243475)
  44:      3524.08  103.889658  (  0.688596  -9.996974  -1.864404)

--------------------------
THERMOCHEMISTRY AT 298.15K
--------------------------

Temperature         ... 298.15 K
Pressure            ... 1.00 atm
Total Mass          ... 102.11 AMU

Throughout the following assumptions are being made:
  (1) The electronic state is orbitally nondegenerate
  (2) There are no thermally accessible electronically excited states
  (3) Hindered rotations indicated by low frequency modes) are not
      treated as such but are treated as vibrations and this may
      case some error
  (4) All equations used are the standard statistical mechanics
      equations for an ideal gas
  (5) All vibrations are strinctly harmonic

------------
INNER ENERGY
------------

The inner energy is: U= E(el) + E(ZPE) + E(vib) + E(rot) + E(trans)
    E(el)   - is the total energy from the electronic structure calculation
              = E(kin-el) + E(nuc-el) + E(el-el) + E(nuc-nuc)
    E(ZPE)  - the the zero temperature vibrational energy from the frequency calculation
    E(vib)  - the the finite temperature correction to E(ZPE) due to population
              of excietd vibrational states
    E(rot)  - is the rotational thermal energy
    E(trans)- is the translational thermal energy

Summary of contributions to the inner energy U:
Electronic energy                ...   -361.91500450 Eh
Zero point energy                ...      0.13040926 Eh      81.83 kcal/mol
Thermal vibrational correction   ...      0.00370373 Eh       2.32 kcal/mol
Thermal rotational correction    ...      0.00141627 Eh       0.89 kcal/mol
Thermal translational correction ...      0.00141627 Eh       0.89 kcal/mol
-----------------------------------------------------------------------
Total thermal energy                   -361.77805896 Eh

Summary of corrections to the electronic energy:
(perhaps to be used in another calculation)
Total thermal correction                  0.00653628 Eh       4.10 kcal/mol
Non-thermal (ZPE) correction              0.13040926 Eh      81.83 kcal/mol
-----------------------------------------------------------------------
Total correction                          0.13694554 Eh      85.93 kcal/mol

--------
ENTHALPY
--------

The enthalpy is H = U + kB*T
                kB is Boltzmann's constant
Total free energy                 ...   -361.77805896 Eh
Thermal Enthalpy correction       ...      0.00094421 Eh       0.59 kcal/mol
-----------------------------------------------------------------------
Total Enthalpy                    ...   -361.77711475 Eh

-------
ENTROPY
-------

The entropy contributions are T*S = T*(S(el)+S(vib)+S(rot)+S(trans)
     S(el)   - electronic entropy
     S(vib)  - vibrational entropy
     S(rot)  - rotational entropy
     S(trans)- translational entropy
The entropies will be listed as mutliplied by the temperature to get
units of energy

Electronic entropy                ...      0.00000000 Eh      0.00 kcal/mol
Vibrational entropy               ...      0.00608130 Eh      3.82 kcal/mol
Rotational entropy                ...      0.01190067 Eh      7.47 kcal/mol
Translational entropy             ...      0.01890086 Eh     11.86 kcal/mol
-----------------------------------------------------------------------
Final entropy term                ...      0.03688283 Eh     23.14 kcal/mol

CAUTION: The rotational entropy is not quite correctly treated here
         because it includes a symmetry number that is not yet correctly
         implemented in ORCA!
For a nonlinear molecule the correct rotational entropy is:
    S(rot) = R*(ln(qrot/sn)+1.5)
    R    = 8.31441 J/mol/K = 1.987191683e-3 kcal/mol/K
    qrot = 199353.6650828
    sn is the rotational symmetry number. We have assumed 3 here
       if it is different for your molecule then you should correct
       the printed rotational entropy by manually evaluating the equation
       as given above

For convenience we print out the resulting values for sn=1 - 12:
 sn= 1  qrot/sn=  199353.6651 T*S(rot)=     8.12 kcal/mol T*S(tot)=    23.80 kcal/mol
 sn= 2  qrot/sn=   99676.8325 T*S(rot)=     7.71 kcal/mol T*S(tot)=    23.38 kcal/mol
 sn= 3  qrot/sn=   66451.2217 T*S(rot)=     7.47 kcal/mol T*S(tot)=    23.14 kcal/mol
 sn= 4  qrot/sn=   49838.4163 T*S(rot)=     7.30 kcal/mol T*S(tot)=    22.97 kcal/mol
 sn= 5  qrot/sn=   39870.7330 T*S(rot)=     7.17 kcal/mol T*S(tot)=    22.84 kcal/mol
 sn= 6  qrot/sn=   33225.6108 T*S(rot)=     7.06 kcal/mol T*S(tot)=    22.73 kcal/mol
 sn= 7  qrot/sn=   28479.0950 T*S(rot)=     6.97 kcal/mol T*S(tot)=    22.64 kcal/mol
 sn= 8  qrot/sn=   24919.2081 T*S(rot)=     6.89 kcal/mol T*S(tot)=    22.56 kcal/mol
 sn= 9  qrot/sn=   22150.4072 T*S(rot)=     6.82 kcal/mol T*S(tot)=    22.49 kcal/mol
 sn=10  qrot/sn=   19935.3665 T*S(rot)=     6.75 kcal/mol T*S(tot)=    22.43 kcal/mol
 sn=11  qrot/sn=   18123.0605 T*S(rot)=     6.70 kcal/mol T*S(tot)=    22.37 kcal/mol
 sn=12  qrot/sn=   16612.8054 T*S(rot)=     6.65 kcal/mol T*S(tot)=    22.32 kcal/mol

-------------------
GIBBS FREE ENTHALPY
-------------------

The Gibbs free enthalpy is G = H - T*S

Total enthalpy                    ...   -361.77711475 Eh
Total entropy correction          ...     -0.03688283 Eh    -23.14 kcal/mol
-----------------------------------------------------------------------
Final Gibbs free enthalpy         ...   -361.81399758 Eh

For completeness - the Gibbs free enthalpy minus the electronic energy
G-E(el)                           ...      0.10100692 Eh     63.38 kcal/mol

                             ****ORCA TERMINATED NORMALLY****
TOTAL RUN TIME: 0 days 0 hours 28 minutes 43 seconds 782 msec
