                         Program Version 3.0.3 - RELEASE   -
|  1> ! NORI PBE0 def2-TZVP UseSym TightOPT Freq TightSCF Grid3 FinalGrid5 XYZFile
|  2> % pal
|  3>     nprocs 8
|  4> end
|  5> %method
|  6>     SymThresh 5.0e-2
|  7> end
|  8> % geom
|  9>     MaxIter 10
| 10> end
| 11> % maxcore 2000
| 12> % output
| 13>     printlevel mini
| 14>     print[ P_Basis ] 0
| 15>     print[ P_SCFInfo ] 1
| 16>     print[ P_SCFIterInfo ] 1
| 17>     print[ P_OrbEn ] 0
| 18>     print[ P_Cartesian ] 0
| 19> end
| 20> % elprop
| 21>     Dipole false
| 22> end
| 23> *xyz 1 1
| 24>  N        3.8308039078     0.1030095086     0.8910648845
| 25>  C        2.6393750029    -0.0182357502    -0.0756637190
| 26>  C        2.9245207885     0.6330571619    -1.3564532397
| 27>  C        3.0899206939    -0.0072879383    -2.5248342566
| 28>  O        3.2302208920     0.7677601276    -3.5860126978
| 29>  C        3.2879993980     2.1411520998    -3.1235504472
| 30>  C        2.8702257328     2.1159383956    -1.6449576770
| 31>  H        3.6493332222    -0.3474748130     1.7908946747
| 32>  H        4.0483888774     1.0850053387     1.0658803163
| 33>  H        4.6592019379    -0.3225432427     0.4709600513
| 34>  H        2.4613843364    -1.0883838743    -0.1819890355
| 35>  H        1.8009239035     0.4283369760     0.4649653149
| 36>  H        3.0913371535    -1.0733370119    -2.7240291548
| 37>  H        2.6316542203     2.7287423230    -3.7618224096
| 38>  H        4.3168545479     2.4790005765    -3.2578606020
| 39>  H        1.8601420623     2.5114684556    -1.4914033183
| 40>  H        3.5494033227     2.7250516670    -1.0412386843
| 41> *
| 42>
| 43>                          ****END OF INPUT****
 Total Charge           Charge          ....    1
 Multiplicity           Mult            ....    1
 Number of Electrons    NEL             ....   54
FINAL SINGLE POINT ENERGY      -326.001753112954

CARTESIAN COORDINATES (ANGSTROEM)
---------------------------------
  N      1.089697    0.000648   -2.428487
  C      0.283404    0.932927   -1.506613
  C     -0.025841    0.283545   -0.230386
  C      0.490187    0.637796    0.957324
  O      0.000630   -0.000312    2.006031
  C     -0.901925   -1.024584    1.516223
  C     -1.117062   -0.731559    0.023207
  H      1.315370    0.439143   -3.324408
  H      0.564422   -0.854428   -2.617028
  H      1.959642   -0.271558   -1.966720
  H      0.901581    1.822304   -1.383252
  H     -0.603077    1.195736   -2.089827
  H      1.230252    1.398417    1.179665
  H     -1.808875   -0.974391    2.115052
  H     -0.413251   -1.985833    1.683685
  H     -2.106450   -0.306867   -0.178905
  H     -1.034441   -1.649401   -0.566180

FINAL SINGLE POINT ENERGY      -326.001753619200
                    ***********************HURRAY********************
 Multiplicity           Mult            ....    1
 Number of Electrons    NEL             ....   54
 Basis Dimension        Dim             ....  277
FINAL SINGLE POINT ENERGY      -326.001753926865

VIBRATIONAL FREQUENCIES
-----------------------

   0:         0.00 cm**-1
   1:         0.00 cm**-1
   2:         0.00 cm**-1
   3:         0.00 cm**-1
   4:         0.00 cm**-1
   5:         0.00 cm**-1
   6:        96.69 cm**-1
   7:        97.72 cm**-1
   8:       161.33 cm**-1
   9:       193.24 cm**-1
  10:       327.28 cm**-1
  11:       396.91 cm**-1
  12:       489.16 cm**-1
  13:       607.27 cm**-1
  14:       750.93 cm**-1
  15:       799.33 cm**-1
  16:       825.56 cm**-1
  17:       847.51 cm**-1
  18:       907.22 cm**-1
  19:       954.17 cm**-1
  20:       959.63 cm**-1
  21:       997.21 cm**-1
  22:      1044.16 cm**-1
  23:      1061.38 cm**-1
  24:      1101.15 cm**-1
  25:      1210.79 cm**-1
  26:      1227.04 cm**-1
  27:      1247.37 cm**-1
  28:      1283.35 cm**-1
  29:      1303.35 cm**-1
  30:      1328.86 cm**-1
  31:      1350.73 cm**-1
  32:      1402.71 cm**-1
  33:      1431.36 cm**-1
  34:      1477.53 cm**-1
  35:      1479.80 cm**-1
  36:      1491.60 cm**-1
  37:      1516.47 cm**-1
  38:      1646.36 cm**-1
  39:      1660.45 cm**-1
  40:      1696.44 cm**-1
  41:      3044.66 cm**-1
  42:      3076.80 cm**-1
  43:      3079.67 cm**-1
  44:      3097.46 cm**-1
  45:      3150.47 cm**-1
  46:      3164.87 cm**-1
  47:      3225.04 cm**-1
  48:      3414.47 cm**-1
  49:      3507.92 cm**-1
  50:      3517.56 cm**-1

IR SPECTRUM
-----------

 Mode    freq (cm**-1)   T**2         TX         TY         TZ
-------------------------------------------------------------------
   6:        96.69    5.203005  (  1.490750   0.996238   1.410028)
   7:        97.72    3.447856  ( -1.081558   1.396170  -0.573407)
   8:       161.33    7.348797  ( -0.684953  -1.832968   1.876130)
   9:       193.24    0.114654  (  0.132007  -0.235603   0.204254)
  10:       327.28    1.255558  (  0.376429  -0.677218   0.809465)
  11:       396.91    7.254133  ( -0.862671  -0.142762   2.547460)
  12:       489.16   27.318053  ( -3.815996   2.927362   2.046164)
  13:       607.27    0.612072  ( -0.608152   0.482034   0.099333)
  14:       750.93    2.658050  ( -1.525065  -0.179814  -0.547625)
  15:       799.33  113.105179  ( -3.851618   0.105443   9.912573)
  16:       825.56    3.756287  (  1.685069   0.887096  -0.360401)
  17:       847.51   15.466349  (  1.775902   1.923327   2.934849)
  18:       907.22    3.224809  ( -0.112867  -1.649829   0.700095)
  19:       954.17   26.440949  (  2.819728   4.149173   1.128913)
  20:       959.63   12.225465  ( -2.887034   1.487520  -1.295292)
  21:       997.21   17.388079  ( -2.027760  -1.708700  -3.218169)
  22:      1044.16   17.031101  (  0.368189  -1.782581   3.703774)
  23:      1061.38    1.292873  ( -0.449706   0.028204  -1.043955)
  24:      1101.15    7.109421  ( -0.995748   2.473377   0.017643)
  25:      1210.79   81.403078  (  3.451421   1.357572  -8.224826)
  26:      1227.04  145.189508  ( -2.282121  -5.677379  10.380212)
  27:      1247.37    0.674639  ( -0.083840   0.367983  -0.729519)
  28:      1283.35    8.669054  (  0.291727   0.924526  -2.780144)
  29:      1303.35    7.392520  (  1.431992   1.403819  -1.836086)
  30:      1328.86   15.647135  ( -1.084605  -0.833125  -3.711694)
  31:      1350.73    8.214891  ( -1.046834  -0.830021   2.535763)
  32:      1402.71   46.062969  (  1.655167   0.806908  -6.532403)
  33:      1431.36    2.833141  ( -0.784014  -1.158393   0.936264)
  34:      1477.53  129.741816  (  6.130895  -4.777107  -8.326655)
  35:      1479.80   41.379441  (  2.794400  -5.620045  -1.409208)
  36:      1491.60    1.968674  (  0.538431   0.087198   1.292735)
  37:      1516.47    5.938301  ( -0.736514  -2.063351   1.066974)
  38:      1646.36   50.919704  ( -6.211571  -3.510666  -0.106343)
  39:      1660.45   40.778305  (  0.562523  -3.140357   5.531729)
  40:      1696.44  200.056723  ( -0.849323  -1.025207  14.081347)
  41:      3044.66   16.294142  ( -2.947337  -1.347782  -2.406414)
  42:      3076.80    4.083169  ( -0.951129   1.765349   0.249130)
  43:      3079.67   12.152537  ( -0.334062  -0.886366   3.354891)
  44:      3097.46   20.016909  ( -0.094506  -4.192111   1.560188)
  45:      3150.47    0.304892  (  0.441484   0.246520   0.221837)
  46:      3164.87    3.925913  (  1.728101  -0.644522  -0.723996)
  47:      3225.04    1.157963  ( -0.015122   0.273352  -1.040679)
  48:      3414.47   27.912622  ( -3.111643   2.044740   3.748245)
  49:      3507.92   72.306781  (  2.973913  -5.134816   6.090672)
  50:      3517.56   81.935322  ( -6.933827  -5.513339  -1.860229)

--------------------------
THERMOCHEMISTRY AT 298.15K
--------------------------

Temperature         ... 298.15 K
Pressure            ... 1.00 atm
Total Mass          ... 100.14 AMU

Throughout the following assumptions are being made:
  (1) The electronic state is orbitally nondegenerate
  (2) There are no thermally accessible electronically excited states
  (3) Hindered rotations indicated by low frequency modes) are not
      treated as such but are treated as vibrations and this may
      case some error
  (4) All equations used are the standard statistical mechanics
      equations for an ideal gas
  (5) All vibrations are strinctly harmonic

------------
INNER ENERGY
------------

The inner energy is: U= E(el) + E(ZPE) + E(vib) + E(rot) + E(trans)
    E(el)   - is the total energy from the electronic structure calculation
              = E(kin-el) + E(nuc-el) + E(el-el) + E(nuc-nuc)
    E(ZPE)  - the the zero temperature vibrational energy from the frequency calculation
    E(vib)  - the the finite temperature correction to E(ZPE) due to population
              of excietd vibrational states
    E(rot)  - is the rotational thermal energy
    E(trans)- is the translational thermal energy

Summary of contributions to the inner energy U:
Electronic energy                ...   -326.00175393 Eh
Zero point energy                ...      0.15412025 Eh      96.71 kcal/mol
Thermal vibrational correction   ...      0.00446302 Eh       2.80 kcal/mol
Thermal rotational correction    ...      0.00141627 Eh       0.89 kcal/mol
Thermal translational correction ...      0.00141627 Eh       0.89 kcal/mol
-----------------------------------------------------------------------
Total thermal energy                   -325.84033812 Eh

Summary of corrections to the electronic energy:
(perhaps to be used in another calculation)
Total thermal correction                  0.00729556 Eh       4.58 kcal/mol
Non-thermal (ZPE) correction              0.15412025 Eh      96.71 kcal/mol
-----------------------------------------------------------------------
Total correction                          0.16141581 Eh     101.29 kcal/mol

--------
ENTHALPY
--------

The enthalpy is H = U + kB*T
                kB is Boltzmann's constant
Total free energy                 ...   -325.84033812 Eh
Thermal Enthalpy correction       ...      0.00094421 Eh       0.59 kcal/mol
-----------------------------------------------------------------------
Total Enthalpy                    ...   -325.83939391 Eh

-------
ENTROPY
-------

The entropy contributions are T*S = T*(S(el)+S(vib)+S(rot)+S(trans)
     S(el)   - electronic entropy
     S(vib)  - vibrational entropy
     S(rot)  - rotational entropy
     S(trans)- translational entropy
The entropies will be listed as mutliplied by the temperature to get
units of energy

Electronic entropy                ...      0.00000000 Eh      0.00 kcal/mol
Vibrational entropy               ...      0.00803847 Eh      5.04 kcal/mol
Rotational entropy                ...      0.01201978 Eh      7.54 kcal/mol
Translational entropy             ...      0.01887324 Eh     11.84 kcal/mol
-----------------------------------------------------------------------
Final entropy term                ...      0.03893149 Eh     24.43 kcal/mol

CAUTION: The rotational entropy is not quite correctly treated here
         because it includes a symmetry number that is not yet correctly
         implemented in ORCA!
For a nonlinear molecule the correct rotational entropy is:
    S(rot) = R*(ln(qrot/sn)+1.5)
    R    = 8.31441 J/mol/K = 1.987191683e-3 kcal/mol/K
    qrot = 226158.2600914
    sn is the rotational symmetry number. We have assumed 3 here
       if it is different for your molecule then you should correct
       the printed rotational entropy by manually evaluating the equation
       as given above

For convenience we print out the resulting values for sn=1 - 12:
 sn= 1  qrot/sn=  226158.2601 T*S(rot)=     8.19 kcal/mol T*S(tot)=    25.08 kcal/mol
 sn= 2  qrot/sn=  113079.1300 T*S(rot)=     7.78 kcal/mol T*S(tot)=    24.67 kcal/mol
 sn= 3  qrot/sn=   75386.0867 T*S(rot)=     7.54 kcal/mol T*S(tot)=    24.43 kcal/mol
 sn= 4  qrot/sn=   56539.5650 T*S(rot)=     7.37 kcal/mol T*S(tot)=    24.26 kcal/mol
 sn= 5  qrot/sn=   45231.6520 T*S(rot)=     7.24 kcal/mol T*S(tot)=    24.13 kcal/mol
 sn= 6  qrot/sn=   37693.0433 T*S(rot)=     7.13 kcal/mol T*S(tot)=    24.02 kcal/mol
 sn= 7  qrot/sn=   32308.3229 T*S(rot)=     7.04 kcal/mol T*S(tot)=    23.93 kcal/mol
 sn= 8  qrot/sn=   28269.7825 T*S(rot)=     6.96 kcal/mol T*S(tot)=    23.85 kcal/mol
 sn= 9  qrot/sn=   25128.6956 T*S(rot)=     6.89 kcal/mol T*S(tot)=    23.78 kcal/mol
 sn=10  qrot/sn=   22615.8260 T*S(rot)=     6.83 kcal/mol T*S(tot)=    23.72 kcal/mol
 sn=11  qrot/sn=   20559.8418 T*S(rot)=     6.77 kcal/mol T*S(tot)=    23.66 kcal/mol
 sn=12  qrot/sn=   18846.5217 T*S(rot)=     6.72 kcal/mol T*S(tot)=    23.61 kcal/mol

-------------------
GIBBS FREE ENTHALPY
-------------------

The Gibbs free enthalpy is G = H - T*S

Total enthalpy                    ...   -325.83939391 Eh
Total entropy correction          ...     -0.03893149 Eh    -24.43 kcal/mol
-----------------------------------------------------------------------
Final Gibbs free enthalpy         ...   -325.87832540 Eh

For completeness - the Gibbs free enthalpy minus the electronic energy
G-E(el)                           ...      0.12342853 Eh     77.45 kcal/mol

                             ****ORCA TERMINATED NORMALLY****
TOTAL RUN TIME: 0 days 0 hours 34 minutes 11 seconds 342 msec
