                         Program Version 3.0.3 - RELEASE   -
|  1> ! NORI PBE0 def2-TZVP UseSym TightOPT Freq TightSCF Grid3 FinalGrid5 XYZFile
|  2> % pal
|  3>     nprocs 8
|  4> end
|  5> %method
|  6>     SymThresh 5.0e-2
|  7> end
|  8> % geom
|  9>     MaxIter 10
| 10> end
| 11> % maxcore 2000
| 12> % output
| 13>     printlevel mini
| 14>     print[ P_Basis ] 0
| 15>     print[ P_SCFInfo ] 1
| 16>     print[ P_SCFIterInfo ] 1
| 17>     print[ P_OrbEn ] 0
| 18>     print[ P_Cartesian ] 0
| 19> end
| 20> % elprop
| 21>     Dipole false
| 22> end
| 23> *xyz 1 1
| 24>  N        1.3782668872     0.8545257027    -1.0773242309
| 25>  C        2.2259127315     0.0430922695    -0.1302461775
| 26>  C        2.9902900804    -0.9762217708    -0.9190687143
| 27>  C        4.0585694152    -0.4064864684    -1.8095821856
| 28>  O        3.4525851126     0.5751250052    -2.6581384521
| 29>  C        3.2617968201    -2.3035900392    -0.2770427033
| 30>  C        2.2485799351    -2.2130166751    -1.3663769271
| 31>  H        0.9667573405     1.6770780271    -0.6382763255
| 32>  H        0.6299466976     0.2832290141    -1.4703572366
| 33>  H        2.0121665580     1.1226546461    -1.8622696514
| 34>  H        1.5653697171    -0.4111477435     0.6079689354
| 35>  H        2.8854435077     0.7518098878     0.3755710543
| 36>  H        4.8461533370     0.0612332507    -1.2065587077
| 37>  H        4.5078255032    -1.2031211567    -2.4089978604
| 38>  H        4.1111165530     0.9773760502    -3.2320794393
| 39>  H        4.2132183141    -2.7717759159    -0.4966190813
| 40>  H        2.9155971256    -2.4607664572     0.7368581601
| 41>  H        2.4962081218    -2.6176792187    -2.3392194991
| 42>  H        1.2056362423    -2.3241784077    -1.0894109576
| 43> *
| 44>
| 45>                          ****END OF INPUT****
 Total Charge           Charge          ....    1
 Multiplicity           Mult            ....    1
 Number of Electrons    NEL             ....   56
FINAL SINGLE POINT ENERGY      -327.216962867133
FINAL SINGLE POINT ENERGY      -327.216963750582
FINAL SINGLE POINT ENERGY      -327.216964311846

CARTESIAN COORDINATES (ANGSTROEM)
---------------------------------
  N      1.981873    0.002095    0.225465
  C      0.973435    0.692176   -0.658394
  C     -0.378785    0.098871   -0.402049
  C     -0.952188    0.406405    0.953059
  O     -0.000038   -0.003256    1.941691
  C     -1.336836    0.009615   -1.551829
  C     -0.689418   -1.233125   -1.041968
  H      2.887858    0.468947    0.235215
  H      2.115128   -0.965815   -0.067977
  H      1.555285   -0.015578    1.178167
  H      1.292481    0.570282   -1.693308
  H      1.013387    1.752502   -0.400030
  H     -1.146091    1.481403    1.049028
  H     -1.895656   -0.129707    1.087825
  H     -0.324301    0.194965    2.825034
  H     -2.385140    0.170150   -1.333250
  H     -1.020048    0.399499   -2.511084
  H     -1.288194   -1.932285   -0.472241
  H      0.063643   -1.698150   -1.668881

FINAL SINGLE POINT ENERGY      -327.216964710847
                    ***********************HURRAY********************
 Multiplicity           Mult            ....    1
 Number of Electrons    NEL             ....   56
 Basis Dimension        Dim             ....  289
FINAL SINGLE POINT ENERGY      -327.216964778552

VIBRATIONAL FREQUENCIES
-----------------------

   0:         0.00 cm**-1
   1:         0.00 cm**-1
   2:         0.00 cm**-1
   3:         0.00 cm**-1
   4:         0.00 cm**-1
   5:         0.00 cm**-1
   6:       113.13 cm**-1
   7:       148.81 cm**-1
   8:       265.32 cm**-1
   9:       296.02 cm**-1
  10:       302.92 cm**-1
  11:       315.64 cm**-1
  12:       351.32 cm**-1
  13:       372.93 cm**-1
  14:       430.75 cm**-1
  15:       535.40 cm**-1
  16:       737.25 cm**-1
  17:       791.05 cm**-1
  18:       865.39 cm**-1
  19:       900.79 cm**-1
  20:       940.25 cm**-1
  21:       950.14 cm**-1
  22:       962.05 cm**-1
  23:      1000.25 cm**-1
  24:      1043.80 cm**-1
  25:      1048.31 cm**-1
  26:      1066.40 cm**-1
  27:      1104.48 cm**-1
  28:      1129.33 cm**-1
  29:      1144.35 cm**-1
  30:      1192.39 cm**-1
  31:      1226.80 cm**-1
  32:      1259.93 cm**-1
  33:      1321.21 cm**-1
  34:      1342.69 cm**-1
  35:      1381.26 cm**-1
  36:      1420.29 cm**-1
  37:      1453.01 cm**-1
  38:      1465.69 cm**-1
  39:      1487.81 cm**-1
  40:      1506.28 cm**-1
  41:      1507.82 cm**-1
  42:      1518.15 cm**-1
  43:      1633.99 cm**-1
  44:      1674.53 cm**-1
  45:      3036.92 cm**-1
  46:      3087.34 cm**-1
  47:      3097.31 cm**-1
  48:      3098.72 cm**-1
  49:      3148.57 cm**-1
  50:      3155.89 cm**-1
  51:      3162.33 cm**-1
  52:      3236.34 cm**-1
  53:      3250.68 cm**-1
  54:      3475.56 cm**-1
  55:      3539.60 cm**-1
  56:      3860.31 cm**-1

IR SPECTRUM
-----------

 Mode    freq (cm**-1)   T**2         TX         TY         TZ
-------------------------------------------------------------------
   6:       113.13    7.862596  ( -0.831698  -2.553064  -0.807924)
   7:       148.81    2.558771  ( -0.047970   0.792254   1.388814)
   8:       265.32    6.824882  ( -2.212141   1.235095   0.637068)
   9:       296.02   14.385307  (  0.476012  -2.980835  -2.296375)
  10:       302.92   51.986182  ( -5.464977  -2.001626   4.256019)
  11:       315.64   70.586341  ( -1.816512  -8.050567   1.573211)
  12:       351.32   36.749097  ( -2.830426  -5.291019   0.861921)
  13:       372.93    1.516046  ( -0.033889  -0.736139  -0.986406)
  14:       430.75   17.970596  ( -3.478650  -1.507127  -1.896881)
  15:       535.40    9.761365  ( -1.436144   1.005275   2.586170)
  16:       737.25    5.591895  ( -1.606474  -0.669718   1.600817)
  17:       791.05    0.490511  (  0.383059  -0.048339  -0.584329)
  18:       865.39   25.566717  ( -0.583391   1.716933   4.720012)
  19:       900.79    7.951092  ( -1.762572  -0.533937   2.135262)
  20:       940.25    7.578885  ( -1.311435   1.478956  -1.916171)
  21:       950.14    9.834806  (  1.329095   0.653226   2.764346)
  22:       962.05    9.783375  ( -2.893510   0.956477  -0.704364)
  23:      1000.25   12.287119  (  1.925544   2.926962  -0.110879)
  24:      1043.80    4.847268  (  2.161889   0.400041   0.116059)
  25:      1048.31   58.636715  ( -5.759991   1.372784  -4.855376)
  26:      1066.40   29.576547  (  3.002842   0.399400   4.516632)
  27:      1104.48    3.399580  (  0.087331  -1.834947   0.157876)
  28:      1129.33   24.722060  ( -2.720535  -1.123072   4.007425)
  29:      1144.35   17.665004  ( -3.527596  -1.992626   1.118263)
  30:      1192.39    0.794027  (  0.285980   0.533648  -0.653806)
  31:      1226.80   46.220346  ( -4.487405   2.897543  -4.205685)
  32:      1259.93   19.177503  (  3.079519  -0.409269   3.086513)
  33:      1321.21   16.422405  ( -0.590417  -0.570015  -3.968488)
  34:      1342.69    2.655440  ( -1.442904   0.018421  -0.757053)
  35:      1381.26    1.282365  (  0.359516  -0.920675  -0.552694)
  36:      1420.29    8.771064  ( -2.639002  -1.320047  -0.253391)
  37:      1453.01   22.516875  ( -3.368057  -1.456334  -3.008680)
  38:      1465.69   13.089458  ( -1.936202   2.253942  -2.064055)
  39:      1487.81   15.342733  (  0.466317  -2.831784   2.665761)
  40:      1506.28  139.205871  (-10.920657   3.425116  -2.865954)
  41:      1507.82   37.879980  ( -5.731060   2.243812  -0.015621)
  42:      1518.15   20.202791  ( -4.131193   1.739855  -0.330061)
  43:      1633.99   19.469054  (  0.141766  -3.946089  -1.969095)
  44:      1674.53   36.401263  ( -4.959144  -3.192561   1.271103)
  45:      3036.92   31.230634  (  4.129133  -3.526381  -1.321186)
  46:      3087.34  216.777134  (  9.210804   1.483569 -11.390226)
  47:      3097.31  176.726272  (  8.450128   0.123215 -10.261892)
  48:      3098.72   45.866472  (  1.903777  -2.642560  -5.937927)
  49:      3148.57    4.088219  (  1.616877  -1.078866  -0.556753)
  50:      3155.89    2.180970  ( -1.079789  -0.810102   0.598967)
  51:      3162.33    0.559100  ( -0.238987   0.434513  -0.559628)
  52:      3236.34    0.669485  ( -0.688328   0.326783   0.298164)
  53:      3250.68    0.559443  (  0.491940  -0.043611  -0.561726)
  54:      3475.56   74.888524  (  7.603442  -2.979132  -2.863731)
  55:      3539.60   79.863503  ( -5.128814  -7.227722  -1.148391)
  56:      3860.31  113.164582  (  1.808837  -1.155199 -10.419127)

--------------------------
THERMOCHEMISTRY AT 298.15K
--------------------------

Temperature         ... 298.15 K
Pressure            ... 1.00 atm
Total Mass          ... 102.16 AMU

Throughout the following assumptions are being made:
  (1) The electronic state is orbitally nondegenerate
  (2) There are no thermally accessible electronically excited states
  (3) Hindered rotations indicated by low frequency modes) are not
      treated as such but are treated as vibrations and this may
      case some error
  (4) All equations used are the standard statistical mechanics
      equations for an ideal gas
  (5) All vibrations are strinctly harmonic

------------
INNER ENERGY
------------

The inner energy is: U= E(el) + E(ZPE) + E(vib) + E(rot) + E(trans)
    E(el)   - is the total energy from the electronic structure calculation
              = E(kin-el) + E(nuc-el) + E(el-el) + E(nuc-nuc)
    E(ZPE)  - the the zero temperature vibrational energy from the frequency calculation
    E(vib)  - the the finite temperature correction to E(ZPE) due to population
              of excietd vibrational states
    E(rot)  - is the rotational thermal energy
    E(trans)- is the translational thermal energy

Summary of contributions to the inner energy U:
Electronic energy                ...   -327.21696478 Eh
Zero point energy                ...      0.17623335 Eh     110.59 kcal/mol
Thermal vibrational correction   ...      0.00497892 Eh       3.12 kcal/mol
Thermal rotational correction    ...      0.00141627 Eh       0.89 kcal/mol
Thermal translational correction ...      0.00141627 Eh       0.89 kcal/mol
-----------------------------------------------------------------------
Total thermal energy                   -327.03291996 Eh

Summary of corrections to the electronic energy:
(perhaps to be used in another calculation)
Total thermal correction                  0.00781147 Eh       4.90 kcal/mol
Non-thermal (ZPE) correction              0.17623335 Eh     110.59 kcal/mol
-----------------------------------------------------------------------
Total correction                          0.18404482 Eh     115.49 kcal/mol

--------
ENTHALPY
--------

The enthalpy is H = U + kB*T
                kB is Boltzmann's constant
Total free energy                 ...   -327.03291996 Eh
Thermal Enthalpy correction       ...      0.00094421 Eh       0.59 kcal/mol
-----------------------------------------------------------------------
Total Enthalpy                    ...   -327.03197575 Eh

-------
ENTROPY
-------

The entropy contributions are T*S = T*(S(el)+S(vib)+S(rot)+S(trans)
     S(el)   - electronic entropy
     S(vib)  - vibrational entropy
     S(rot)  - rotational entropy
     S(trans)- translational entropy
The entropies will be listed as mutliplied by the temperature to get
units of energy

Electronic entropy                ...      0.00000000 Eh      0.00 kcal/mol
Vibrational entropy               ...      0.00819749 Eh      5.14 kcal/mol
Rotational entropy                ...      0.01204135 Eh      7.56 kcal/mol
Translational entropy             ...      0.01890147 Eh     11.86 kcal/mol
-----------------------------------------------------------------------
Final entropy term                ...      0.03914031 Eh     24.56 kcal/mol

CAUTION: The rotational entropy is not quite correctly treated here
         because it includes a symmetry number that is not yet correctly
         implemented in ORCA!
For a nonlinear molecule the correct rotational entropy is:
    S(rot) = R*(ln(qrot/sn)+1.5)
    R    = 8.31441 J/mol/K = 1.987191683e-3 kcal/mol/K
    qrot = 231384.3177414
    sn is the rotational symmetry number. We have assumed 3 here
       if it is different for your molecule then you should correct
       the printed rotational entropy by manually evaluating the equation
       as given above

For convenience we print out the resulting values for sn=1 - 12:
 sn= 1  qrot/sn=  231384.3177 T*S(rot)=     8.21 kcal/mol T*S(tot)=    25.21 kcal/mol
 sn= 2  qrot/sn=  115692.1589 T*S(rot)=     7.80 kcal/mol T*S(tot)=    24.80 kcal/mol
 sn= 3  qrot/sn=   77128.1059 T*S(rot)=     7.56 kcal/mol T*S(tot)=    24.56 kcal/mol
 sn= 4  qrot/sn=   57846.0794 T*S(rot)=     7.39 kcal/mol T*S(tot)=    24.39 kcal/mol
 sn= 5  qrot/sn=   46276.8635 T*S(rot)=     7.25 kcal/mol T*S(tot)=    24.26 kcal/mol
 sn= 6  qrot/sn=   38564.0530 T*S(rot)=     7.15 kcal/mol T*S(tot)=    24.15 kcal/mol
 sn= 7  qrot/sn=   33054.9025 T*S(rot)=     7.05 kcal/mol T*S(tot)=    24.06 kcal/mol
 sn= 8  qrot/sn=   28923.0397 T*S(rot)=     6.97 kcal/mol T*S(tot)=    23.98 kcal/mol
 sn= 9  qrot/sn=   25709.3686 T*S(rot)=     6.91 kcal/mol T*S(tot)=    23.91 kcal/mol
 sn=10  qrot/sn=   23138.4318 T*S(rot)=     6.84 kcal/mol T*S(tot)=    23.85 kcal/mol
 sn=11  qrot/sn=   21034.9380 T*S(rot)=     6.79 kcal/mol T*S(tot)=    23.79 kcal/mol
 sn=12  qrot/sn=   19282.0265 T*S(rot)=     6.73 kcal/mol T*S(tot)=    23.74 kcal/mol

-------------------
GIBBS FREE ENTHALPY
-------------------

The Gibbs free enthalpy is G = H - T*S

Total enthalpy                    ...   -327.03197575 Eh
Total entropy correction          ...     -0.03914031 Eh    -24.56 kcal/mol
-----------------------------------------------------------------------
Final Gibbs free enthalpy         ...   -327.07111606 Eh

For completeness - the Gibbs free enthalpy minus the electronic energy
G-E(el)                           ...      0.14584872 Eh     91.52 kcal/mol

                             ****ORCA TERMINATED NORMALLY****
TOTAL RUN TIME: 0 days 0 hours 49 minutes 19 seconds 884 msec
