                         Program Version 3.0.3 - RELEASE   -
|  1> ! NORI PBE0 def2-TZVP UseSym TightOPT Freq TightSCF Grid3 FinalGrid5 XYZFile
|  2> % pal
|  3>     nprocs 8
|  4> end
|  5> %method
|  6>     SymThresh 5.0e-2
|  7> end
|  8> % geom
|  9>     MaxIter 10
| 10> end
| 11> % maxcore 2000
| 12> % output
| 13>     printlevel mini
| 14>     print[ P_Basis ] 0
| 15>     print[ P_SCFInfo ] 1
| 16>     print[ P_SCFIterInfo ] 1
| 17>     print[ P_OrbEn ] 0
| 18>     print[ P_Cartesian ] 0
| 19> end
| 20> % elprop
| 21>     Dipole false
| 22> end
| 23> *xyz 1 1
| 24>  N        3.2538347008     0.5297457729    -1.0938903904
| 25>  C        2.5997557494    -0.2451425560     0.0109532798
| 26>  C        3.1324668505     0.2315746219     1.3649113354
| 27>  C        2.1332785210    -0.1040828298     2.4792749659
| 28>  O        1.3354071844     1.0801429177     2.6515635745
| 29>  C        2.0546951266     2.0983073936     2.1627465981
| 30>  C        3.1319203912     1.7416440980     1.4554936120
| 31>  H        2.8212750559     0.3566937544    -2.0021727566
| 32>  H        4.2500522448     0.3154918493    -1.1702002267
| 33>  H        3.1605375032     1.5285555985    -0.8619521243
| 34>  H        2.7763408984    -1.3050804598    -0.1762126566
| 35>  H        1.5314213640    -0.0365235092    -0.0712754765
| 36>  H        4.1070168137    -0.2221204342     1.5636743112
| 37>  H        2.6525381264    -0.2979586130     3.4205546126
| 38>  H        1.4637956250    -0.9357787042     2.2589447730
| 39>  H        1.6846739867     3.0861568897     2.4039908258
| 40>  H        3.8943298582     2.4190142102     1.0961057427
| 41> *
| 42>
| 43>                          ****END OF INPUT****
 Total Charge           Charge          ....    1
 Multiplicity           Mult            ....    1
 Number of Electrons    NEL             ....   54
FINAL SINGLE POINT ENERGY      -325.995473877596
FINAL SINGLE POINT ENERGY      -325.995475254096

CARTESIAN COORDINATES (ANGSTROEM)
---------------------------------
  N      0.945519    0.001609   -2.260896
  C      0.541154    0.925261   -1.150114
  C     -0.635832    0.323785   -0.377432
  C     -0.708950    0.922277    1.033021
  O     -0.002742    0.000173    1.881118
  C      0.002099   -1.176962    1.242505
  C     -0.387314   -1.129008   -0.035624
  H      1.818650    0.285052   -2.707260
  H      0.225491   -0.062402   -2.983106
  H      1.067133   -0.934308   -1.850068
  H      0.318474    1.897402   -1.591008
  H      1.415088    1.013893   -0.502938
  H     -1.567102    0.495431   -0.923585
  H     -1.743406    0.971858    1.380284
  H     -0.246109    1.903890    1.138638
  H      0.313553   -2.026159    1.836732
  H     -0.565740   -1.989016   -0.665739

FINAL SINGLE POINT ENERGY      -325.995475799317
                    ***********************HURRAY********************
 Multiplicity           Mult            ....    1
 Number of Electrons    NEL             ....   54
 Basis Dimension        Dim             ....  277
FINAL SINGLE POINT ENERGY      -325.995476179949

VIBRATIONAL FREQUENCIES
-----------------------

   0:         0.00 cm**-1
   1:         0.00 cm**-1
   2:         0.00 cm**-1
   3:         0.00 cm**-1
   4:         0.00 cm**-1
   5:         0.00 cm**-1
   6:        83.43 cm**-1
   7:       141.39 cm**-1
   8:       237.37 cm**-1
   9:       263.56 cm**-1
  10:       357.93 cm**-1
  11:       403.50 cm**-1
  12:       567.23 cm**-1
  13:       721.65 cm**-1
  14:       729.80 cm**-1
  15:       800.74 cm**-1
  16:       850.64 cm**-1
  17:       879.05 cm**-1
  18:       945.50 cm**-1
  19:       953.49 cm**-1
  20:       970.57 cm**-1
  21:       999.15 cm**-1
  22:      1031.73 cm**-1
  23:      1034.69 cm**-1
  24:      1089.94 cm**-1
  25:      1129.12 cm**-1
  26:      1165.18 cm**-1
  27:      1203.99 cm**-1
  28:      1252.41 cm**-1
  29:      1275.91 cm**-1
  30:      1331.60 cm**-1
  31:      1345.43 cm**-1
  32:      1358.41 cm**-1
  33:      1402.24 cm**-1
  34:      1423.99 cm**-1
  35:      1481.59 cm**-1
  36:      1492.52 cm**-1
  37:      1503.15 cm**-1
  38:      1642.73 cm**-1
  39:      1659.35 cm**-1
  40:      1663.22 cm**-1
  41:      3078.80 cm**-1
  42:      3089.22 cm**-1
  43:      3096.97 cm**-1
  44:      3145.55 cm**-1
  45:      3161.40 cm**-1
  46:      3234.76 cm**-1
  47:      3257.17 cm**-1
  48:      3345.06 cm**-1
  49:      3469.92 cm**-1
  50:      3519.37 cm**-1

IR SPECTRUM
-----------

 Mode    freq (cm**-1)   T**2         TX         TY         TZ
-------------------------------------------------------------------
   6:        83.43   15.101448  (  0.159137  -1.306810   3.656278)
   7:       141.39    0.456561  (  0.289042  -0.143300   0.593702)
   8:       237.37   16.212059  ( -2.229001  -1.743704   2.864107)
   9:       263.56    3.029433  (  0.357610  -0.278145  -1.680531)
  10:       357.93    4.090387  (  1.327285   0.720071   1.345437)
  11:       403.50   42.240379  (  4.696310   0.412109  -4.473837)
  12:       567.23    6.038891  ( -2.200380  -1.093516   0.037999)
  13:       721.65   68.305422  (  6.838686   0.269479  -4.633053)
  14:       729.80    9.939486  (  2.104309   0.921484  -2.159221)
  15:       800.74   14.914398  (  0.633105  -0.420524   3.786388)
  16:       850.64    6.267002  (  2.476574   0.108311   0.349072)
  17:       879.05   16.680917  ( -2.273986   1.090944  -3.212436)
  18:       945.50    3.213744  ( -1.094992  -1.347331  -0.446580)
  19:       953.49   15.263657  (  0.057803   1.835622  -3.448305)
  20:       970.57    4.842108  (  2.054937   0.617635   0.487719)
  21:       999.15   17.024038  (  2.284167  -3.195555   1.262952)
  22:      1031.73   22.830432  ( -1.574491  -1.748031   4.158822)
  23:      1034.69   19.322234  ( -1.786630  -1.820598  -3.579889)
  24:      1089.94   27.108963  ( -3.104843  -0.034790   4.179438)
  25:      1129.12    8.598793  ( -0.533382  -2.838157   0.509080)
  26:      1165.18   17.028133  ( -1.883140  -2.870210  -2.289936)
  27:      1203.99  108.544838  ( -2.002783   7.983707   6.387028)
  28:      1252.41    9.753162  ( -0.239460  -2.265252  -2.136458)
  29:      1275.91   17.963534  ( -0.681516   3.065161   2.846727)
  30:      1331.60    0.135974  ( -0.024642  -0.224568   0.291438)
  31:      1345.43    6.603025  ( -0.486153   0.301080  -2.505201)
  32:      1358.41   12.442612  ( -0.032426   1.945273  -2.942359)
  33:      1402.24    5.923249  (  0.280980  -1.944204  -1.436792)
  34:      1423.99    8.240386  (  0.792443  -2.695709   0.587855)
  35:      1481.59  206.798150  (  4.860888  -6.778548 -11.714145)
  36:      1492.52   14.139498  (  2.976518   1.970986  -1.181122)
  37:      1503.15   12.452041  (  2.096310  -2.031516  -1.982541)
  38:      1642.73   26.233838  (  3.645029  -2.593632  -2.494128)
  39:      1659.35   52.358404  ( -2.303217  -2.884395   6.223653)
  40:      1663.22   83.014281  (  3.584392   1.755463   8.190529)
  41:      3078.80    5.363021  ( -0.406899   0.937297   2.078203)
  42:      3089.22   13.295479  (  2.244017  -2.805448   0.623961)
  43:      3096.97    1.302730  (  0.859655   0.744663  -0.095914)
  44:      3145.55    5.227217  ( -1.472199  -1.660254   0.550821)
  45:      3161.40    1.475350  ( -0.056108   0.772500  -0.935653)
  46:      3234.76    1.907405  (  0.709915   0.425230   1.105715)
  47:      3257.17    0.734143  (  0.077592   0.740110  -0.424688)
  48:      3345.06   82.442480  ( -1.093943  -6.847003   5.862108)
  49:      3469.92  134.433395  ( -1.143628  -3.380142  11.031779)
  50:      3519.37  106.008438  (  9.957597   2.545142  -0.613963)

--------------------------
THERMOCHEMISTRY AT 298.15K
--------------------------

Temperature         ... 298.15 K
Pressure            ... 1.00 atm
Total Mass          ... 100.14 AMU

Throughout the following assumptions are being made:
  (1) The electronic state is orbitally nondegenerate
  (2) There are no thermally accessible electronically excited states
  (3) Hindered rotations indicated by low frequency modes) are not
      treated as such but are treated as vibrations and this may
      case some error
  (4) All equations used are the standard statistical mechanics
      equations for an ideal gas
  (5) All vibrations are strinctly harmonic

------------
INNER ENERGY
------------

The inner energy is: U= E(el) + E(ZPE) + E(vib) + E(rot) + E(trans)
    E(el)   - is the total energy from the electronic structure calculation
              = E(kin-el) + E(nuc-el) + E(el-el) + E(nuc-nuc)
    E(ZPE)  - the the zero temperature vibrational energy from the frequency calculation
    E(vib)  - the the finite temperature correction to E(ZPE) due to population
              of excietd vibrational states
    E(rot)  - is the rotational thermal energy
    E(trans)- is the translational thermal energy

Summary of contributions to the inner energy U:
Electronic energy                ...   -325.99547618 Eh
Zero point energy                ...      0.15443791 Eh      96.91 kcal/mol
Thermal vibrational correction   ...      0.00404961 Eh       2.54 kcal/mol
Thermal rotational correction    ...      0.00141627 Eh       0.89 kcal/mol
Thermal translational correction ...      0.00141627 Eh       0.89 kcal/mol
-----------------------------------------------------------------------
Total thermal energy                   -325.83415612 Eh

Summary of corrections to the electronic energy:
(perhaps to be used in another calculation)
Total thermal correction                  0.00688215 Eh       4.32 kcal/mol
Non-thermal (ZPE) correction              0.15443791 Eh      96.91 kcal/mol
-----------------------------------------------------------------------
Total correction                          0.16132006 Eh     101.23 kcal/mol

--------
ENTHALPY
--------

The enthalpy is H = U + kB*T
                kB is Boltzmann's constant
Total free energy                 ...   -325.83415612 Eh
Thermal Enthalpy correction       ...      0.00094421 Eh       0.59 kcal/mol
-----------------------------------------------------------------------
Total Enthalpy                    ...   -325.83321191 Eh

-------
ENTROPY
-------

The entropy contributions are T*S = T*(S(el)+S(vib)+S(rot)+S(trans)
     S(el)   - electronic entropy
     S(vib)  - vibrational entropy
     S(rot)  - rotational entropy
     S(trans)- translational entropy
The entropies will be listed as mutliplied by the temperature to get
units of energy

Electronic entropy                ...      0.00000000 Eh      0.00 kcal/mol
Vibrational entropy               ...      0.00700743 Eh      4.40 kcal/mol
Rotational entropy                ...      0.01192201 Eh      7.48 kcal/mol
Translational entropy             ...      0.01887324 Eh     11.84 kcal/mol
-----------------------------------------------------------------------
Final entropy term                ...      0.03780267 Eh     23.72 kcal/mol

CAUTION: The rotational entropy is not quite correctly treated here
         because it includes a symmetry number that is not yet correctly
         implemented in ORCA!
For a nonlinear molecule the correct rotational entropy is:
    S(rot) = R*(ln(qrot/sn)+1.5)
    R    = 8.31441 J/mol/K = 1.987191683e-3 kcal/mol/K
    qrot = 203910.2288761
    sn is the rotational symmetry number. We have assumed 3 here
       if it is different for your molecule then you should correct
       the printed rotational entropy by manually evaluating the equation
       as given above

For convenience we print out the resulting values for sn=1 - 12:
 sn= 1  qrot/sn=  203910.2289 T*S(rot)=     8.13 kcal/mol T*S(tot)=    24.37 kcal/mol
 sn= 2  qrot/sn=  101955.1144 T*S(rot)=     7.72 kcal/mol T*S(tot)=    23.96 kcal/mol
 sn= 3  qrot/sn=   67970.0763 T*S(rot)=     7.48 kcal/mol T*S(tot)=    23.72 kcal/mol
 sn= 4  qrot/sn=   50977.5572 T*S(rot)=     7.31 kcal/mol T*S(tot)=    23.55 kcal/mol
 sn= 5  qrot/sn=   40782.0458 T*S(rot)=     7.18 kcal/mol T*S(tot)=    23.42 kcal/mol
 sn= 6  qrot/sn=   33985.0381 T*S(rot)=     7.07 kcal/mol T*S(tot)=    23.31 kcal/mol
 sn= 7  qrot/sn=   29130.0327 T*S(rot)=     6.98 kcal/mol T*S(tot)=    23.22 kcal/mol
 sn= 8  qrot/sn=   25488.7786 T*S(rot)=     6.90 kcal/mol T*S(tot)=    23.14 kcal/mol
 sn= 9  qrot/sn=   22656.6921 T*S(rot)=     6.83 kcal/mol T*S(tot)=    23.07 kcal/mol
 sn=10  qrot/sn=   20391.0229 T*S(rot)=     6.77 kcal/mol T*S(tot)=    23.01 kcal/mol
 sn=11  qrot/sn=   18537.2935 T*S(rot)=     6.71 kcal/mol T*S(tot)=    22.95 kcal/mol
 sn=12  qrot/sn=   16992.5191 T*S(rot)=     6.66 kcal/mol T*S(tot)=    22.90 kcal/mol

-------------------
GIBBS FREE ENTHALPY
-------------------

The Gibbs free enthalpy is G = H - T*S

Total enthalpy                    ...   -325.83321191 Eh
Total entropy correction          ...     -0.03780267 Eh    -23.72 kcal/mol
-----------------------------------------------------------------------
Final Gibbs free enthalpy         ...   -325.87101458 Eh

For completeness - the Gibbs free enthalpy minus the electronic energy
G-E(el)                           ...      0.12446160 Eh     78.10 kcal/mol

                             ****ORCA TERMINATED NORMALLY****
TOTAL RUN TIME: 0 days 0 hours 41 minutes 8 seconds 583 msec
