                         Program Version 3.0.3 - RELEASE   -
|  1> ! NORI PBE0 def2-TZVP UseSym TightOPT Freq TightSCF Grid3 FinalGrid5 XYZFile
|  2> % pal
|  3>     nprocs 8
|  4> end
|  5> %method
|  6>     SymThresh 5.0e-2
|  7> end
|  8> % geom
|  9>     MaxIter 10
| 10> end
| 11> % maxcore 2000
| 12> % output
| 13>     printlevel mini
| 14>     print[ P_Basis ] 0
| 15>     print[ P_SCFInfo ] 1
| 16>     print[ P_SCFIterInfo ] 1
| 17>     print[ P_OrbEn ] 0
| 18>     print[ P_Cartesian ] 0
| 19> end
| 20> % elprop
| 21>     Dipole false
| 22> end
| 23> *xyz 1 1
| 24>  N        1.5693459656    -0.4888208122    -1.1863330474
| 25>  C        2.0312416119     0.1922230891     0.0705363679
| 26>  C        2.6182785517     1.4876842822    -0.3670355062
| 27>  C        2.7832399839     2.6867781529     0.2277193756
| 28>  O        3.4440760083     3.4767556060    -0.6502826837
| 29>  C        3.6405668235     2.7293702904    -1.7371964122
| 30>  N        3.1719351902     1.5319682263    -1.6309420568
| 31>  H        1.5549031749    -1.5053467500    -1.1075935906
| 32>  H        2.2387813655    -0.1840467491    -1.9221614597
| 33>  H        0.6418913227    -0.1705275130    -1.4705373570
| 34>  H        2.7817105032    -0.4613313129     0.5210950831
| 35>  H        1.1936126560     0.2949974092     0.7584501679
| 36>  H        2.5291952292     3.1130904255     1.1833426900
| 37>  H        4.1497816133     3.1809756557    -2.5745615708
| 38> *
| 39>
| 40>                          ****END OF INPUT****
 Total Charge           Charge          ....    1
 Multiplicity           Mult            ....    1
 Number of Electrons    NEL             ....   52
FINAL SINGLE POINT ENERGY      -340.851135946847

CARTESIAN COORDINATES (ANGSTROEM)
---------------------------------
  N      0.418948    0.000362   -2.395768
  C     -0.515790    0.785904   -1.520944
  C     -0.231723    0.342105   -0.129210
  C     -0.366419    0.920606    1.081560
  O     -0.000012    0.000025    2.003475
  C      0.349608   -1.087042    1.314559
  N      0.232620   -0.947419    0.037191
  H      0.064143   -0.131336   -3.342406
  H      0.537199   -0.914204   -1.914325
  H      1.341280    0.434765   -2.450622
  H     -1.528924    0.521919   -1.831751
  H     -0.361981    1.850725   -1.686648
  H     -0.688842    1.882433    1.443234
  H      0.689429   -1.948065    1.869198

FINAL SINGLE POINT ENERGY      -340.851136275246
                    ***********************HURRAY********************
 Multiplicity           Mult            ....    1
 Number of Electrons    NEL             ....   52
 Basis Dimension        Dim             ....  259
FINAL SINGLE POINT ENERGY      -340.851136355869

VIBRATIONAL FREQUENCIES
-----------------------

   0:         0.00 cm**-1
   1:         0.00 cm**-1
   2:         0.00 cm**-1
   3:         0.00 cm**-1
   4:         0.00 cm**-1
   5:         0.00 cm**-1
   6:        81.53 cm**-1
   7:       215.21 cm**-1
   8:       246.50 cm**-1
   9:       307.45 cm**-1
  10:       464.48 cm**-1
  11:       636.54 cm**-1
  12:       664.77 cm**-1
  13:       718.29 cm**-1
  14:       826.20 cm**-1
  15:       893.04 cm**-1
  16:       899.71 cm**-1
  17:       951.79 cm**-1
  18:       955.19 cm**-1
  19:      1015.22 cm**-1
  20:      1092.60 cm**-1
  21:      1112.51 cm**-1
  22:      1125.07 cm**-1
  23:      1194.73 cm**-1
  24:      1252.21 cm**-1
  25:      1302.96 cm**-1
  26:      1327.04 cm**-1
  27:      1369.24 cm**-1
  28:      1403.82 cm**-1
  29:      1486.00 cm**-1
  30:      1493.84 cm**-1
  31:      1577.28 cm**-1
  32:      1629.72 cm**-1
  33:      1662.98 cm**-1
  34:      1674.31 cm**-1
  35:      3095.33 cm**-1
  36:      3165.00 cm**-1
  37:      3193.49 cm**-1
  38:      3292.43 cm**-1
  39:      3306.56 cm**-1
  40:      3473.93 cm**-1
  41:      3535.88 cm**-1

IR SPECTRUM
-----------

 Mode    freq (cm**-1)   T**2         TX         TY         TZ
-------------------------------------------------------------------
   6:        81.53   11.882917  (  2.487715   2.308348  -0.604748)
   7:       215.21   34.145917  ( -2.210509   1.543023  -5.184462)
   8:       246.50    3.495365  (  0.948735   0.558650  -1.511019)
   9:       307.45   17.107751  ( -1.523725  -2.479760   2.938844)
  10:       464.48   33.145046  ( -1.365420   0.967722   5.508556)
  11:       636.54   23.358227  ( -4.471556  -1.597502   0.900780)
  12:       664.77    8.390060  ( -2.679377  -0.872903  -0.670105)
  13:       718.29    0.977332  (  0.085257  -0.190666  -0.966287)
  14:       826.20   12.882456  ( -3.480369  -0.876555  -0.033721)
  15:       893.04    3.708985  ( -0.599649  -1.560070   0.956863)
  16:       899.71   26.652800  ( -4.462715  -2.492872   0.722882)
  17:       951.79    5.798955  (  0.745525   0.088334   2.288088)
  18:       955.19   46.404280  (  0.963315  -0.699395  -6.707246)
  19:      1015.22    9.879634  (  0.339835  -2.714121  -1.548449)
  20:      1092.60   55.978013  ( -1.497298   3.882882  -6.217663)
  21:      1112.51    9.765458  (  1.309165   0.517581  -2.789920)
  22:      1125.07   25.462068  ( -0.695271  -1.047855  -4.886785)
  23:      1194.73   27.933383  ( -1.823468   4.710830  -1.554486)
  24:      1252.21    6.902361  ( -0.873221   1.500887   1.971595)
  25:      1302.96    1.664231  (  0.264599   0.840088   0.942587)
  26:      1327.04    9.117170  (  0.942300   2.866015   0.123288)
  27:      1369.24    2.491213  (  0.212429   1.563852   0.021302)
  28:      1403.82   15.390827  (  1.372512  -2.513019   2.681748)
  29:      1486.00  217.429695  ( -6.219493   6.046761  11.924105)
  30:      1493.84   46.049709  ( -0.224009  -0.408937  -6.769956)
  31:      1577.28   41.921923  (  1.986981  -0.960249   6.087015)
  32:      1629.72   32.066873  ( -4.640062  -2.938121   1.379905)
  33:      1662.98   16.723030  (  1.205414   1.685824   3.525337)
  34:      1674.31   29.071597  (  2.252752  -2.858104   3.978435)
  35:      3095.33    2.553205  ( -0.123954   0.591254  -1.479276)
  36:      3165.00    5.712803  (  0.676745  -1.203864   1.950777)
  37:      3193.49  202.726802  ( -0.638795   9.473134 -10.610301)
  38:      3292.43   17.409936  ( -1.364860   3.734980  -1.263732)
  39:      3306.56   12.591765  (  0.730238  -2.460798  -2.450100)
  40:      3473.93  108.407322  (  4.914352   3.336120  -8.551419)
  41:      3535.88  105.977524  ( -7.076276  -2.989693  -6.853144)

--------------------------
THERMOCHEMISTRY AT 298.15K
--------------------------

Temperature         ... 298.15 K
Pressure            ... 1.00 atm
Total Mass          ... 99.11 AMU

Throughout the following assumptions are being made:
  (1) The electronic state is orbitally nondegenerate
  (2) There are no thermally accessible electronically excited states
  (3) Hindered rotations indicated by low frequency modes) are not
      treated as such but are treated as vibrations and this may
      case some error
  (4) All equations used are the standard statistical mechanics
      equations for an ideal gas
  (5) All vibrations are strinctly harmonic

------------
INNER ENERGY
------------

The inner energy is: U= E(el) + E(ZPE) + E(vib) + E(rot) + E(trans)
    E(el)   - is the total energy from the electronic structure calculation
              = E(kin-el) + E(nuc-el) + E(el-el) + E(nuc-nuc)
    E(ZPE)  - the the zero temperature vibrational energy from the frequency calculation
    E(vib)  - the the finite temperature correction to E(ZPE) due to population
              of excietd vibrational states
    E(rot)  - is the rotational thermal energy
    E(trans)- is the translational thermal energy

Summary of contributions to the inner energy U:
Electronic energy                ...   -340.85113636 Eh
Zero point energy                ...      0.11992920 Eh      75.26 kcal/mol
Thermal vibrational correction   ...      0.00330078 Eh       2.07 kcal/mol
Thermal rotational correction    ...      0.00141627 Eh       0.89 kcal/mol
Thermal translational correction ...      0.00141627 Eh       0.89 kcal/mol
-----------------------------------------------------------------------
Total thermal energy                   -340.72507383 Eh

Summary of corrections to the electronic energy:
(perhaps to be used in another calculation)
Total thermal correction                  0.00613332 Eh       3.85 kcal/mol
Non-thermal (ZPE) correction              0.11992920 Eh      75.26 kcal/mol
-----------------------------------------------------------------------
Total correction                          0.12606253 Eh      79.11 kcal/mol

--------
ENTHALPY
--------

The enthalpy is H = U + kB*T
                kB is Boltzmann's constant
Total free energy                 ...   -340.72507383 Eh
Thermal Enthalpy correction       ...      0.00094421 Eh       0.59 kcal/mol
-----------------------------------------------------------------------
Total Enthalpy                    ...   -340.72412962 Eh

-------
ENTROPY
-------

The entropy contributions are T*S = T*(S(el)+S(vib)+S(rot)+S(trans)
     S(el)   - electronic entropy
     S(vib)  - vibrational entropy
     S(rot)  - rotational entropy
     S(trans)- translational entropy
The entropies will be listed as mutliplied by the temperature to get
units of energy

Electronic entropy                ...      0.00000000 Eh      0.00 kcal/mol
Vibrational entropy               ...      0.00567521 Eh      3.56 kcal/mol
Rotational entropy                ...      0.01179188 Eh      7.40 kcal/mol
Translational entropy             ...      0.01885862 Eh     11.83 kcal/mol
-----------------------------------------------------------------------
Final entropy term                ...      0.03632571 Eh     22.79 kcal/mol

CAUTION: The rotational entropy is not quite correctly treated here
         because it includes a symmetry number that is not yet correctly
         implemented in ORCA!
For a nonlinear molecule the correct rotational entropy is:
    S(rot) = R*(ln(qrot/sn)+1.5)
    R    = 8.31441 J/mol/K = 1.987191683e-3 kcal/mol/K
    qrot = 177658.5724068
    sn is the rotational symmetry number. We have assumed 3 here
       if it is different for your molecule then you should correct
       the printed rotational entropy by manually evaluating the equation
       as given above

For convenience we print out the resulting values for sn=1 - 12:
 sn= 1  qrot/sn=  177658.5724 T*S(rot)=     8.05 kcal/mol T*S(tot)=    23.45 kcal/mol
 sn= 2  qrot/sn=   88829.2862 T*S(rot)=     7.64 kcal/mol T*S(tot)=    23.03 kcal/mol
 sn= 3  qrot/sn=   59219.5241 T*S(rot)=     7.40 kcal/mol T*S(tot)=    22.79 kcal/mol
 sn= 4  qrot/sn=   44414.6431 T*S(rot)=     7.23 kcal/mol T*S(tot)=    22.62 kcal/mol
 sn= 5  qrot/sn=   35531.7145 T*S(rot)=     7.10 kcal/mol T*S(tot)=    22.49 kcal/mol
 sn= 6  qrot/sn=   29609.7621 T*S(rot)=     6.99 kcal/mol T*S(tot)=    22.38 kcal/mol
 sn= 7  qrot/sn=   25379.7961 T*S(rot)=     6.90 kcal/mol T*S(tot)=    22.29 kcal/mol
 sn= 8  qrot/sn=   22207.3216 T*S(rot)=     6.82 kcal/mol T*S(tot)=    22.21 kcal/mol
 sn= 9  qrot/sn=   19739.8414 T*S(rot)=     6.75 kcal/mol T*S(tot)=    22.14 kcal/mol
 sn=10  qrot/sn=   17765.8572 T*S(rot)=     6.69 kcal/mol T*S(tot)=    22.08 kcal/mol
 sn=11  qrot/sn=   16150.7793 T*S(rot)=     6.63 kcal/mol T*S(tot)=    22.02 kcal/mol
 sn=12  qrot/sn=   14804.8810 T*S(rot)=     6.58 kcal/mol T*S(tot)=    21.97 kcal/mol

-------------------
GIBBS FREE ENTHALPY
-------------------

The Gibbs free enthalpy is G = H - T*S

Total enthalpy                    ...   -340.72412962 Eh
Total entropy correction          ...     -0.03632571 Eh    -22.79 kcal/mol
-----------------------------------------------------------------------
Final Gibbs free enthalpy         ...   -340.76045533 Eh

For completeness - the Gibbs free enthalpy minus the electronic energy
G-E(el)                           ...      0.09068102 Eh     56.90 kcal/mol

                             ****ORCA TERMINATED NORMALLY****
TOTAL RUN TIME: 0 days 0 hours 24 minutes 51 seconds 835 msec
