                         Program Version 3.0.3 - RELEASE   -
|  1> ! NORI PBE0 def2-TZVP UseSym TightOPT Freq TightSCF Grid3 FinalGrid5 XYZFile
|  2> % pal
|  3>     nprocs 8
|  4> end
|  5> %method
|  6>     SymThresh 5.0e-2
|  7> end
|  8> % geom
|  9>     MaxIter 10
| 10> end
| 11> % maxcore 2000
| 12> % output
| 13>     printlevel mini
| 14>     print[ P_Basis ] 0
| 15>     print[ P_SCFInfo ] 1
| 16>     print[ P_SCFIterInfo ] 1
| 17>     print[ P_OrbEn ] 0
| 18>     print[ P_Cartesian ] 0
| 19> end
| 20> % elprop
| 21>     Dipole false
| 22> end
| 23> *xyz 1 1
| 24>  N        0.9557720096    -0.2439135385     0.4337380492
| 25>  C        2.4673253208    -0.1976749104     0.2521529406
| 26>  C        3.0375363333     0.6988450632     1.2534911189
| 27>  C        3.9948482444     0.5659171542     2.1680068462
| 28>  O        4.2451168181     1.7491314865     2.7625998580
| 29>  C        3.1995155796     2.6216100504     2.3488288351
| 30>  O        2.5994885787     2.0075909522     1.2062679710
| 31>  H        0.4867489608    -0.7578251586    -0.3148854510
| 32>  H        0.5998151564     0.7161986321     0.4445582156
| 33>  H        0.7130123404    -0.6718575386     1.3299848067
| 34>  H        2.6222078465     0.1689211219    -0.7666271931
| 35>  H        2.8506683496    -1.2123756503     0.3403812463
| 36>  H        4.6021299501    -0.2792551826     2.4514717640
| 37>  H        2.4587577022     2.7061065553     3.1543487562
| 38>  H        3.6126768096     3.5910209630     2.0752822363
| 39> *
| 40>
| 41>                          ****END OF INPUT****
 Total Charge           Charge          ....    1
 Multiplicity           Mult            ....    1
 Number of Electrons    NEL             ....   54
FINAL SINGLE POINT ENERGY      -361.883122426664

CARTESIAN COORDINATES (ANGSTROEM)
---------------------------------
  N     -0.442530    0.550341   -2.428368
  C     -0.737869   -0.619437   -1.498022
  C     -0.296034   -0.276199   -0.149400
  C     -0.892942   -0.268938    1.039867
  O     -0.000365    0.000853    2.012691
  C      1.185001    0.423024    1.347606
  O      1.049938   -0.000251   -0.010757
  H     -0.615772    0.323528   -3.409769
  H      0.542165    0.810778   -2.321474
  H     -1.005355    1.364946   -2.173746
  H     -0.179655   -1.463328   -1.913266
  H     -1.805285   -0.826695   -1.542385
  H     -1.908243   -0.485237    1.332886
  H      1.252094    1.517580    1.388178
  H      2.053210   -0.053216    1.800396

FINAL SINGLE POINT ENERGY      -361.883123069582
                    ***********************HURRAY********************
 Multiplicity           Mult            ....    1
 Number of Electrons    NEL             ....   54
 Basis Dimension        Dim             ....  265
FINAL SINGLE POINT ENERGY      -361.883123628446

VIBRATIONAL FREQUENCIES
-----------------------

   0:         0.00 cm**-1
   1:         0.00 cm**-1
   2:         0.00 cm**-1
   3:         0.00 cm**-1
   4:         0.00 cm**-1
   5:         0.00 cm**-1
   6:        88.96 cm**-1
   7:       127.81 cm**-1
   8:       147.34 cm**-1
   9:       212.73 cm**-1
  10:       335.10 cm**-1
  11:       405.62 cm**-1
  12:       559.30 cm**-1
  13:       670.39 cm**-1
  14:       754.90 cm**-1
  15:       839.45 cm**-1
  16:       847.09 cm**-1
  17:       866.77 cm**-1
  18:       952.50 cm**-1
  19:       964.52 cm**-1
  20:      1041.03 cm**-1
  21:      1059.28 cm**-1
  22:      1097.50 cm**-1
  23:      1146.90 cm**-1
  24:      1175.74 cm**-1
  25:      1221.86 cm**-1
  26:      1277.79 cm**-1
  27:      1316.10 cm**-1
  28:      1330.01 cm**-1
  29:      1420.49 cm**-1
  30:      1454.22 cm**-1
  31:      1469.09 cm**-1
  32:      1489.88 cm**-1
  33:      1538.46 cm**-1
  34:      1642.84 cm**-1
  35:      1664.31 cm**-1
  36:      1752.27 cm**-1
  37:      3030.94 cm**-1
  38:      3080.76 cm**-1
  39:      3154.63 cm**-1
  40:      3175.38 cm**-1
  41:      3288.15 cm**-1
  42:      3408.74 cm**-1
  43:      3491.38 cm**-1
  44:      3510.38 cm**-1

IR SPECTRUM
-----------

 Mode    freq (cm**-1)   T**2         TX         TY         TZ
-------------------------------------------------------------------
   6:        88.96    4.890369  ( -2.206401   0.119731  -0.088472)
   7:       127.81   14.595450  ( -0.847950   3.606760   0.931510)
   8:       147.34   14.299837  (  1.967228  -0.900053   3.101573)
   9:       212.73    0.482128  ( -0.512693   0.468119   0.011772)
  10:       335.10    1.199060  (  0.948919  -0.467630   0.282728)
  11:       405.62   13.109291  ( -0.385803  -0.353816   3.582633)
  12:       559.30   20.921120  ( -0.740490   3.135693  -3.246571)
  13:       670.39    1.885837  (  0.452880   1.166352  -0.566003)
  14:       754.90    0.930813  ( -0.912813   0.234952  -0.205868)
  15:       839.45   10.237723  ( -1.055294  -0.716946  -2.934292)
  16:       847.09   71.108453  (  1.535658  -3.979550   7.274159)
  17:       866.77   25.788116  (  1.269703  -2.867520  -3.994158)
  18:       952.50   14.024453  ( -3.247307   0.601691   1.765622)
  19:       964.52   84.453428  ( -4.911167   0.123782   7.766502)
  20:      1041.03   32.440500  ( -4.099900  -3.620139   1.589311)
  21:      1059.28   26.849949  (  3.653232   2.649366   2.546508)
  22:      1097.50    4.765605  ( -1.123721   1.361783  -1.283901)
  23:      1146.90   12.078415  ( -0.703594   2.912800   1.760389)
  24:      1175.74  222.201446  ( -7.098901  -4.111839 -12.445876)
  25:      1221.86    4.036462  ( -1.670911  -0.407214  -1.038603)
  26:      1277.79    7.848509  ( -0.577352  -0.057166  -2.740786)
  27:      1316.10   96.464352  (  7.624389   2.310340   5.744160)
  28:      1330.01   16.808791  (  3.787843  -0.051885  -1.567911)
  29:      1420.49   38.725202  (  4.416780   0.489656  -4.356317)
  30:      1454.22   12.280474  (  1.649175   1.198827  -2.850177)
  31:      1469.09   25.637633  (  2.278966   2.431628   3.811972)
  32:      1489.88  155.086766  (  1.817440   8.934223  -8.483120)
  33:      1538.46    0.279694  ( -0.081843   0.455901  -0.255246)
  34:      1642.84   56.375771  (  7.090011  -2.239777   1.044469)
  35:      1664.31   39.695246  (  1.507792   2.948359   5.359943)
  36:      1752.27   93.566017  ( -3.127498  -0.281051  -9.149086)
  37:      3030.94   56.969241  ( -3.594864  -6.061559  -2.702536)
  38:      3080.76    4.389643  ( -0.101604  -0.237874  -2.079119)
  39:      3154.63    7.224664  ( -1.960980   1.372386  -1.223019)
  40:      3175.38    1.281122  (  0.925713  -0.016471   0.651081)
  41:      3288.15   12.027381  (  2.370981   0.335530  -2.508635)
  42:      3408.74   38.130030  ( -2.562851  -4.226076   3.701636)
  43:      3491.38  103.474053  ( -9.798953   1.146023  -2.478145)
  44:      3510.38   89.583539  (  0.884785  -5.995621  -7.270022)

--------------------------
THERMOCHEMISTRY AT 298.15K
--------------------------

Temperature         ... 298.15 K
Pressure            ... 1.00 atm
Total Mass          ... 102.11 AMU

Throughout the following assumptions are being made:
  (1) The electronic state is orbitally nondegenerate
  (2) There are no thermally accessible electronically excited states
  (3) Hindered rotations indicated by low frequency modes) are not
      treated as such but are treated as vibrations and this may
      case some error
  (4) All equations used are the standard statistical mechanics
      equations for an ideal gas
  (5) All vibrations are strinctly harmonic

------------
INNER ENERGY
------------

The inner energy is: U= E(el) + E(ZPE) + E(vib) + E(rot) + E(trans)
    E(el)   - is the total energy from the electronic structure calculation
              = E(kin-el) + E(nuc-el) + E(el-el) + E(nuc-nuc)
    E(ZPE)  - the the zero temperature vibrational energy from the frequency calculation
    E(vib)  - the the finite temperature correction to E(ZPE) due to population
              of excietd vibrational states
    E(rot)  - is the rotational thermal energy
    E(trans)- is the translational thermal energy

Summary of contributions to the inner energy U:
Electronic energy                ...   -361.88312363 Eh
Zero point energy                ...      0.12987975 Eh      81.50 kcal/mol
Thermal vibrational correction   ...      0.00420020 Eh       2.64 kcal/mol
Thermal rotational correction    ...      0.00141627 Eh       0.89 kcal/mol
Thermal translational correction ...      0.00141627 Eh       0.89 kcal/mol
-----------------------------------------------------------------------
Total thermal energy                   -361.74621114 Eh

Summary of corrections to the electronic energy:
(perhaps to be used in another calculation)
Total thermal correction                  0.00703274 Eh       4.41 kcal/mol
Non-thermal (ZPE) correction              0.12987975 Eh      81.50 kcal/mol
-----------------------------------------------------------------------
Total correction                          0.13691249 Eh      85.91 kcal/mol

--------
ENTHALPY
--------

The enthalpy is H = U + kB*T
                kB is Boltzmann's constant
Total free energy                 ...   -361.74621114 Eh
Thermal Enthalpy correction       ...      0.00094421 Eh       0.59 kcal/mol
-----------------------------------------------------------------------
Total Enthalpy                    ...   -361.74526693 Eh

-------
ENTROPY
-------

The entropy contributions are T*S = T*(S(el)+S(vib)+S(rot)+S(trans)
     S(el)   - electronic entropy
     S(vib)  - vibrational entropy
     S(rot)  - rotational entropy
     S(trans)- translational entropy
The entropies will be listed as mutliplied by the temperature to get
units of energy

Electronic entropy                ...      0.00000000 Eh      0.00 kcal/mol
Vibrational entropy               ...      0.00756642 Eh      4.75 kcal/mol
Rotational entropy                ...      0.01189934 Eh      7.47 kcal/mol
Translational entropy             ...      0.01890086 Eh     11.86 kcal/mol
-----------------------------------------------------------------------
Final entropy term                ...      0.03836662 Eh     24.08 kcal/mol

CAUTION: The rotational entropy is not quite correctly treated here
         because it includes a symmetry number that is not yet correctly
         implemented in ORCA!
For a nonlinear molecule the correct rotational entropy is:
    S(rot) = R*(ln(qrot/sn)+1.5)
    R    = 8.31441 J/mol/K = 1.987191683e-3 kcal/mol/K
    qrot = 199074.5142698
    sn is the rotational symmetry number. We have assumed 3 here
       if it is different for your molecule then you should correct
       the printed rotational entropy by manually evaluating the equation
       as given above

For convenience we print out the resulting values for sn=1 - 12:
 sn= 1  qrot/sn=  199074.5143 T*S(rot)=     8.12 kcal/mol T*S(tot)=    24.73 kcal/mol
 sn= 2  qrot/sn=   99537.2571 T*S(rot)=     7.71 kcal/mol T*S(tot)=    24.32 kcal/mol
 sn= 3  qrot/sn=   66358.1714 T*S(rot)=     7.47 kcal/mol T*S(tot)=    24.08 kcal/mol
 sn= 4  qrot/sn=   49768.6286 T*S(rot)=     7.30 kcal/mol T*S(tot)=    23.90 kcal/mol
 sn= 5  qrot/sn=   39814.9029 T*S(rot)=     7.16 kcal/mol T*S(tot)=    23.77 kcal/mol
 sn= 6  qrot/sn=   33179.0857 T*S(rot)=     7.06 kcal/mol T*S(tot)=    23.66 kcal/mol
 sn= 7  qrot/sn=   28439.2163 T*S(rot)=     6.96 kcal/mol T*S(tot)=    23.57 kcal/mol
 sn= 8  qrot/sn=   24884.3143 T*S(rot)=     6.89 kcal/mol T*S(tot)=    23.49 kcal/mol
 sn= 9  qrot/sn=   22119.3905 T*S(rot)=     6.82 kcal/mol T*S(tot)=    23.42 kcal/mol
 sn=10  qrot/sn=   19907.4514 T*S(rot)=     6.75 kcal/mol T*S(tot)=    23.36 kcal/mol
 sn=11  qrot/sn=   18097.6831 T*S(rot)=     6.70 kcal/mol T*S(tot)=    23.31 kcal/mol
 sn=12  qrot/sn=   16589.5429 T*S(rot)=     6.65 kcal/mol T*S(tot)=    23.25 kcal/mol

-------------------
GIBBS FREE ENTHALPY
-------------------

The Gibbs free enthalpy is G = H - T*S

Total enthalpy                    ...   -361.74526693 Eh
Total entropy correction          ...     -0.03836662 Eh    -24.08 kcal/mol
-----------------------------------------------------------------------
Final Gibbs free enthalpy         ...   -361.78363355 Eh

For completeness - the Gibbs free enthalpy minus the electronic energy
G-E(el)                           ...      0.09949007 Eh     62.43 kcal/mol

                             ****ORCA TERMINATED NORMALLY****
TOTAL RUN TIME: 0 days 0 hours 28 minutes 3 seconds 693 msec
