                         Program Version 3.0.3 - RELEASE   -
|  1> ! NORI PBE0 def2-TZVP UseSym TightOPT Freq TightSCF Grid3 FinalGrid5 XYZFile
|  2> % pal
|  3>     nprocs 8
|  4> end
|  5> %method
|  6>     SymThresh 5.0e-2
|  7> end
|  8> % geom
|  9>     MaxIter 10
| 10> end
| 11> % maxcore 2000
| 12> % output
| 13>     printlevel mini
| 14>     print[ P_Basis ] 0
| 15>     print[ P_SCFInfo ] 1
| 16>     print[ P_SCFIterInfo ] 1
| 17>     print[ P_OrbEn ] 0
| 18>     print[ P_Cartesian ] 0
| 19> end
| 20> % elprop
| 21>     Dipole false
| 22> end
| 23> *xyz 1 1
| 24>  N        1.1922672378    -0.5116138892    -0.4159412378
| 25>  C        2.6426339956    -0.6454708432    -0.0561680039
| 26>  C        2.8941561018     0.2879921715     1.1209215789
| 27>  C        3.0457608623    -0.3882927395     2.4588709916
| 28>  O        3.3404205996     0.5783013865     3.4135250765
| 29>  C        3.4289608020     1.6244566618     0.8692447595
| 30>  O        2.0234433490     1.4127603712     1.0519160640
| 31>  H        0.9964673682    -0.7550638464    -1.3864901771
| 32>  H        0.9681547245     0.4861162990    -0.2361039031
| 33>  H        0.5900228545    -1.0770144284     0.1832679924
| 34>  H        3.2147484656    -0.3553665240    -0.9360529522
| 35>  H        2.8540573274    -1.6888143301     0.1750187133
| 36>  H        3.8462987372    -1.1384347467     2.3596208798
| 37>  H        2.1143315469    -0.9310551452     2.6916406533
| 38>  H        3.3800909101     0.1799699629     4.2869014346
| 39>  H        3.7280855752     1.9053490916    -0.1365104055
| 40>  H        3.9025795422     2.1525605483     1.6883185358
| 41> *
| 42>
| 43>                          ****END OF INPUT****
 Total Charge           Charge          ....    1
 Multiplicity           Mult            ....    1
 Number of Electrons    NEL             ....   56
FINAL SINGLE POINT ENERGY      -363.083879890220

CARTESIAN COORDINATES (ANGSTROEM)
---------------------------------
  N     -0.210069    1.021900   -2.079609
  C     -0.936370   -0.037331   -1.303671
  C     -0.156883   -0.251809   -0.012639
  C     -0.783500    0.337617    1.224606
  O      0.000451    0.000252    2.321767
  C      0.814092   -1.341481    0.060993
  O      1.228372    0.000030   -0.226931
  H     -0.381776    0.971653   -3.083357
  H      0.793796    0.858137   -1.871004
  H     -0.442599    1.963695   -1.762035
  H     -0.949227   -0.931428   -1.925232
  H     -1.961207    0.289853   -1.133236
  H     -1.805957   -0.064471    1.299320
  H     -0.868836    1.429675    1.095425
  H     -0.343458    0.418233    3.115407
  H      0.903524   -2.041264   -0.765140
  H      1.119583   -1.694000    1.038925

FINAL SINGLE POINT ENERGY      -363.083880570476
                    ***********************HURRAY********************
 Multiplicity           Mult            ....    1
 Number of Electrons    NEL             ....   56
 Basis Dimension        Dim             ....  277
FINAL SINGLE POINT ENERGY      -363.083880916218

VIBRATIONAL FREQUENCIES
-----------------------

   0:         0.00 cm**-1
   1:         0.00 cm**-1
   2:         0.00 cm**-1
   3:         0.00 cm**-1
   4:         0.00 cm**-1
   5:         0.00 cm**-1
   6:        33.86 cm**-1
   7:        97.71 cm**-1
   8:       200.39 cm**-1
   9:       237.08 cm**-1
  10:       269.46 cm**-1
  11:       306.29 cm**-1
  12:       357.72 cm**-1
  13:       363.45 cm**-1
  14:       467.90 cm**-1
  15:       604.11 cm**-1
  16:       719.07 cm**-1
  17:       850.93 cm**-1
  18:       866.99 cm**-1
  19:       922.19 cm**-1
  20:       947.51 cm**-1
  21:       978.26 cm**-1
  22:      1048.32 cm**-1
  23:      1081.60 cm**-1
  24:      1109.35 cm**-1
  25:      1135.84 cm**-1
  26:      1165.09 cm**-1
  27:      1191.34 cm**-1
  28:      1223.68 cm**-1
  29:      1251.42 cm**-1
  30:      1282.52 cm**-1
  31:      1335.48 cm**-1
  32:      1393.61 cm**-1
  33:      1428.63 cm**-1
  34:      1466.41 cm**-1
  35:      1476.51 cm**-1
  36:      1492.60 cm**-1
  37:      1500.02 cm**-1
  38:      1526.50 cm**-1
  39:      1638.17 cm**-1
  40:      1674.89 cm**-1
  41:      2968.84 cm**-1
  42:      3008.99 cm**-1
  43:      3115.96 cm**-1
  44:      3132.74 cm**-1
  45:      3175.86 cm**-1
  46:      3224.68 cm**-1
  47:      3246.19 cm**-1
  48:      3476.29 cm**-1
  49:      3534.89 cm**-1
  50:      3875.82 cm**-1

IR SPECTRUM
-----------

 Mode    freq (cm**-1)   T**2         TX         TY         TZ
-------------------------------------------------------------------
   7:        97.71   37.361652  (  2.227905   5.592027  -1.061754)
   8:       200.39   93.412260  ( -6.675637  -6.946852   0.767713)
   9:       237.08   10.055576  (  1.618512   2.589915  -0.853424)
  10:       269.46    2.451088  (  0.318603  -1.135267   1.029927)
  11:       306.29   57.179709  ( -2.522061   3.645221  -6.126278)
  12:       357.72    0.906193  ( -0.768004   0.540026  -0.157275)
  13:       363.45   14.634948  ( -0.418136  -0.001814  -3.802645)
  14:       467.90   24.323967  ( -1.057950  -1.401705   4.608680)
  15:       604.11   12.566616  ( -3.031630  -1.101760  -1.470360)
  16:       719.07    8.526578  (  0.148625   1.654282   2.401633)
  17:       850.93    6.781978  (  1.844705  -1.717638  -0.654799)
  18:       866.99   29.559157  ( -5.390653   0.647671  -0.283795)
  19:       922.19   14.105599  (  2.957866   1.578672  -1.692461)
  20:       947.51   85.414216  (  1.155254  -7.058934   5.852440)
  21:       978.26    3.436500  (  1.009528  -0.163583   1.546154)
  22:      1048.32    9.444910  (  0.857182   0.992404   2.779439)
  23:      1081.60   14.163532  (  3.641648   0.696559   0.645553)
  24:      1109.35   46.786645  ( -2.483021   0.890977  -6.310896)
  25:      1135.84    7.265485  ( -1.004274   0.100211  -2.499375)
  26:      1165.09   56.167137  ( -4.063625   1.028041  -6.212666)
  27:      1191.34    7.441686  ( -0.858688   0.693231  -2.494749)
  28:      1223.68   38.997214  ( -4.899537   0.222181  -3.865538)
  29:      1251.42   11.773348  ( -2.336612   1.141401  -2.238480)
  30:      1282.52    2.457602  ( -0.621800   0.780687  -1.208923)
  31:      1335.48   13.166330  ( -2.209979   2.872224  -0.180709)
  32:      1393.61    9.302670  ( -2.600947  -0.483717   1.517815)
  33:      1428.63   28.870346  (  1.883885   3.688392  -3.423023)
  34:      1466.41  170.039200  ( -5.714923  -7.993119   8.572567)
  35:      1476.51   10.767458  ( -2.115780  -1.666536   1.874457)
  36:      1492.60   14.832451  (  2.190925  -0.648326   3.100318)
  37:      1500.02   11.305813  ( -0.006388  -1.026169  -3.201992)
  38:      1526.50    8.085950  ( -0.506720   2.793428   0.161071)
  39:      1638.17   32.830934  ( -2.954579   4.886637   0.471354)
  40:      1674.89   36.975955  (  2.579493   0.836042   5.442721)
  41:      2968.84   48.534639  (  3.505820  -4.829162   3.594866)
  42:      3008.99   23.479226  ( -3.540898  -3.241025  -0.661076)
  43:      3115.96    1.385703  ( -0.903736   0.319120  -0.683467)
  44:      3132.74    8.330541  ( -0.091794  -2.378649  -1.632220)
  45:      3175.86    0.524590  ( -0.647516   0.132441  -0.296263)
  46:      3224.68  158.123556  ( 10.087437  -4.117799   6.277810)
  47:      3246.19    0.483523  ( -0.638692  -0.236890  -0.139566)
  48:      3476.29  103.341758  (  3.813095  -7.576686   5.603205)
  49:      3534.89  107.603450  ( -0.240900  -4.680955  -9.253868)
  50:      3875.82  106.868192  (  1.288172  -2.894375  -9.840295)

--------------------------
THERMOCHEMISTRY AT 298.15K
--------------------------

Temperature         ... 298.15 K
Pressure            ... 1.00 atm
Total Mass          ... 104.13 AMU

Throughout the following assumptions are being made:
  (1) The electronic state is orbitally nondegenerate
  (2) There are no thermally accessible electronically excited states
  (3) Hindered rotations indicated by low frequency modes) are not
      treated as such but are treated as vibrations and this may
      case some error
  (4) All equations used are the standard statistical mechanics
      equations for an ideal gas
  (5) All vibrations are strinctly harmonic

------------
INNER ENERGY
------------

The inner energy is: U= E(el) + E(ZPE) + E(vib) + E(rot) + E(trans)
    E(el)   - is the total energy from the electronic structure calculation
              = E(kin-el) + E(nuc-el) + E(el-el) + E(nuc-nuc)
    E(ZPE)  - the the zero temperature vibrational energy from the frequency calculation
    E(vib)  - the the finite temperature correction to E(ZPE) due to population
              of excietd vibrational states
    E(rot)  - is the rotational thermal energy
    E(trans)- is the translational thermal energy

Summary of contributions to the inner energy U:
Electronic energy                ...   -363.08388092 Eh
Zero point energy                ...      0.15120486 Eh      94.88 kcal/mol
Thermal vibrational correction   ...      0.00438361 Eh       2.75 kcal/mol
Thermal rotational correction    ...      0.00141627 Eh       0.89 kcal/mol
Thermal translational correction ...      0.00141627 Eh       0.89 kcal/mol
-----------------------------------------------------------------------
Total thermal energy                   -362.92545990 Eh

Summary of corrections to the electronic energy:
(perhaps to be used in another calculation)
Total thermal correction                  0.00721615 Eh       4.53 kcal/mol
Non-thermal (ZPE) correction              0.15120486 Eh      94.88 kcal/mol
-----------------------------------------------------------------------
Total correction                          0.15842101 Eh      99.41 kcal/mol

--------
ENTHALPY
--------

The enthalpy is H = U + kB*T
                kB is Boltzmann's constant
Total free energy                 ...   -362.92545990 Eh
Thermal Enthalpy correction       ...      0.00094421 Eh       0.59 kcal/mol
-----------------------------------------------------------------------
Total Enthalpy                    ...   -362.92451569 Eh

-------
ENTROPY
-------

The entropy contributions are T*S = T*(S(el)+S(vib)+S(rot)+S(trans)
     S(el)   - electronic entropy
     S(vib)  - vibrational entropy
     S(rot)  - rotational entropy
     S(trans)- translational entropy
The entropies will be listed as mutliplied by the temperature to get
units of energy

Electronic entropy                ...      0.00000000 Eh      0.00 kcal/mol
Vibrational entropy               ...      0.00731708 Eh      4.59 kcal/mol
Rotational entropy                ...      0.01202651 Eh      7.55 kcal/mol
Translational entropy             ...      0.01892854 Eh     11.88 kcal/mol
-----------------------------------------------------------------------
Final entropy term                ...      0.03827214 Eh     24.02 kcal/mol

CAUTION: The rotational entropy is not quite correctly treated here
         because it includes a symmetry number that is not yet correctly
         implemented in ORCA!
For a nonlinear molecule the correct rotational entropy is:
    S(rot) = R*(ln(qrot/sn)+1.5)
    R    = 8.31441 J/mol/K = 1.987191683e-3 kcal/mol/K
    qrot = 227776.9464999
    sn is the rotational symmetry number. We have assumed 3 here
       if it is different for your molecule then you should correct
       the printed rotational entropy by manually evaluating the equation
       as given above

For convenience we print out the resulting values for sn=1 - 12:
 sn= 1  qrot/sn=  227776.9465 T*S(rot)=     8.20 kcal/mol T*S(tot)=    24.67 kcal/mol
 sn= 2  qrot/sn=  113888.4732 T*S(rot)=     7.79 kcal/mol T*S(tot)=    24.26 kcal/mol
 sn= 3  qrot/sn=   75925.6488 T*S(rot)=     7.55 kcal/mol T*S(tot)=    24.02 kcal/mol
 sn= 4  qrot/sn=   56944.2366 T*S(rot)=     7.38 kcal/mol T*S(tot)=    23.85 kcal/mol
 sn= 5  qrot/sn=   45555.3893 T*S(rot)=     7.24 kcal/mol T*S(tot)=    23.71 kcal/mol
 sn= 6  qrot/sn=   37962.8244 T*S(rot)=     7.14 kcal/mol T*S(tot)=    23.61 kcal/mol
 sn= 7  qrot/sn=   32539.5638 T*S(rot)=     7.04 kcal/mol T*S(tot)=    23.51 kcal/mol
 sn= 8  qrot/sn=   28472.1183 T*S(rot)=     6.97 kcal/mol T*S(tot)=    23.43 kcal/mol
 sn= 9  qrot/sn=   25308.5496 T*S(rot)=     6.90 kcal/mol T*S(tot)=    23.37 kcal/mol
 sn=10  qrot/sn=   22777.6946 T*S(rot)=     6.83 kcal/mol T*S(tot)=    23.30 kcal/mol
 sn=11  qrot/sn=   20706.9951 T*S(rot)=     6.78 kcal/mol T*S(tot)=    23.25 kcal/mol
 sn=12  qrot/sn=   18981.4122 T*S(rot)=     6.73 kcal/mol T*S(tot)=    23.19 kcal/mol

-------------------
GIBBS FREE ENTHALPY
-------------------

The Gibbs free enthalpy is G = H - T*S

Total enthalpy                    ...   -362.92451569 Eh
Total entropy correction          ...     -0.03827214 Eh    -24.02 kcal/mol
-----------------------------------------------------------------------
Final Gibbs free enthalpy         ...   -362.96278783 Eh

For completeness - the Gibbs free enthalpy minus the electronic energy
G-E(el)                           ...      0.12109308 Eh     75.99 kcal/mol

                             ****ORCA TERMINATED NORMALLY****
TOTAL RUN TIME: 0 days 0 hours 33 minutes 56 seconds 832 msec
