                         Program Version 3.0.3 - RELEASE   -
|  1> ! NORI PBE0 def2-TZVP UseSym TightOPT Freq TightSCF Grid3 FinalGrid5 XYZFile
|  2> % pal
|  3>     nprocs 8
|  4> end
|  5> %method
|  6>     SymThresh 5.0e-2
|  7> end
|  8> % geom
|  9>     MaxIter 10
| 10> end
| 11> % maxcore 2000
| 12> % output
| 13>     printlevel mini
| 14>     print[ P_Basis ] 0
| 15>     print[ P_SCFInfo ] 1
| 16>     print[ P_SCFIterInfo ] 1
| 17>     print[ P_OrbEn ] 0
| 18>     print[ P_Cartesian ] 0
| 19> end
| 20> % elprop
| 21>     Dipole false
| 22> end
| 23> *xyz 1 1
| 24>  N        2.9709164367     1.1598230248     0.0517902224
| 25>  C        2.2598843800    -0.1649942090    -0.0157054066
| 26>  C        3.2349046740    -1.3123834404    -0.2680950043
| 27>  C        2.5971680513    -2.6467158667     0.0984431160
| 28>  O        2.9731089991    -2.8447649671     1.4723115600
| 29>  N        4.1146742220    -2.1476416048     1.7128188645
| 30>  C        4.3387976734    -1.3305671434     0.7631230530
| 31>  H        2.3225101773     1.9243473714     0.2517779203
| 32>  H        3.4491581825     1.3779601634    -0.8255027858
| 33>  H        3.6741197271     1.1425125750     0.7966413797
| 34>  H        1.5066831648    -0.0822749754    -0.8001695963
| 35>  H        1.7631446139    -0.2906226077     0.9479390901
| 36>  H        3.5957676010    -1.2975235564    -1.2989231446
| 37>  H        3.0186280694    -3.4596708476    -0.4986856031
| 38>  H        1.5085957024    -2.6745906009     0.0400126676
| 39>  H        5.2463583250    -0.7379933151     0.7834836671
| 40> *
| 41>
| 42>                          ****END OF INPUT****
 Total Charge           Charge          ....    1
 Multiplicity           Mult            ....    1
 Number of Electrons    NEL             ....   54
FINAL SINGLE POINT ENERGY      -341.984267359977

CARTESIAN COORDINATES (ANGSTROEM)
---------------------------------
  N      0.958983    0.000417   -2.302300
  C      0.622217    0.871091   -1.121321
  C     -0.614200    0.362470   -0.383773
  C     -0.685495    0.960409    1.015681
  O     -0.000604    0.000369    1.838435
  N     -0.067758   -1.214073    1.232462
  C     -0.452806   -1.082636    0.026418
  H      1.804943    0.322356   -2.777319
  H      0.201965   -0.014507   -2.989669
  H      1.120814   -0.962561   -1.992796
  H      0.488951    1.884425   -1.501206
  H      1.495533    0.844207   -0.467508
  H     -1.520260    0.557256   -0.961736
  H     -1.721253    1.035678    1.357389
  H     -0.188176    1.923016    1.136896
  H     -0.607409   -1.971089   -0.575100

FINAL SINGLE POINT ENERGY      -341.984268124578
                    ***********************HURRAY********************
 Multiplicity           Mult            ....    1
 Number of Electrons    NEL             ....   54
 Basis Dimension        Dim             ....  271
FINAL SINGLE POINT ENERGY      -341.984268372065

VIBRATIONAL FREQUENCIES
-----------------------

   0:         0.00 cm**-1
   1:         0.00 cm**-1
   2:         0.00 cm**-1
   3:         0.00 cm**-1
   4:         0.00 cm**-1
   5:         0.00 cm**-1
   6:        75.64 cm**-1
   7:       139.93 cm**-1
   8:       214.49 cm**-1
   9:       242.64 cm**-1
  10:       348.89 cm**-1
  11:       404.03 cm**-1
  12:       595.11 cm**-1
  13:       750.80 cm**-1
  14:       796.34 cm**-1
  15:       826.66 cm**-1
  16:       873.44 cm**-1
  17:       889.56 cm**-1
  18:       939.70 cm**-1
  19:       951.63 cm**-1
  20:       985.66 cm**-1
  21:       991.02 cm**-1
  22:      1030.05 cm**-1
  23:      1054.72 cm**-1
  24:      1097.81 cm**-1
  25:      1166.34 cm**-1
  26:      1238.33 cm**-1
  27:      1260.14 cm**-1
  28:      1277.59 cm**-1
  29:      1342.51 cm**-1
  30:      1360.31 cm**-1
  31:      1386.50 cm**-1
  32:      1409.74 cm**-1
  33:      1492.64 cm**-1
  34:      1498.40 cm**-1
  35:      1504.45 cm**-1
  36:      1654.24 cm**-1
  37:      1660.73 cm**-1
  38:      1666.02 cm**-1
  39:      3077.06 cm**-1
  40:      3096.89 cm**-1
  41:      3103.58 cm**-1
  42:      3148.38 cm**-1
  43:      3163.36 cm**-1
  44:      3215.26 cm**-1
  45:      3408.80 cm**-1
  46:      3484.54 cm**-1
  47:      3504.64 cm**-1

IR SPECTRUM
-----------

 Mode    freq (cm**-1)   T**2         TX         TY         TZ
-------------------------------------------------------------------
   6:        75.64   17.062894  ( -0.593572  -1.248362   3.892578)
   7:       139.93    1.836889  (  1.332684   0.218506   0.114440)
   8:       214.49   13.968375  (  2.436220   1.123667  -2.602033)
   9:       242.64    0.976404  ( -0.755468  -0.605423  -0.197825)
  10:       348.89    1.690479  (  0.178948   0.385243   1.228839)
  11:       404.03    9.523468  (  1.840576   0.289064  -2.460120)
  12:       595.11    2.008649  (  0.961616  -0.604928  -0.847352)
  13:       750.80    6.718086  ( -0.241738   0.360320  -2.555351)
  14:       796.34   15.122281  ( -2.700764  -1.009738   2.609326)
  15:       826.66   14.545148  ( -3.813162   0.001921   0.070305)
  16:       873.44   12.468370  ( -3.089998  -0.622847   1.591334)
  17:       889.56   31.264963  (  1.640137  -2.953179   4.455743)
  18:       939.70   11.710586  (  0.301820   1.080876   3.232831)
  19:       951.63    5.468283  (  0.938225   1.110233  -1.831775)
  20:       985.66   37.610599  ( -1.674519   3.802666   4.510689)
  21:       991.02   53.947750  ( -1.853589  -3.029839  -6.428999)
  22:      1030.05   13.303950  (  2.616669   1.148519  -2.266693)
  23:      1054.72    1.834010  (  0.682641  -1.027538   0.558728)
  24:      1097.81   10.554404  ( -2.482424  -0.787297   1.942200)
  25:      1166.34    7.075142  (  2.592289   0.378108  -0.460670)
  26:      1238.33    2.494141  ( -0.072045   1.356474   0.805561)
  27:      1260.14   16.871015  ( -0.572903   3.044719   2.696755)
  28:      1277.59   17.067403  (  0.259726  -4.047144  -0.787765)
  29:      1342.51    4.180322  (  0.483681  -0.304479   1.963076)
  30:      1360.31    6.615953  ( -0.194097  -1.164976   2.284975)
  31:      1386.50    1.502167  (  0.631596  -0.976190   0.387693)
  32:      1409.74    6.125370  ( -0.313627   0.762601   2.333549)
  33:      1492.64   12.754594  (  2.499069   2.538829  -0.252185)
  34:      1498.40    3.483084  ( -1.862299   0.081473   0.091044)
  35:      1504.45  181.287621  (  4.074809  -6.903056 -10.818103)
  36:      1654.24   34.890601  ( -3.829471   4.480878  -0.384048)
  37:      1660.73   35.854602  (  3.123276   3.245515  -3.945426)
  38:      1666.02   30.067334  ( -3.887183  -0.975874  -3.742301)
  39:      3077.06    7.381485  (  1.700471  -1.942648  -0.846168)
  40:      3096.89    2.126138  ( -0.404920   0.844066  -1.117914)
  41:      3103.58    1.658333  ( -0.851379   0.352189  -0.899694)
  42:      3148.38    2.881311  ( -1.191923  -1.089932   0.522186)
  43:      3163.36    0.226470  (  0.378214   0.152616  -0.245219)
  44:      3215.26    0.735105  ( -0.509584  -0.676717  -0.132226)
  45:      3408.80   31.590680  (  1.582572  -4.283668  -3.276634)
  46:      3484.54  124.446190  ( -0.266575   6.475553  -9.079776)
  47:      3504.64  109.631475  ( 10.134454   2.612699  -0.313234)

--------------------------
THERMOCHEMISTRY AT 298.15K
--------------------------

Temperature         ... 298.15 K
Pressure            ... 1.00 atm
Total Mass          ... 101.13 AMU

Throughout the following assumptions are being made:
  (1) The electronic state is orbitally nondegenerate
  (2) There are no thermally accessible electronically excited states
  (3) Hindered rotations indicated by low frequency modes) are not
      treated as such but are treated as vibrations and this may
      case some error
  (4) All equations used are the standard statistical mechanics
      equations for an ideal gas
  (5) All vibrations are strinctly harmonic

------------
INNER ENERGY
------------

The inner energy is: U= E(el) + E(ZPE) + E(vib) + E(rot) + E(trans)
    E(el)   - is the total energy from the electronic structure calculation
              = E(kin-el) + E(nuc-el) + E(el-el) + E(nuc-nuc)
    E(ZPE)  - the the zero temperature vibrational energy from the frequency calculation
    E(vib)  - the the finite temperature correction to E(ZPE) due to population
              of excietd vibrational states
    E(rot)  - is the rotational thermal energy
    E(trans)- is the translational thermal energy

Summary of contributions to the inner energy U:
Electronic energy                ...   -341.98426837 Eh
Zero point energy                ...      0.14199484 Eh      89.10 kcal/mol
Thermal vibrational correction   ...      0.00403979 Eh       2.53 kcal/mol
Thermal rotational correction    ...      0.00141627 Eh       0.89 kcal/mol
Thermal translational correction ...      0.00141627 Eh       0.89 kcal/mol
-----------------------------------------------------------------------
Total thermal energy                   -341.83540120 Eh

Summary of corrections to the electronic energy:
(perhaps to be used in another calculation)
Total thermal correction                  0.00687233 Eh       4.31 kcal/mol
Non-thermal (ZPE) correction              0.14199484 Eh      89.10 kcal/mol
-----------------------------------------------------------------------
Total correction                          0.14886717 Eh      93.42 kcal/mol

--------
ENTHALPY
--------

The enthalpy is H = U + kB*T
                kB is Boltzmann's constant
Total free energy                 ...   -341.83540120 Eh
Thermal Enthalpy correction       ...      0.00094421 Eh       0.59 kcal/mol
-----------------------------------------------------------------------
Total Enthalpy                    ...   -341.83445699 Eh

-------
ENTROPY
-------

The entropy contributions are T*S = T*(S(el)+S(vib)+S(rot)+S(trans)
     S(el)   - electronic entropy
     S(vib)  - vibrational entropy
     S(rot)  - rotational entropy
     S(trans)- translational entropy
The entropies will be listed as mutliplied by the temperature to get
units of energy

Electronic entropy                ...      0.00000000 Eh      0.00 kcal/mol
Vibrational entropy               ...      0.00715046 Eh      4.49 kcal/mol
Rotational entropy                ...      0.01191181 Eh      7.47 kcal/mol
Translational entropy             ...      0.01888714 Eh     11.85 kcal/mol
-----------------------------------------------------------------------
Final entropy term                ...      0.03794942 Eh     23.81 kcal/mol

CAUTION: The rotational entropy is not quite correctly treated here
         because it includes a symmetry number that is not yet correctly
         implemented in ORCA!
For a nonlinear molecule the correct rotational entropy is:
    S(rot) = R*(ln(qrot/sn)+1.5)
    R    = 8.31441 J/mol/K = 1.987191683e-3 kcal/mol/K
    qrot = 201721.2261538
    sn is the rotational symmetry number. We have assumed 3 here
       if it is different for your molecule then you should correct
       the printed rotational entropy by manually evaluating the equation
       as given above

For convenience we print out the resulting values for sn=1 - 12:
 sn= 1  qrot/sn=  201721.2262 T*S(rot)=     8.13 kcal/mol T*S(tot)=    24.46 kcal/mol
 sn= 2  qrot/sn=  100860.6131 T*S(rot)=     7.71 kcal/mol T*S(tot)=    24.05 kcal/mol
 sn= 3  qrot/sn=   67240.4087 T*S(rot)=     7.47 kcal/mol T*S(tot)=    23.81 kcal/mol
 sn= 4  qrot/sn=   50430.3065 T*S(rot)=     7.30 kcal/mol T*S(tot)=    23.64 kcal/mol
 sn= 5  qrot/sn=   40344.2452 T*S(rot)=     7.17 kcal/mol T*S(tot)=    23.51 kcal/mol
 sn= 6  qrot/sn=   33620.2044 T*S(rot)=     7.06 kcal/mol T*S(tot)=    23.40 kcal/mol
 sn= 7  qrot/sn=   28817.3180 T*S(rot)=     6.97 kcal/mol T*S(tot)=    23.31 kcal/mol
 sn= 8  qrot/sn=   25215.1533 T*S(rot)=     6.89 kcal/mol T*S(tot)=    23.23 kcal/mol
 sn= 9  qrot/sn=   22413.4696 T*S(rot)=     6.82 kcal/mol T*S(tot)=    23.16 kcal/mol
 sn=10  qrot/sn=   20172.1226 T*S(rot)=     6.76 kcal/mol T*S(tot)=    23.10 kcal/mol
 sn=11  qrot/sn=   18338.2933 T*S(rot)=     6.70 kcal/mol T*S(tot)=    23.04 kcal/mol
 sn=12  qrot/sn=   16810.1022 T*S(rot)=     6.65 kcal/mol T*S(tot)=    22.99 kcal/mol

-------------------
GIBBS FREE ENTHALPY
-------------------

The Gibbs free enthalpy is G = H - T*S

Total enthalpy                    ...   -341.83445699 Eh
Total entropy correction          ...     -0.03794942 Eh    -23.81 kcal/mol
-----------------------------------------------------------------------
Final Gibbs free enthalpy         ...   -341.87240642 Eh

For completeness - the Gibbs free enthalpy minus the electronic energy
G-E(el)                           ...      0.11186196 Eh     70.19 kcal/mol

                             ****ORCA TERMINATED NORMALLY****
TOTAL RUN TIME: 0 days 0 hours 30 minutes 38 seconds 859 msec
