                         Program Version 3.0.3 - RELEASE   -
|  1> ! NORI PBE0 def2-TZVP UseSym TightOPT Freq TightSCF Grid3 FinalGrid5 XYZFile
|  2> % pal
|  3>     nprocs 8
|  4> end
|  5> %method
|  6>     SymThresh 5.0e-2
|  7> end
|  8> % geom
|  9>     MaxIter 10
| 10> end
| 11> % maxcore 2000
| 12> % output
| 13>     printlevel mini
| 14>     print[ P_Basis ] 0
| 15>     print[ P_SCFInfo ] 1
| 16>     print[ P_SCFIterInfo ] 1
| 17>     print[ P_OrbEn ] 0
| 18>     print[ P_Cartesian ] 0
| 19> end
| 20> % elprop
| 21>     Dipole false
| 22> end
| 23> *xyz 1 1
| 24>  N        1.5315236060    -0.9845982468     0.6871457614
| 25>  C        1.7689087661     0.2850762102    -0.0819259559
| 26>  C        2.3827627573     1.2567597919     0.8697561408
| 27>  N        2.5712206263     0.8616288728     2.0611849015
| 28>  O        3.1339659554     1.8081280506     2.8287515299
| 29>  C        3.3013200587     3.0202190084     2.0380168380
| 30>  C        2.8373239327     2.6551624376     0.6220332985
| 31>  H        2.0584167880    -1.7728686562     0.3138245486
| 32>  H        0.5469810976    -1.2451683056     0.7199413428
| 33>  H        1.8676162100    -0.7745576607     1.6583774689
| 34>  H        0.8169615953     0.6424399941    -0.4782923892
| 35>  H        2.4228715281     0.0706280198    -0.9292502993
| 36>  H        2.6915270231     3.7963093435     2.4996614525
| 37>  H        4.3522186129     3.2998900743     2.0924400069
| 38>  H        2.0282972145     3.2931719507     0.2585512124
| 39>  H        3.6404942279     2.6897291154    -0.1194858578
| 40> *
| 41>
| 42>                          ****END OF INPUT****
 Total Charge           Charge          ....    1
 Multiplicity           Mult            ....    1
 Number of Electrons    NEL             ....   54
FINAL SINGLE POINT ENERGY      -342.005868590511

CARTESIAN COORDINATES (ANGSTROEM)
---------------------------------
  N      1.890579   -0.000197   -1.612280
  C      0.396228    0.006284   -1.775395
  C     -0.186065    0.004367   -0.401576
  N      0.627373   -0.006244    0.572740
  O      0.000501    0.000858    1.759666
  C     -1.438439   -0.033289    1.534366
  C     -1.618354    0.031175    0.012186
  H      2.330988    0.830695   -2.004971
  H      2.327339   -0.820738   -2.029922
  H      2.045117   -0.014570   -0.574846
  H      0.098443   -0.872588   -2.350395
  H      0.104389    0.890981   -2.344589
  H     -1.813736   -0.959502    1.969237
  H     -1.868813    0.818068    2.059502
  H     -2.179208   -0.816168   -0.389202
  H     -2.116129    0.943894   -0.326746

FINAL SINGLE POINT ENERGY      -342.005869170260
                    ***********************HURRAY********************
 Multiplicity           Mult            ....    1
 Number of Electrons    NEL             ....   54
 Basis Dimension        Dim             ....  271
FINAL SINGLE POINT ENERGY      -342.005869506006

VIBRATIONAL FREQUENCIES
-----------------------

   0:         0.00 cm**-1
   1:         0.00 cm**-1
   2:         0.00 cm**-1
   3:         0.00 cm**-1
   4:         0.00 cm**-1
   5:         0.00 cm**-1
   6:       -37.84 cm**-1 ***imaginary mode***
   7:        36.48 cm**-1
   8:       182.18 cm**-1
   9:       252.96 cm**-1
  10:       263.57 cm**-1
  11:       449.59 cm**-1
  12:       503.16 cm**-1
  13:       683.53 cm**-1
  14:       801.20 cm**-1
  15:       827.62 cm**-1
  16:       900.51 cm**-1
  17:       907.64 cm**-1
  18:       961.06 cm**-1
  19:       983.82 cm**-1
  20:      1026.06 cm**-1
  21:      1056.03 cm**-1
  22:      1101.10 cm**-1
  23:      1122.32 cm**-1
  24:      1124.98 cm**-1
  25:      1195.50 cm**-1
  26:      1221.99 cm**-1
  27:      1252.30 cm**-1
  28:      1303.98 cm**-1
  29:      1335.26 cm**-1
  30:      1381.76 cm**-1
  31:      1426.43 cm**-1
  32:      1475.64 cm**-1
  33:      1482.31 cm**-1
  34:      1506.56 cm**-1
  35:      1515.99 cm**-1
  36:      1643.95 cm**-1
  37:      1650.06 cm**-1
  38:      1726.27 cm**-1
  39:      3040.85 cm**-1
  40:      3073.19 cm**-1
  41:      3090.04 cm**-1
  42:      3103.05 cm**-1
  43:      3112.14 cm**-1
  44:      3134.25 cm**-1
  45:      3162.54 cm**-1
  46:      3488.00 cm**-1
  47:      3546.50 cm**-1

IR SPECTRUM
-----------

 Mode    freq (cm**-1)   T**2         TX         TY         TZ
-------------------------------------------------------------------
   7:        36.48    8.244030  (  0.031154   2.870813  -0.038635)
   8:       182.18    6.636988  ( -0.037059   2.573836   0.104794)
   9:       252.96   63.705996  (  2.824516  -0.041490  -7.465011)
  10:       263.57    2.145178  (  0.169250   1.437457  -0.224164)
  11:       449.59   27.827758  (  4.684846  -0.008958  -2.424850)
  12:       503.16    0.263465  ( -0.077291   0.470880   0.189114)
  13:       683.53    1.199584  ( -0.905308   0.017088  -0.616205)
  14:       801.20    0.536571  ( -0.717605  -0.100388  -0.107405)
  15:       827.62    0.651312  ( -0.799452   0.083792  -0.071883)
  16:       900.51    9.999264  (  2.002661  -2.364034  -0.632423)
  17:       907.64   40.533865  (  5.972515   0.956359  -1.987035)
  18:       961.06    0.618157  ( -0.721439  -0.176980   0.257606)
  19:       983.82    8.613799  (  2.877576   0.058072  -0.574440)
  20:      1026.06    8.179302  (  1.342495  -0.055063   2.524674)
  21:      1056.03    2.325933  ( -0.051221   1.494893  -0.297665)
  22:      1101.10  147.533902  (  0.227694   0.055325 -12.144093)
  23:      1122.32   19.249107  (  3.573802  -0.203131  -2.536885)
  24:      1124.98    2.366792  ( -0.455609  -1.432121   0.329003)
  25:      1195.50    4.592064  ( -0.189747  -2.132843   0.083905)
  26:      1221.99    3.164805  (  1.389273   0.131506  -1.103373)
  27:      1252.30    1.268119  ( -0.107518  -1.021060   0.462597)
  28:      1303.98    1.651098  ( -0.047435   1.282853   0.055993)
  29:      1335.26   23.464813  (  1.108853   0.002378  -4.715427)
  30:      1381.76    1.213462  (  1.096818  -0.019337  -0.100394)
  31:      1426.43   29.815642  ( -5.412158   0.060059   0.721513)
  32:      1475.64    2.262391  ( -0.786005   0.175211  -1.270389)
  33:      1482.31  129.893415  ( 11.392178  -0.135810   0.305385)
  34:      1506.56  138.922440  ( 10.782751  -0.073624  -4.759128)
  35:      1515.99    9.714387  ( -2.830611  -0.151998   1.295733)
  36:      1643.95   17.087284  ( -1.124985  -0.824919   3.891170)
  37:      1650.06   29.843420  ( -0.079074   5.424173   0.644604)
  38:      1726.27   13.498932  ( -1.790037  -0.002717   3.208534)
  39:      3040.85  316.428393  (  6.215599   0.123651 -16.666716)
  40:      3073.19    3.121491  ( -0.247429   0.250684  -1.731308)
  41:      3090.04    0.322287  (  0.562053  -0.039742   0.069305)
  42:      3103.05    8.601853  (  2.090125   0.490728  -1.998104)
  43:      3112.14    0.574394  (  0.553910   0.387882  -0.342235)
  44:      3134.25    0.221092  ( -0.015567  -0.469946   0.000087)
  45:      3162.54    2.331021  (  0.124030  -1.516980  -0.120036)
  46:      3488.00  122.431330  ( -8.150909  -0.107261   7.482146)
  47:      3546.50  111.247755  (  0.005735  10.545995   0.172343)

--------------------------
THERMOCHEMISTRY AT 298.15K
--------------------------

Temperature         ... 298.15 K
Pressure            ... 1.00 atm
Total Mass          ... 101.13 AMU

Throughout the following assumptions are being made:
  (1) The electronic state is orbitally nondegenerate
  (2) There are no thermally accessible electronically excited states
  (3) Hindered rotations indicated by low frequency modes) are not
      treated as such but are treated as vibrations and this may
      case some error
  (4) All equations used are the standard statistical mechanics
      equations for an ideal gas
  (5) All vibrations are strinctly harmonic

------------
INNER ENERGY
------------

The inner energy is: U= E(el) + E(ZPE) + E(vib) + E(rot) + E(trans)
    E(el)   - is the total energy from the electronic structure calculation
              = E(kin-el) + E(nuc-el) + E(el-el) + E(nuc-nuc)
    E(ZPE)  - the the zero temperature vibrational energy from the frequency calculation
    E(vib)  - the the finite temperature correction to E(ZPE) due to population
              of excietd vibrational states
    E(rot)  - is the rotational thermal energy
    E(trans)- is the translational thermal energy

Summary of contributions to the inner energy U:
Electronic energy                ...   -342.00586951 Eh
Zero point energy                ...      0.14136579 Eh      88.71 kcal/mol
Thermal vibrational correction   ...      0.00358745 Eh       2.25 kcal/mol
Thermal rotational correction    ...      0.00141627 Eh       0.89 kcal/mol
Thermal translational correction ...      0.00141627 Eh       0.89 kcal/mol
-----------------------------------------------------------------------
Total thermal energy                   -341.85808372 Eh

Summary of corrections to the electronic energy:
(perhaps to be used in another calculation)
Total thermal correction                  0.00641999 Eh       4.03 kcal/mol
Non-thermal (ZPE) correction              0.14136579 Eh      88.71 kcal/mol
-----------------------------------------------------------------------
Total correction                          0.14778578 Eh      92.74 kcal/mol

--------
ENTHALPY
--------

The enthalpy is H = U + kB*T
                kB is Boltzmann's constant
Total free energy                 ...   -341.85808372 Eh
Thermal Enthalpy correction       ...      0.00094421 Eh       0.59 kcal/mol
-----------------------------------------------------------------------
Total Enthalpy                    ...   -341.85713951 Eh

-------
ENTROPY
-------

The entropy contributions are T*S = T*(S(el)+S(vib)+S(rot)+S(trans)
     S(el)   - electronic entropy
     S(vib)  - vibrational entropy
     S(rot)  - rotational entropy
     S(trans)- translational entropy
The entropies will be listed as mutliplied by the temperature to get
units of energy

Electronic entropy                ...      0.00000000 Eh      0.00 kcal/mol
Vibrational entropy               ...      0.00681523 Eh      4.28 kcal/mol
Rotational entropy                ...      0.01191927 Eh      7.48 kcal/mol
Translational entropy             ...      0.01888714 Eh     11.85 kcal/mol
-----------------------------------------------------------------------
Final entropy term                ...      0.03762165 Eh     23.61 kcal/mol

CAUTION: The rotational entropy is not quite correctly treated here
         because it includes a symmetry number that is not yet correctly
         implemented in ORCA!
For a nonlinear molecule the correct rotational entropy is:
    S(rot) = R*(ln(qrot/sn)+1.5)
    R    = 8.31441 J/mol/K = 1.987191683e-3 kcal/mol/K
    qrot = 203321.3233631
    sn is the rotational symmetry number. We have assumed 3 here
       if it is different for your molecule then you should correct
       the printed rotational entropy by manually evaluating the equation
       as given above

For convenience we print out the resulting values for sn=1 - 12:
 sn= 1  qrot/sn=  203321.3234 T*S(rot)=     8.13 kcal/mol T*S(tot)=    24.26 kcal/mol
 sn= 2  qrot/sn=  101660.6617 T*S(rot)=     7.72 kcal/mol T*S(tot)=    23.85 kcal/mol
 sn= 3  qrot/sn=   67773.7745 T*S(rot)=     7.48 kcal/mol T*S(tot)=    23.61 kcal/mol
 sn= 4  qrot/sn=   50830.3308 T*S(rot)=     7.31 kcal/mol T*S(tot)=    23.44 kcal/mol
 sn= 5  qrot/sn=   40664.2647 T*S(rot)=     7.18 kcal/mol T*S(tot)=    23.31 kcal/mol
 sn= 6  qrot/sn=   33886.8872 T*S(rot)=     7.07 kcal/mol T*S(tot)=    23.20 kcal/mol
 sn= 7  qrot/sn=   29045.9033 T*S(rot)=     6.98 kcal/mol T*S(tot)=    23.11 kcal/mol
 sn= 8  qrot/sn=   25415.1654 T*S(rot)=     6.90 kcal/mol T*S(tot)=    23.03 kcal/mol
 sn= 9  qrot/sn=   22591.2582 T*S(rot)=     6.83 kcal/mol T*S(tot)=    22.96 kcal/mol
 sn=10  qrot/sn=   20332.1323 T*S(rot)=     6.77 kcal/mol T*S(tot)=    22.89 kcal/mol
 sn=11  qrot/sn=   18483.7567 T*S(rot)=     6.71 kcal/mol T*S(tot)=    22.84 kcal/mol
 sn=12  qrot/sn=   16943.4436 T*S(rot)=     6.66 kcal/mol T*S(tot)=    22.79 kcal/mol

-------------------
GIBBS FREE ENTHALPY
-------------------

The Gibbs free enthalpy is G = H - T*S

Total enthalpy                    ...   -341.85713951 Eh
Total entropy correction          ...     -0.03762165 Eh    -23.61 kcal/mol
-----------------------------------------------------------------------
Final Gibbs free enthalpy         ...   -341.89476117 Eh

For completeness - the Gibbs free enthalpy minus the electronic energy
G-E(el)                           ...      0.11110834 Eh     69.72 kcal/mol

                             ****ORCA TERMINATED NORMALLY****
TOTAL RUN TIME: 0 days 0 hours 31 minutes 28 seconds 901 msec
