                         Program Version 3.0.3 - RELEASE   -
|  1> ! NORI PBE0 def2-TZVP UseSym TightOPT Freq TightSCF Grid3 FinalGrid5 XYZFile
|  2> % pal
|  3>     nprocs 8
|  4> end
|  5> %method
|  6>     SymThresh 5.0e-2
|  7> end
|  8> % geom
|  9>     MaxIter 10
| 10> end
| 11> % maxcore 2000
| 12> % output
| 13>     printlevel mini
| 14>     print[ P_Basis ] 0
| 15>     print[ P_SCFInfo ] 1
| 16>     print[ P_SCFIterInfo ] 1
| 17>     print[ P_OrbEn ] 0
| 18>     print[ P_Cartesian ] 0
| 19> end
| 20> % elprop
| 21>     Dipole false
| 22> end
| 23> *xyz 1 1
| 24>  N        1.5995848037    -0.7287490780     0.4843880277
| 25>  C        2.4138880172     0.1896689225    -0.3900586690
| 26>  C        3.0082803503     1.2932131898     0.4362125457
| 27>  O        3.3547114793     2.4289651621    -0.3026382768
| 28>  C        2.2860140720     2.5648403740     0.6354296749
| 29>  C        2.5200758878     3.4067662173     1.8160809969
| 30>  C        1.5879469419     4.2065689081     2.3146726496
| 31>  H        1.1743883565    -1.4861762826    -0.0546020280
| 32>  H        0.8513672369    -0.2112897751     0.9519965417
| 33>  H        2.1775117898    -1.1541412374     1.2132699711
| 34>  H        3.1773057116    -0.4248819565    -0.8704671000
| 35>  H        1.7481085293     0.5924768843    -1.1535195462
| 36>  H        3.7425871737     0.9840320924     1.1828192934
| 37>  H        1.3075544606     2.6684445491     0.1645577879
| 38>  H        3.5103718002     3.3528605115     2.2599359076
| 39>  H        0.6043963945     4.2889079277     1.8628776080
| 40>  H        1.7771169947     4.8166635910     3.1889446155
| 41> *
| 42>
| 43>                          ****END OF INPUT****
 Total Charge           Charge          ....    1
 Multiplicity           Mult            ....    1
 Number of Electrons    NEL             ....   54
FINAL SINGLE POINT ENERGY      -325.954307499751

CARTESIAN COORDINATES (ANGSTROEM)
---------------------------------
  N      2.279832    0.000225   -1.395220
  C      1.946419    0.143726    0.067591
  C      0.612960   -0.483439    0.355010
  O     -0.000177   -0.000299    1.515312
  C     -0.630425    0.307231    0.270734
  C     -1.927015   -0.323629   -0.008824
  C     -2.915697    0.321231   -0.612037
  H      3.180113    0.428257   -1.621955
  H      1.561658    0.442998   -1.973672
  H      2.327438   -0.984091   -1.668954
  H      2.756069   -0.330775    0.625046
  H      1.931231    1.208805    0.298187
  H      0.557753   -1.565023    0.217070
  H     -0.542861    1.357606   -0.010914
  H     -2.044981   -1.352568    0.319493
  H     -2.818493    1.358056   -0.918511
  H     -3.864000   -0.161148   -0.812739

FINAL SINGLE POINT ENERGY      -325.954308282943
                    ***********************HURRAY********************
 Multiplicity           Mult            ....    1
 Number of Electrons    NEL             ....   54
 Basis Dimension        Dim             ....  277
FINAL SINGLE POINT ENERGY      -325.954308685805

VIBRATIONAL FREQUENCIES
-----------------------

   0:         0.00 cm**-1
   1:         0.00 cm**-1
   2:         0.00 cm**-1
   3:         0.00 cm**-1
   4:         0.00 cm**-1
   5:         0.00 cm**-1
   6:        64.55 cm**-1
   7:       120.97 cm**-1
   8:       151.67 cm**-1
   9:       185.08 cm**-1
  10:       236.59 cm**-1
  11:       332.70 cm**-1
  12:       412.31 cm**-1
  13:       442.84 cm**-1
  14:       493.30 cm**-1
  15:       681.75 cm**-1
  16:       809.83 cm**-1
  17:       868.42 cm**-1
  18:       908.70 cm**-1
  19:       922.32 cm**-1
  20:       988.28 cm**-1
  21:       996.42 cm**-1
  22:      1012.25 cm**-1
  23:      1024.62 cm**-1
  24:      1038.84 cm**-1
  25:      1119.34 cm**-1
  26:      1160.30 cm**-1
  27:      1186.84 cm**-1
  28:      1213.65 cm**-1
  29:      1273.02 cm**-1
  30:      1308.31 cm**-1
  31:      1326.14 cm**-1
  32:      1353.97 cm**-1
  33:      1394.40 cm**-1
  34:      1447.80 cm**-1
  35:      1490.03 cm**-1
  36:      1499.79 cm**-1
  37:      1513.71 cm**-1
  38:      1656.94 cm**-1
  39:      1663.73 cm**-1
  40:      1723.99 cm**-1
  41:      3100.44 cm**-1
  42:      3104.14 cm**-1
  43:      3112.54 cm**-1
  44:      3160.95 cm**-1
  45:      3167.22 cm**-1
  46:      3181.29 cm**-1
  47:      3257.51 cm**-1
  48:      3418.70 cm**-1
  49:      3497.75 cm**-1
  50:      3504.95 cm**-1

IR SPECTRUM
-----------

 Mode    freq (cm**-1)   T**2         TX         TY         TZ
-------------------------------------------------------------------
   6:        64.55    9.250611  ( -2.906786   0.492995  -0.747103)
   7:       120.97    1.413320  (  0.279472   0.145387  -1.146332)
   8:       151.67    4.910848  (  2.061509   0.747073   0.320795)
   9:       185.08    0.615402  ( -0.511423   0.028047  -0.594190)
  10:       236.59    0.276510  (  0.328646   0.402279  -0.081692)
  11:       332.70    8.055873  (  0.993884  -0.662716  -2.574660)
  12:       412.31    0.373090  ( -0.429752  -0.417693  -0.118048)
  13:       442.84    6.258885  (  1.661518   0.225786  -1.856681)
  14:       493.30   19.607848  ( -4.167974  -1.098553   1.014409)
  15:       681.75    6.255612  ( -2.241878   1.041768   0.379885)
  16:       809.83   23.768264  (  2.644341  -1.646932  -3.750112)
  17:       868.42   24.372049  ( -1.252964   2.748279  -3.905009)
  18:       908.70   20.432017  ( -3.896818  -2.052039   1.017823)
  19:       922.32   17.396458  ( -2.660979   0.461955  -3.178403)
  20:       988.28    9.595372  (  0.002646  -0.784085  -2.996761)
  21:       996.42   63.690927  (  1.663996  -2.555988  -7.374888)
  22:      1012.25    6.924466  (  2.440267   0.674745   0.717135)
  23:      1024.62   13.928849  ( -2.250869   0.874297   2.845706)
  24:      1038.84   11.860844  (  2.463751  -0.037794  -2.406106)
  25:      1119.34    1.881183  (  0.911638   1.001594  -0.216583)
  26:      1160.30    1.548896  (  0.404424   0.115353  -1.171337)
  27:      1186.84    1.837959  ( -1.267779  -0.407751  -0.253839)
  28:      1213.65    1.735266  (  1.124827   0.435769   0.529279)
  29:      1273.02   12.477590  (  2.742894  -0.436045   2.182656)
  30:      1308.31    2.630160  (  1.329527  -0.796476   0.477645)
  31:      1326.14    6.504567  (  0.650207  -2.386447   0.621826)
  32:      1353.97   10.241743  ( -3.148806  -0.398586  -0.409747)
  33:      1394.40   15.115962  (  3.484141  -1.342718  -1.083434)
  34:      1447.80    4.939714  (  1.204693  -1.455201   1.170820)
  35:      1490.03   11.224599  (  1.935460   2.513295   1.077933)
  36:      1499.79   41.215314  ( -5.913101   0.534929   2.442213)
  37:      1513.71  136.803524  (  1.672733  -0.475593 -11.566300)
  38:      1656.94   48.549193  ( -1.513621   6.699877  -1.170382)
  39:      1663.73   38.789960  ( -6.077702  -1.119830  -0.772970)
  40:      1723.99    0.461865  ( -0.413280  -0.529869   0.101503)
  41:      3100.44    1.196233  ( -1.017608   0.175021   0.360659)
  42:      3104.14    6.690226  (  0.921993  -1.693700  -1.723814)
  43:      3112.54   13.221843  (  1.415744   3.174344  -1.068201)
  44:      3160.95    2.496185  ( -0.500665  -1.457033   0.350107)
  45:      3167.22    0.341320  ( -0.559472  -0.148080   0.079897)
  46:      3181.29    0.342375  ( -0.005712  -0.557766   0.176747)
  47:      3257.51    0.750019  (  0.135459  -0.801755   0.298092)
  48:      3418.70   43.440614  (  2.750110  -0.548842  -5.964585)
  49:      3497.75   96.378959  (  5.112596  -8.281627   1.286461)
  50:      3504.95  111.212700  ( -9.038374  -5.363483  -0.868066)

--------------------------
THERMOCHEMISTRY AT 298.15K
--------------------------

Temperature         ... 298.15 K
Pressure            ... 1.00 atm
Total Mass          ... 100.14 AMU

Throughout the following assumptions are being made:
  (1) The electronic state is orbitally nondegenerate
  (2) There are no thermally accessible electronically excited states
  (3) Hindered rotations indicated by low frequency modes) are not
      treated as such but are treated as vibrations and this may
      case some error
  (4) All equations used are the standard statistical mechanics
      equations for an ideal gas
  (5) All vibrations are strinctly harmonic

------------
INNER ENERGY
------------

The inner energy is: U= E(el) + E(ZPE) + E(vib) + E(rot) + E(trans)
    E(el)   - is the total energy from the electronic structure calculation
              = E(kin-el) + E(nuc-el) + E(el-el) + E(nuc-nuc)
    E(ZPE)  - the the zero temperature vibrational energy from the frequency calculation
    E(vib)  - the the finite temperature correction to E(ZPE) due to population
              of excietd vibrational states
    E(rot)  - is the rotational thermal energy
    E(trans)- is the translational thermal energy

Summary of contributions to the inner energy U:
Electronic energy                ...   -325.95430869 Eh
Zero point energy                ...      0.15156396 Eh      95.11 kcal/mol
Thermal vibrational correction   ...      0.00509695 Eh       3.20 kcal/mol
Thermal rotational correction    ...      0.00141627 Eh       0.89 kcal/mol
Thermal translational correction ...      0.00141627 Eh       0.89 kcal/mol
-----------------------------------------------------------------------
Total thermal energy                   -325.79481523 Eh

Summary of corrections to the electronic energy:
(perhaps to be used in another calculation)
Total thermal correction                  0.00792950 Eh       4.98 kcal/mol
Non-thermal (ZPE) correction              0.15156396 Eh      95.11 kcal/mol
-----------------------------------------------------------------------
Total correction                          0.15949346 Eh     100.08 kcal/mol

--------
ENTHALPY
--------

The enthalpy is H = U + kB*T
                kB is Boltzmann's constant
Total free energy                 ...   -325.79481523 Eh
Thermal Enthalpy correction       ...      0.00094421 Eh       0.59 kcal/mol
-----------------------------------------------------------------------
Total Enthalpy                    ...   -325.79387102 Eh

-------
ENTROPY
-------

The entropy contributions are T*S = T*(S(el)+S(vib)+S(rot)+S(trans)
     S(el)   - electronic entropy
     S(vib)  - vibrational entropy
     S(rot)  - rotational entropy
     S(trans)- translational entropy
The entropies will be listed as mutliplied by the temperature to get
units of energy

Electronic entropy                ...      0.00000000 Eh      0.00 kcal/mol
Vibrational entropy               ...      0.00930548 Eh      5.84 kcal/mol
Rotational entropy                ...      0.01224781 Eh      7.69 kcal/mol
Translational entropy             ...      0.01887324 Eh     11.84 kcal/mol
-----------------------------------------------------------------------
Final entropy term                ...      0.04042653 Eh     25.37 kcal/mol

CAUTION: The rotational entropy is not quite correctly treated here
         because it includes a symmetry number that is not yet correctly
         implemented in ORCA!
For a nonlinear molecule the correct rotational entropy is:
    S(rot) = R*(ln(qrot/sn)+1.5)
    R    = 8.31441 J/mol/K = 1.987191683e-3 kcal/mol/K
    qrot = 287937.4030578
    sn is the rotational symmetry number. We have assumed 3 here
       if it is different for your molecule then you should correct
       the printed rotational entropy by manually evaluating the equation
       as given above

For convenience we print out the resulting values for sn=1 - 12:
 sn= 1  qrot/sn=  287937.4031 T*S(rot)=     8.34 kcal/mol T*S(tot)=    26.02 kcal/mol
 sn= 2  qrot/sn=  143968.7015 T*S(rot)=     7.93 kcal/mol T*S(tot)=    25.61 kcal/mol
 sn= 3  qrot/sn=   95979.1344 T*S(rot)=     7.69 kcal/mol T*S(tot)=    25.37 kcal/mol
 sn= 4  qrot/sn=   71984.3508 T*S(rot)=     7.52 kcal/mol T*S(tot)=    25.20 kcal/mol
 sn= 5  qrot/sn=   57587.4806 T*S(rot)=     7.38 kcal/mol T*S(tot)=    25.07 kcal/mol
 sn= 6  qrot/sn=   47989.5672 T*S(rot)=     7.27 kcal/mol T*S(tot)=    24.96 kcal/mol
 sn= 7  qrot/sn=   41133.9147 T*S(rot)=     7.18 kcal/mol T*S(tot)=    24.87 kcal/mol
 sn= 8  qrot/sn=   35992.1754 T*S(rot)=     7.10 kcal/mol T*S(tot)=    24.79 kcal/mol
 sn= 9  qrot/sn=   31993.0448 T*S(rot)=     7.03 kcal/mol T*S(tot)=    24.72 kcal/mol
 sn=10  qrot/sn=   28793.7403 T*S(rot)=     6.97 kcal/mol T*S(tot)=    24.65 kcal/mol
 sn=11  qrot/sn=   26176.1276 T*S(rot)=     6.92 kcal/mol T*S(tot)=    24.60 kcal/mol
 sn=12  qrot/sn=   23994.7836 T*S(rot)=     6.86 kcal/mol T*S(tot)=    24.55 kcal/mol

-------------------
GIBBS FREE ENTHALPY
-------------------

The Gibbs free enthalpy is G = H - T*S

Total enthalpy                    ...   -325.79387102 Eh
Total entropy correction          ...     -0.04042653 Eh    -25.37 kcal/mol
-----------------------------------------------------------------------
Final Gibbs free enthalpy         ...   -325.83429755 Eh

For completeness - the Gibbs free enthalpy minus the electronic energy
G-E(el)                           ...      0.12001114 Eh     75.31 kcal/mol

                             ****ORCA TERMINATED NORMALLY****
TOTAL RUN TIME: 0 days 0 hours 32 minutes 56 seconds 456 msec
