                         Program Version 3.0.3 - RELEASE   -
|  1> ! NORI PBE0 def2-TZVP UseSym TightOPT Freq TightSCF Grid3 FinalGrid5 XYZFile
|  2> % pal
|  3>     nprocs 8
|  4> end
|  5> %method
|  6>     SymThresh 5.0e-2
|  7> end
|  8> % geom
|  9>     MaxIter 10
| 10> end
| 11> % maxcore 2000
| 12> % output
| 13>     printlevel mini
| 14>     print[ P_Basis ] 0
| 15>     print[ P_SCFInfo ] 1
| 16>     print[ P_SCFIterInfo ] 1
| 17>     print[ P_OrbEn ] 0
| 18>     print[ P_Cartesian ] 0
| 19> end
| 20> % elprop
| 21>     Dipole false
| 22> end
| 23> *xyz 1 1
| 24>  N        2.9902453314     1.1837104610     0.7883079013
| 25>  C        2.4331443621     0.0077764105     0.0295260197
| 26>  C        2.9740112655    -0.0071235330    -1.3713433747
| 27>  O        2.2122415218    -0.7611300542    -2.2675113734
| 28>  C        2.2443197407     0.6496225310    -2.4750205877
| 29>  C        2.9410254565     1.1479404292    -3.6222235124
| 30>  C        3.5014368060     1.5858224891    -4.5872483515
| 31>  H        2.6352772398     1.2150630806     1.7465597769
| 32>  H        2.7419900958     2.0640301372     0.3296775236
| 33>  H        4.0113559977     1.1430000416     0.8378308919
| 34>  H        2.7155901166    -0.8901394655     0.5827022445
| 35>  H        1.3467918133     0.0987020483     0.0301653293
| 36>  H        4.0545138145    -0.1241584491    -1.4696618900
| 37>  H        1.2990367271     1.1419198401    -2.2474444325
| 38>  H        3.9976097112     1.9650940332    -5.4520961649
| 39> *
| 40>
| 41>                          ****END OF INPUT****
 Total Charge           Charge          ....    1
 Multiplicity           Mult            ....    1
 Number of Electrons    NEL             ....   52
FINAL SINGLE POINT ENERGY      -324.694021020511
FINAL SINGLE POINT ENERGY      -324.694021870555

CARTESIAN COORDINATES (ANGSTROEM)
---------------------------------
  N      2.205008   -0.000151   -1.500023
  C      1.914272    0.067562   -0.023553
  C      0.521404   -0.422352    0.250489
  O      0.000542   -0.001449    1.476845
  C     -0.616682    0.517586    0.300153
  C     -1.943637    0.082708   -0.015524
  C     -3.061782   -0.251782   -0.288803
  H      3.148418    0.331589   -1.713343
  H      1.541057    0.571374   -2.028617
  H      2.128058   -0.958492   -1.849664
  H      2.666307   -0.544599    0.477339
  H      2.033632    1.104745    0.289245
  H      0.316302   -1.462545   -0.007174
  H     -0.416931    1.576640    0.138187
  H     -4.059399   -0.550862   -0.519916

FINAL SINGLE POINT ENERGY      -324.694022283826
                    ***********************HURRAY********************
 Multiplicity           Mult            ....    1
 Number of Electrons    NEL             ....   52
 Basis Dimension        Dim             ....  265
FINAL SINGLE POINT ENERGY      -324.694022364116

VIBRATIONAL FREQUENCIES
-----------------------

   0:         0.00 cm**-1
   1:         0.00 cm**-1
   2:         0.00 cm**-1
   3:         0.00 cm**-1
   4:         0.00 cm**-1
   5:         0.00 cm**-1
   6:        77.18 cm**-1
   7:       120.06 cm**-1
   8:       156.45 cm**-1
   9:       210.12 cm**-1
  10:       253.87 cm**-1
  11:       365.47 cm**-1
  12:       446.18 cm**-1
  13:       492.25 cm**-1
  14:       570.44 cm**-1
  15:       725.57 cm**-1
  16:       752.58 cm**-1
  17:       807.26 cm**-1
  18:       867.47 cm**-1
  19:       913.81 cm**-1
  20:       937.19 cm**-1
  21:       994.43 cm**-1
  22:      1032.38 cm**-1
  23:      1078.75 cm**-1
  24:      1115.85 cm**-1
  25:      1166.99 cm**-1
  26:      1188.47 cm**-1
  27:      1276.36 cm**-1
  28:      1326.32 cm**-1
  29:      1359.50 cm**-1
  30:      1397.75 cm**-1
  31:      1486.07 cm**-1
  32:      1491.46 cm**-1
  33:      1515.96 cm**-1
  34:      1657.77 cm**-1
  35:      1663.36 cm**-1
  36:      2254.78 cm**-1
  37:      3101.50 cm**-1
  38:      3114.32 cm**-1
  39:      3124.10 cm**-1
  40:      3167.30 cm**-1
  41:      3416.95 cm**-1
  42:      3463.10 cm**-1
  43:      3494.85 cm**-1
  44:      3502.35 cm**-1

IR SPECTRUM
-----------

 Mode    freq (cm**-1)   T**2         TX         TY         TZ
-------------------------------------------------------------------
   6:        77.18    8.982915  (  2.946891  -0.063327   0.542897)
   7:       120.06    5.419385  (  1.319742   0.471578   1.858838)
   8:       156.45    1.285444  (  0.838973  -0.761652  -0.038134)
   9:       210.12    1.149010  ( -0.233305   0.818569  -0.651554)
  10:       253.87    9.401480  ( -1.558669  -0.076295   2.639358)
  11:       365.47    2.999403  (  0.051340   1.670138   0.455419)
  12:       446.18   13.613732  ( -3.252269   0.202182   1.730781)
  13:       492.25    8.404730  ( -1.495158   2.433756   0.496049)
  14:       570.44   17.814148  ( -3.404143  -1.678410   1.846320)
  15:       725.57   37.605853  ( -1.946136   4.623750   3.526946)
  16:       752.58   32.820740  ( -0.303845   3.538677  -4.495129)
  17:       807.26   18.982314  (  1.882060  -1.831615  -3.476399)
  18:       867.47   29.443116  (  0.763991  -4.238424   3.300788)
  19:       913.81   21.024569  (  4.404466   1.255609  -0.220675)
  20:       937.19   15.992944  (  2.147626  -0.114365   3.371582)
  21:       994.43   29.140051  (  0.161381  -1.019405  -5.298568)
  22:      1032.38   25.884407  ( -4.935048  -0.267566   1.207525)
  23:      1078.75    5.712007  ( -1.742449  -1.297683  -0.995940)
  24:      1115.85    0.840513  ( -0.272974   0.652537  -0.583262)
  25:      1166.99    0.890593  (  0.367220   0.110920  -0.862229)
  26:      1188.47    3.177848  (  1.650756   0.555213   0.380254)
  27:      1276.36    9.484416  ( -1.696845   1.406737  -2.150865)
  28:      1326.32    5.166706  (  0.249445   2.249560  -0.209678)
  29:      1359.50   33.380333  ( -5.729842   0.030977  -0.740464)
  30:      1397.75    6.867199  (  1.594750  -1.039105  -1.801175)
  31:      1486.07    5.381408  (  2.059068  -0.529937  -0.927800)
  32:      1491.46   30.446904  ( -5.188716  -1.783596  -0.585587)
  33:      1515.96  148.316523  ( -2.708131   0.308778  11.869592)
  34:      1657.77   50.361196  (  0.824732  -7.016628   0.669283)
  35:      1663.36   39.428350  (  6.219557   0.516089   0.692179)
  36:      2254.78   23.175030  ( -4.526143  -1.268329  -1.039422)
  37:      3101.50    0.550310  ( -0.530594   0.079387   0.512326)
  38:      3114.32    5.323870  ( -0.795763   1.191949   1.808284)
  39:      3124.10    8.118049  ( -2.070215  -1.856876   0.619897)
  40:      3167.30    0.370214  ( -0.421873  -0.387895   0.204389)
  41:      3416.95   47.782359  (  2.741207  -0.193561  -6.342766)
  42:      3463.10   91.757110  ( -9.135283  -2.175918  -1.889205)
  43:      3494.85  100.019113  ( -3.839464   9.208821  -0.689381)
  44:      3502.35  114.604371  (  9.891241   3.955883   1.057692)

--------------------------
THERMOCHEMISTRY AT 298.15K
--------------------------

Temperature         ... 298.15 K
Pressure            ... 1.00 atm
Total Mass          ... 98.12 AMU

Throughout the following assumptions are being made:
  (1) The electronic state is orbitally nondegenerate
  (2) There are no thermally accessible electronically excited states
  (3) Hindered rotations indicated by low frequency modes) are not
      treated as such but are treated as vibrations and this may
      case some error
  (4) All equations used are the standard statistical mechanics
      equations for an ideal gas
  (5) All vibrations are strinctly harmonic

------------
INNER ENERGY
------------

The inner energy is: U= E(el) + E(ZPE) + E(vib) + E(rot) + E(trans)
    E(el)   - is the total energy from the electronic structure calculation
              = E(kin-el) + E(nuc-el) + E(el-el) + E(nuc-nuc)
    E(ZPE)  - the the zero temperature vibrational energy from the frequency calculation
    E(vib)  - the the finite temperature correction to E(ZPE) due to population
              of excietd vibrational states
    E(rot)  - is the rotational thermal energy
    E(trans)- is the translational thermal energy

Summary of contributions to the inner energy U:
Electronic energy                ...   -324.69402236 Eh
Zero point energy                ...      0.12777455 Eh      80.18 kcal/mol
Thermal vibrational correction   ...      0.00480084 Eh       3.01 kcal/mol
Thermal rotational correction    ...      0.00141627 Eh       0.89 kcal/mol
Thermal translational correction ...      0.00141627 Eh       0.89 kcal/mol
-----------------------------------------------------------------------
Total thermal energy                   -324.55861443 Eh

Summary of corrections to the electronic energy:
(perhaps to be used in another calculation)
Total thermal correction                  0.00763339 Eh       4.79 kcal/mol
Non-thermal (ZPE) correction              0.12777455 Eh      80.18 kcal/mol
-----------------------------------------------------------------------
Total correction                          0.13540793 Eh      84.97 kcal/mol

--------
ENTHALPY
--------

The enthalpy is H = U + kB*T
                kB is Boltzmann's constant
Total free energy                 ...   -324.55861443 Eh
Thermal Enthalpy correction       ...      0.00094421 Eh       0.59 kcal/mol
-----------------------------------------------------------------------
Total Enthalpy                    ...   -324.55767022 Eh

-------
ENTROPY
-------

The entropy contributions are T*S = T*(S(el)+S(vib)+S(rot)+S(trans)
     S(el)   - electronic entropy
     S(vib)  - vibrational entropy
     S(rot)  - rotational entropy
     S(trans)- translational entropy
The entropies will be listed as mutliplied by the temperature to get
units of energy

Electronic entropy                ...      0.00000000 Eh      0.00 kcal/mol
Vibrational entropy               ...      0.00863013 Eh      5.42 kcal/mol
Rotational entropy                ...      0.01216955 Eh      7.64 kcal/mol
Translational entropy             ...      0.01884443 Eh     11.83 kcal/mol
-----------------------------------------------------------------------
Final entropy term                ...      0.03964412 Eh     24.88 kcal/mol

CAUTION: The rotational entropy is not quite correctly treated here
         because it includes a symmetry number that is not yet correctly
         implemented in ORCA!
For a nonlinear molecule the correct rotational entropy is:
    S(rot) = R*(ln(qrot/sn)+1.5)
    R    = 8.31441 J/mol/K = 1.987191683e-3 kcal/mol/K
    qrot = 265035.3369298
    sn is the rotational symmetry number. We have assumed 3 here
       if it is different for your molecule then you should correct
       the printed rotational entropy by manually evaluating the equation
       as given above

For convenience we print out the resulting values for sn=1 - 12:
 sn= 1  qrot/sn=  265035.3369 T*S(rot)=     8.29 kcal/mol T*S(tot)=    25.53 kcal/mol
 sn= 2  qrot/sn=  132517.6685 T*S(rot)=     7.88 kcal/mol T*S(tot)=    25.12 kcal/mol
 sn= 3  qrot/sn=   88345.1123 T*S(rot)=     7.64 kcal/mol T*S(tot)=    24.88 kcal/mol
 sn= 4  qrot/sn=   66258.8342 T*S(rot)=     7.47 kcal/mol T*S(tot)=    24.71 kcal/mol
 sn= 5  qrot/sn=   53007.0674 T*S(rot)=     7.33 kcal/mol T*S(tot)=    24.57 kcal/mol
 sn= 6  qrot/sn=   44172.5562 T*S(rot)=     7.23 kcal/mol T*S(tot)=    24.47 kcal/mol
 sn= 7  qrot/sn=   37862.1910 T*S(rot)=     7.13 kcal/mol T*S(tot)=    24.37 kcal/mol
 sn= 8  qrot/sn=   33129.4171 T*S(rot)=     7.06 kcal/mol T*S(tot)=    24.30 kcal/mol
 sn= 9  qrot/sn=   29448.3708 T*S(rot)=     6.99 kcal/mol T*S(tot)=    24.23 kcal/mol
 sn=10  qrot/sn=   26503.5337 T*S(rot)=     6.92 kcal/mol T*S(tot)=    24.16 kcal/mol
 sn=11  qrot/sn=   24094.1215 T*S(rot)=     6.87 kcal/mol T*S(tot)=    24.11 kcal/mol
 sn=12  qrot/sn=   22086.2781 T*S(rot)=     6.82 kcal/mol T*S(tot)=    24.06 kcal/mol

-------------------
GIBBS FREE ENTHALPY
-------------------

The Gibbs free enthalpy is G = H - T*S

Total enthalpy                    ...   -324.55767022 Eh
Total entropy correction          ...     -0.03964412 Eh    -24.88 kcal/mol
-----------------------------------------------------------------------
Final Gibbs free enthalpy         ...   -324.59731434 Eh

For completeness - the Gibbs free enthalpy minus the electronic energy
G-E(el)                           ...      0.09670802 Eh     60.69 kcal/mol

                             ****ORCA TERMINATED NORMALLY****
TOTAL RUN TIME: 0 days 0 hours 25 minutes 50 seconds 836 msec
