                         Program Version 3.0.3 - RELEASE   -
|  1> ! NORI PBE0 def2-TZVP UseSym TightOPT Freq TightSCF Grid3 FinalGrid5 XYZFile
|  2> % pal
|  3>     nprocs 8
|  4> end
|  5> %method
|  6>     SymThresh 5.0e-2
|  7> end
|  8> % geom
|  9>     MaxIter 10
| 10> end
| 11> % maxcore 2000
| 12> % output
| 13>     printlevel mini
| 14>     print[ P_Basis ] 0
| 15>     print[ P_SCFInfo ] 1
| 16>     print[ P_SCFIterInfo ] 1
| 17>     print[ P_OrbEn ] 0
| 18>     print[ P_Cartesian ] 0
| 19> end
| 20> % elprop
| 21>     Dipole false
| 22> end
| 23> *xyz 1 1
| 24>  N        2.3914043835    -1.3366054344     0.1066601334
| 25>  C        2.5120434832     0.1521277892    -0.0672972860
| 26>  C        2.9945925336     0.4104617349    -1.4753812008
| 27>  O        3.3108947678     1.7676109019    -1.7060599497
| 28>  C        4.5012989925     1.3965758387    -2.4434907047
| 29>  C        4.4296348383    -0.0114314249    -1.8394893807
| 30>  O        4.6412737109    -1.1722821432    -2.5656163573
| 31>  H        2.1773169149    -1.5924310896     1.0721325502
| 32>  H        3.2640847409    -1.8018649225    -0.1634641134
| 33>  H        1.6533132105    -1.7194143231    -0.4887184134
| 34>  H        1.5360116449     0.5925945575     0.1406358999
| 35>  H        3.2337318141     0.5119665602     0.6667052864
| 36>  H        2.2593914549     0.0309420920    -2.2068331272
| 37>  H        4.3176741242     1.4173454992    -3.5245113668
| 38>  H        5.3543442999     2.0277333501    -2.1963493256
| 39>  H        5.0608278383    -0.0795327612    -0.9469777972
| 40>  H        4.3682512475    -1.0540462247    -3.4815148471
| 41> *
| 42>
| 43>                          ****END OF INPUT****
 Total Charge           Charge          ....    1
 Multiplicity           Mult            ....    1
 Number of Electrons    NEL             ....   56
FINAL SINGLE POINT ENERGY      -363.083856114027
FINAL SINGLE POINT ENERGY      -363.083857968280
FINAL SINGLE POINT ENERGY      -363.083859638086
FINAL SINGLE POINT ENERGY      -363.083860115070

CARTESIAN COORDINATES (ANGSTROEM)
---------------------------------
  N     -1.814674    0.372974   -1.532997
  C     -1.690756    0.060304   -0.066498
  C     -0.281942    0.403862    0.358012
  O      0.000415    0.007865    1.684278
  C      1.310239   -0.473702    1.294723
  C      0.869381   -0.468349   -0.174068
  O      1.660444   -0.004542   -1.212269
  H     -2.708430    0.059658   -1.915924
  H     -1.062136   -0.078771   -2.062637
  H     -1.736622    1.378356   -1.703184
  H     -2.450477    0.637456    0.462145
  H     -1.891893   -1.003857    0.061419
  H     -0.087728    1.479419    0.200160
  H      2.085181    0.268001    1.521303
  H      1.555559   -1.426962    1.761152
  H      0.508917   -1.459333   -0.470128
  H      2.251077    0.690676   -0.904022

FINAL SINGLE POINT ENERGY      -363.083860423974
                    ***********************HURRAY********************
 Multiplicity           Mult            ....    1
 Number of Electrons    NEL             ....   56
 Basis Dimension        Dim             ....  277
FINAL SINGLE POINT ENERGY      -363.083860543847

VIBRATIONAL FREQUENCIES
-----------------------

   0:         0.00 cm**-1
   1:         0.00 cm**-1
   2:         0.00 cm**-1
   3:         0.00 cm**-1
   4:         0.00 cm**-1
   5:         0.00 cm**-1
   6:        76.47 cm**-1
   7:        99.96 cm**-1
   8:       169.58 cm**-1
   9:       218.74 cm**-1
  10:       311.94 cm**-1
  11:       334.14 cm**-1
  12:       355.82 cm**-1
  13:       431.23 cm**-1
  14:       516.54 cm**-1
  15:       691.45 cm**-1
  16:       816.84 cm**-1
  17:       886.66 cm**-1
  18:       939.96 cm**-1
  19:       970.10 cm**-1
  20:       987.72 cm**-1
  21:      1026.08 cm**-1
  22:      1033.10 cm**-1
  23:      1111.37 cm**-1
  24:      1128.58 cm**-1
  25:      1157.35 cm**-1
  26:      1177.15 cm**-1
  27:      1202.91 cm**-1
  28:      1251.17 cm**-1
  29:      1287.52 cm**-1
  30:      1304.64 cm**-1
  31:      1325.30 cm**-1
  32:      1350.96 cm**-1
  33:      1380.61 cm**-1
  34:      1422.80 cm**-1
  35:      1438.16 cm**-1
  36:      1496.67 cm**-1
  37:      1512.28 cm**-1
  38:      1517.31 cm**-1
  39:      1655.20 cm**-1
  40:      1662.60 cm**-1
  41:      2963.09 cm**-1
  42:      3046.59 cm**-1
  43:      3065.76 cm**-1
  44:      3101.84 cm**-1
  45:      3150.79 cm**-1
  46:      3165.05 cm**-1
  47:      3409.63 cm**-1
  48:      3482.82 cm**-1
  49:      3510.66 cm**-1
  50:      3836.35 cm**-1

IR SPECTRUM
-----------

 Mode    freq (cm**-1)   T**2         TX         TY         TZ
-------------------------------------------------------------------
   6:        76.47   18.862369  ( -4.303161   0.001906   0.587511)
   7:        99.96   13.128423  ( -1.006578  -3.470877   0.261217)
   8:       169.58    1.785311  ( -0.478076   1.213148  -0.291593)
   9:       218.74    6.363906  (  1.493449  -1.970411   0.500994)
  10:       311.94   33.410718  (  5.306831  -1.907626   1.268552)
  11:       334.14   49.198652  ( -4.184447   4.956516  -2.668709)
  12:       355.82   25.825139  ( -3.394130   3.765275   0.357386)
  13:       431.23   35.774060  ( -4.252781   0.919835  -4.103878)
  14:       516.54    2.030278  (  1.351614  -0.140459  -0.428588)
  15:       691.45    6.479769  (  2.293083   0.325114   1.056335)
  16:       816.84   10.090103  ( -1.251200   2.256969  -1.852212)
  17:       886.66   18.389092  (  1.599802  -2.822333  -2.804312)
  18:       939.96   30.402446  ( -5.504193  -0.217452  -0.242936)
  19:       970.10   15.739870  ( -3.279220  -0.497368   2.176974)
  20:       987.72   22.384444  (  4.378476  -0.817561  -1.595300)
  21:      1026.08   46.670128  ( -4.558035   3.852541  -3.324511)
  22:      1033.10   19.605812  ( -1.293788  -0.643736   4.185395)
  23:      1111.37   20.074516  (  2.611730  -1.273809   3.410395)
  24:      1128.58   49.587419  (  7.035092  -0.307963   0.007813)
  25:      1157.35   10.741769  (  0.235574   2.125954  -2.483262)
  26:      1177.15    2.330053  (  1.069766  -0.133182   1.080702)
  27:      1202.91  118.934312  ( -6.264073  -2.671540   8.518132)
  28:      1251.17   11.012925  ( -2.816687   0.611190   1.644885)
  29:      1287.52    2.436590  (  0.304165  -1.039150  -1.124385)
  30:      1304.64    1.646473  (  0.195889   0.463357   1.180424)
  31:      1325.30    6.654103  ( -0.987048   2.382085   0.074217)
  32:      1350.96    7.876649  (  2.413291  -1.197791   0.786113)
  33:      1380.61    8.509017  (  2.699616   0.387888  -1.034715)
  34:      1422.80   15.405127  (  2.810588   0.850437  -2.604319)
  35:      1438.16   34.183251  (  2.782408   0.894573  -5.063714)
  36:      1496.67   19.062401  (  3.820186   1.883486  -0.959719)
  37:      1512.28   15.841033  (  0.644254  -1.495654   3.631665)
  38:      1517.31  153.472572  ( -2.487404   1.977259 -11.973965)
  39:      1655.20   46.946180  ( -0.553507   6.546032   1.946607)
  40:      1662.60   40.784113  (  6.386011   0.028478   0.046589)
  41:      2963.09   38.759123  (  0.455931  -5.309158   3.219330)
  42:      3046.59   17.106049  ( -4.081915  -0.517073  -0.420300)
  43:      3065.76   26.188282  ( -3.894279  -3.226077  -0.784412)
  44:      3101.84    0.779413  ( -0.740831  -0.448205  -0.172323)
  45:      3150.79    7.183427  ( -0.530376   2.391030  -1.088624)
  46:      3165.05    0.133247  (  0.177213  -0.165246   0.273014)
  47:      3409.63   38.814959  (  0.934703   0.095338  -6.158912)
  48:      3482.82  110.164226  ( -7.418509   7.421772  -0.217377)
  49:      3510.66  115.946245  (  8.587090   6.199256   1.943542)
  50:      3836.35   64.811851  ( -6.448693  -4.815502   0.192729)

--------------------------
THERMOCHEMISTRY AT 298.15K
--------------------------

Temperature         ... 298.15 K
Pressure            ... 1.00 atm
Total Mass          ... 104.13 AMU

Throughout the following assumptions are being made:
  (1) The electronic state is orbitally nondegenerate
  (2) There are no thermally accessible electronically excited states
  (3) Hindered rotations indicated by low frequency modes) are not
      treated as such but are treated as vibrations and this may
      case some error
  (4) All equations used are the standard statistical mechanics
      equations for an ideal gas
  (5) All vibrations are strinctly harmonic

------------
INNER ENERGY
------------

The inner energy is: U= E(el) + E(ZPE) + E(vib) + E(rot) + E(trans)
    E(el)   - is the total energy from the electronic structure calculation
              = E(kin-el) + E(nuc-el) + E(el-el) + E(nuc-nuc)
    E(ZPE)  - the the zero temperature vibrational energy from the frequency calculation
    E(vib)  - the the finite temperature correction to E(ZPE) due to population
              of excietd vibrational states
    E(rot)  - is the rotational thermal energy
    E(trans)- is the translational thermal energy

Summary of contributions to the inner energy U:
Electronic energy                ...   -363.08386054 Eh
Zero point energy                ...      0.15259503 Eh      95.75 kcal/mol
Thermal vibrational correction   ...      0.00492503 Eh       3.09 kcal/mol
Thermal rotational correction    ...      0.00141627 Eh       0.89 kcal/mol
Thermal translational correction ...      0.00141627 Eh       0.89 kcal/mol
-----------------------------------------------------------------------
Total thermal energy                   -362.92350794 Eh

Summary of corrections to the electronic energy:
(perhaps to be used in another calculation)
Total thermal correction                  0.00775757 Eh       4.87 kcal/mol
Non-thermal (ZPE) correction              0.15259503 Eh      95.75 kcal/mol
-----------------------------------------------------------------------
Total correction                          0.16035260 Eh     100.62 kcal/mol

--------
ENTHALPY
--------

The enthalpy is H = U + kB*T
                kB is Boltzmann's constant
Total free energy                 ...   -362.92350794 Eh
Thermal Enthalpy correction       ...      0.00094421 Eh       0.59 kcal/mol
-----------------------------------------------------------------------
Total Enthalpy                    ...   -362.92256373 Eh

-------
ENTROPY
-------

The entropy contributions are T*S = T*(S(el)+S(vib)+S(rot)+S(trans)
     S(el)   - electronic entropy
     S(vib)  - vibrational entropy
     S(rot)  - rotational entropy
     S(trans)- translational entropy
The entropies will be listed as mutliplied by the temperature to get
units of energy

Electronic entropy                ...      0.00000000 Eh      0.00 kcal/mol
Vibrational entropy               ...      0.00887526 Eh      5.57 kcal/mol
Rotational entropy                ...      0.01209901 Eh      7.59 kcal/mol
Translational entropy             ...      0.01892854 Eh     11.88 kcal/mol
-----------------------------------------------------------------------
Final entropy term                ...      0.03990281 Eh     25.04 kcal/mol

CAUTION: The rotational entropy is not quite correctly treated here
         because it includes a symmetry number that is not yet correctly
         implemented in ORCA!
For a nonlinear molecule the correct rotational entropy is:
    S(rot) = R*(ln(qrot/sn)+1.5)
    R    = 8.31441 J/mol/K = 1.987191683e-3 kcal/mol/K
    qrot = 245953.7976148
    sn is the rotational symmetry number. We have assumed 3 here
       if it is different for your molecule then you should correct
       the printed rotational entropy by manually evaluating the equation
       as given above

For convenience we print out the resulting values for sn=1 - 12:
 sn= 1  qrot/sn=  245953.7976 T*S(rot)=     8.24 kcal/mol T*S(tot)=    25.69 kcal/mol
 sn= 2  qrot/sn=  122976.8988 T*S(rot)=     7.83 kcal/mol T*S(tot)=    25.28 kcal/mol
 sn= 3  qrot/sn=   81984.5992 T*S(rot)=     7.59 kcal/mol T*S(tot)=    25.04 kcal/mol
 sn= 4  qrot/sn=   61488.4494 T*S(rot)=     7.42 kcal/mol T*S(tot)=    24.87 kcal/mol
 sn= 5  qrot/sn=   49190.7595 T*S(rot)=     7.29 kcal/mol T*S(tot)=    24.74 kcal/mol
 sn= 6  qrot/sn=   40992.2996 T*S(rot)=     7.18 kcal/mol T*S(tot)=    24.63 kcal/mol
 sn= 7  qrot/sn=   35136.2568 T*S(rot)=     7.09 kcal/mol T*S(tot)=    24.54 kcal/mol
 sn= 8  qrot/sn=   30744.2247 T*S(rot)=     7.01 kcal/mol T*S(tot)=    24.46 kcal/mol
 sn= 9  qrot/sn=   27328.1997 T*S(rot)=     6.94 kcal/mol T*S(tot)=    24.39 kcal/mol
 sn=10  qrot/sn=   24595.3798 T*S(rot)=     6.88 kcal/mol T*S(tot)=    24.33 kcal/mol
 sn=11  qrot/sn=   22359.4361 T*S(rot)=     6.82 kcal/mol T*S(tot)=    24.27 kcal/mol
 sn=12  qrot/sn=   20496.1498 T*S(rot)=     6.77 kcal/mol T*S(tot)=    24.22 kcal/mol

-------------------
GIBBS FREE ENTHALPY
-------------------

The Gibbs free enthalpy is G = H - T*S

Total enthalpy                    ...   -362.92256373 Eh
Total entropy correction          ...     -0.03990281 Eh    -25.04 kcal/mol
-----------------------------------------------------------------------
Final Gibbs free enthalpy         ...   -362.96246655 Eh

For completeness - the Gibbs free enthalpy minus the electronic energy
G-E(el)                           ...      0.12139400 Eh     76.18 kcal/mol

                             ****ORCA TERMINATED NORMALLY****
TOTAL RUN TIME: 0 days 0 hours 38 minutes 11 seconds 986 msec
