                         Program Version 3.0.3 - RELEASE   -
|  1> ! NORI PBE0 def2-TZVP UseSym TightOPT Freq TightSCF Grid3 FinalGrid5 XYZFile
|  2> % pal
|  3>     nprocs 8
|  4> end
|  5> %method
|  6>     SymThresh 5.0e-2
|  7> end
|  8> % geom
|  9>     MaxIter 10
| 10> end
| 11> % maxcore 2000
| 12> % output
| 13>     printlevel mini
| 14>     print[ P_Basis ] 0
| 15>     print[ P_SCFInfo ] 1
| 16>     print[ P_SCFIterInfo ] 1
| 17>     print[ P_OrbEn ] 0
| 18>     print[ P_Cartesian ] 0
| 19> end
| 20> % elprop
| 21>     Dipole false
| 22> end
| 23> *xyz 1 1
| 24>  N        3.6663545689     0.6502160507    -1.0738417730
| 25>  C        2.7147536474    -0.1561173390    -0.2406802933
| 26>  C        3.0483939661    -0.1046158032     1.2308563484
| 27>  O        1.9592885456    -0.5528739332     1.9622507812
| 28>  C        4.4258927567    -0.3253098719     1.7848565345
| 29>  C        3.7814413598     1.0334691093     1.8899299984
| 30>  O        3.3176740622     1.5214198495     3.0784508416
| 31>  H        3.4127281464     0.6123878272    -2.0631416340
| 32>  H        4.6254893916     0.3067294797    -0.9835939552
| 33>  H        3.6584517214     1.6306753762    -0.7815251196
| 34>  H        2.7416489270    -1.1768687495    -0.6290155433
| 35>  H        1.7187273644     0.2590918849    -0.4024193768
| 36>  H        2.0738177105    -1.4749316530     2.2155825689
| 37>  H        5.2740112938    -0.4505757432     1.1170454252
| 38>  H        4.4953837428    -0.9120242501     2.6937457304
| 39>  H        4.2206583490     1.8255404990     1.2845700570
| 40>  H        2.5139544464     1.0411172665     3.3192694097
| 41> *
| 42>
| 43>                          ****END OF INPUT****
 Total Charge           Charge          ....    1
 Multiplicity           Mult            ....    1
 Number of Electrons    NEL             ....   56
FINAL SINGLE POINT ENERGY      -363.081621020106
FINAL SINGLE POINT ENERGY      -363.081623555077
FINAL SINGLE POINT ENERGY      -363.081627650553
FINAL SINGLE POINT ENERGY      -363.081629039859
FINAL SINGLE POINT ENERGY      -363.081631167152

CARTESIAN COORDINATES (ANGSTROEM)
---------------------------------
  N     -1.626589    0.872866   -1.471608
  C     -1.499671    0.633136    0.003769
  C     -0.248310   -0.133470    0.358390
  O      0.005212    0.004091    1.714631
  C      0.182994   -1.398376   -0.324149
  C      1.003171   -0.142878   -0.480548
  O      2.213399    0.013863    0.132250
  H     -2.462966    1.419448   -1.686222
  H     -1.686608   -0.005982   -1.991255
  H     -0.813368    1.386162   -1.821466
  H     -2.404686    0.107818    0.317485
  H     -1.472083    1.612467    0.483845
  H     -0.328219   -0.755830    2.203543
  H     -0.364644   -1.775159   -1.183669
  H      0.587504   -2.177489    0.312112
  H      1.003453    0.313024   -1.469786
  H      2.069079    0.104548    1.083944

FINAL SINGLE POINT ENERGY      -363.081632020542
                    ***********************HURRAY********************
 Multiplicity           Mult            ....    1
 Number of Electrons    NEL             ....   56
 Basis Dimension        Dim             ....  277
FINAL SINGLE POINT ENERGY      -363.081632410889

VIBRATIONAL FREQUENCIES
-----------------------

   0:         0.00 cm**-1
   1:         0.00 cm**-1
   2:         0.00 cm**-1
   3:         0.00 cm**-1
   4:         0.00 cm**-1
   5:         0.00 cm**-1
   6:        58.22 cm**-1
   7:       180.84 cm**-1
   8:       196.54 cm**-1
   9:       230.60 cm**-1
  10:       261.30 cm**-1
  11:       279.87 cm**-1
  12:       393.29 cm**-1
  13:       424.29 cm**-1
  14:       447.67 cm**-1
  15:       484.67 cm**-1
  16:       574.53 cm**-1
  17:       710.92 cm**-1
  18:       793.87 cm**-1
  19:       844.70 cm**-1
  20:       911.03 cm**-1
  21:       918.54 cm**-1
  22:       973.55 cm**-1
  23:      1029.63 cm**-1
  24:      1033.85 cm**-1
  25:      1068.84 cm**-1
  26:      1111.24 cm**-1
  27:      1120.07 cm**-1
  28:      1207.90 cm**-1
  29:      1236.92 cm**-1
  30:      1307.23 cm**-1
  31:      1321.33 cm**-1
  32:      1348.54 cm**-1
  33:      1370.36 cm**-1
  34:      1418.04 cm**-1
  35:      1430.35 cm**-1
  36:      1487.79 cm**-1
  37:      1496.18 cm**-1
  38:      1504.12 cm**-1
  39:      1650.88 cm**-1
  40:      1662.17 cm**-1
  41:      3086.54 cm**-1
  42:      3116.21 cm**-1
  43:      3130.34 cm**-1
  44:      3149.54 cm**-1
  45:      3225.36 cm**-1
  46:      3415.57 cm**-1
  47:      3491.09 cm**-1
  48:      3506.54 cm**-1
  49:      3775.81 cm**-1
  50:      3833.18 cm**-1

IR SPECTRUM
-----------

 Mode    freq (cm**-1)   T**2         TX         TY         TZ
-------------------------------------------------------------------
   6:        58.22    6.264972  ( -1.936151  -1.411282  -0.724274)
   7:       180.84    0.912956  ( -0.485118   0.802606  -0.182867)
   8:       196.54   18.425659  (  3.463098  -2.389884   0.849156)
   9:       230.60   12.491154  (  3.370065   0.756391   0.749458)
  10:       261.30    7.123750  ( -2.262933  -1.176131   0.787147)
  11:       279.87   22.188498  (  3.623288   2.818650  -1.056168)
  12:       393.29   51.612517  ( -4.009577   5.336343   2.656927)
  13:       424.29   97.652619  ( -5.646358   8.021122  -1.197028)
  14:       447.67   24.373589  (  1.285371  -3.950982  -2.666675)
  15:       484.67    1.133131  (  0.648943  -0.715486   0.447307)
  16:       574.53   16.617555  ( -3.269677   1.200710  -2.117797)
  17:       710.92   18.737629  ( -0.841760  -2.114652  -3.682026)
  18:       793.87    3.905222  ( -1.974373   0.006256   0.083865)
  19:       844.70    5.907103  ( -1.820730  -1.434248   0.731420)
  20:       911.03    9.302508  (  0.767129   2.567003  -1.457573)
  21:       918.54   22.917751  (  4.396746   1.573703   1.053486)
  22:       973.55   15.018095  (  1.676475  -1.894795   2.935520)
  23:      1029.63    9.090524  (  0.225157   0.446317  -2.973320)
  24:      1033.85   18.452077  ( -1.973922   0.359575   3.798212)
  25:      1068.84   37.399707  (  5.123839  -3.286380   0.587950)
  26:      1111.24   17.377771  (  3.996012  -1.155164  -0.274321)
  27:      1120.07   18.023783  ( -0.780622  -0.057998  -4.172655)
  28:      1207.90  169.932250  (-11.868054  -2.621053  -4.712923)
  29:      1236.92   48.932748  (  0.144147   0.163788  -6.991791)
  30:      1307.23   19.072770  (  0.126844  -0.798711  -4.291706)
  31:      1321.33   11.165608  ( -2.511232   2.147962   0.495560)
  32:      1348.54   22.814647  (  1.489858   3.150037   3.266839)
  33:      1370.36    4.842819  ( -2.183007  -0.257367   0.105173)
  34:      1418.04    4.108556  ( -1.299436   0.825225  -1.318722)
  35:      1430.35   39.760318  ( -5.857510   0.970076  -2.123405)
  36:      1487.79   32.565304  (  2.439622   3.626220   3.669343)
  37:      1496.18   54.296506  (  6.672829   0.619667   3.063637)
  38:      1504.12  141.014721  (  1.339844  -3.729022  11.194371)
  39:      1650.88   60.650996  ( -2.070164  -7.489164  -0.527109)
  40:      1662.17   48.382641  (  6.550156  -2.131555   0.966731)
  41:      3086.54    4.045606  (  1.972017  -0.331903  -0.215859)
  42:      3116.21   25.246992  ( -1.915063   2.352523  -4.005642)
  43:      3130.34   16.669436  ( -2.505117   1.195527  -2.994084)
  44:      3149.54    0.530411  ( -0.480190   0.160711   0.523450)
  45:      3225.36    2.879526  (  0.372617   1.338032   0.974860)
  46:      3415.57   29.706080  (  0.061092   1.411745  -5.263965)
  47:      3491.09   86.162318  ( -6.761005  -6.172518  -1.533343)
  48:      3506.54  123.710389  (  8.524666  -7.144247   0.013887)
  49:      3775.81   83.259442  (  1.073974   1.322710   8.964176)
  50:      3833.18   87.729132  (  2.015211   5.739047  -7.122597)

--------------------------
THERMOCHEMISTRY AT 298.15K
--------------------------

Temperature         ... 298.15 K
Pressure            ... 1.00 atm
Total Mass          ... 104.13 AMU

Throughout the following assumptions are being made:
  (1) The electronic state is orbitally nondegenerate
  (2) There are no thermally accessible electronically excited states
  (3) Hindered rotations indicated by low frequency modes) are not
      treated as such but are treated as vibrations and this may
      case some error
  (4) All equations used are the standard statistical mechanics
      equations for an ideal gas
  (5) All vibrations are strinctly harmonic

------------
INNER ENERGY
------------

The inner energy is: U= E(el) + E(ZPE) + E(vib) + E(rot) + E(trans)
    E(el)   - is the total energy from the electronic structure calculation
              = E(kin-el) + E(nuc-el) + E(el-el) + E(nuc-nuc)
    E(ZPE)  - the the zero temperature vibrational energy from the frequency calculation
    E(vib)  - the the finite temperature correction to E(ZPE) due to population
              of excietd vibrational states
    E(rot)  - is the rotational thermal energy
    E(trans)- is the translational thermal energy

Summary of contributions to the inner energy U:
Electronic energy                ...   -363.08163241 Eh
Zero point energy                ...      0.15086034 Eh      94.67 kcal/mol
Thermal vibrational correction   ...      0.00532619 Eh       3.34 kcal/mol
Thermal rotational correction    ...      0.00141627 Eh       0.89 kcal/mol
Thermal translational correction ...      0.00141627 Eh       0.89 kcal/mol
-----------------------------------------------------------------------
Total thermal energy                   -362.92261334 Eh

Summary of corrections to the electronic energy:
(perhaps to be used in another calculation)
Total thermal correction                  0.00815873 Eh       5.12 kcal/mol
Non-thermal (ZPE) correction              0.15086034 Eh      94.67 kcal/mol
-----------------------------------------------------------------------
Total correction                          0.15901907 Eh      99.79 kcal/mol

--------
ENTHALPY
--------

The enthalpy is H = U + kB*T
                kB is Boltzmann's constant
Total free energy                 ...   -362.92261334 Eh
Thermal Enthalpy correction       ...      0.00094421 Eh       0.59 kcal/mol
-----------------------------------------------------------------------
Total Enthalpy                    ...   -362.92166913 Eh

-------
ENTROPY
-------

The entropy contributions are T*S = T*(S(el)+S(vib)+S(rot)+S(trans)
     S(el)   - electronic entropy
     S(vib)  - vibrational entropy
     S(rot)  - rotational entropy
     S(trans)- translational entropy
The entropies will be listed as mutliplied by the temperature to get
units of energy

Electronic entropy                ...      0.00000000 Eh      0.00 kcal/mol
Vibrational entropy               ...      0.00930060 Eh      5.84 kcal/mol
Rotational entropy                ...      0.01205880 Eh      7.57 kcal/mol
Translational entropy             ...      0.01892854 Eh     11.88 kcal/mol
-----------------------------------------------------------------------
Final entropy term                ...      0.04028795 Eh     25.28 kcal/mol

CAUTION: The rotational entropy is not quite correctly treated here
         because it includes a symmetry number that is not yet correctly
         implemented in ORCA!
For a nonlinear molecule the correct rotational entropy is:
    S(rot) = R*(ln(qrot/sn)+1.5)
    R    = 8.31441 J/mol/K = 1.987191683e-3 kcal/mol/K
    qrot = 235700.3103694
    sn is the rotational symmetry number. We have assumed 3 here
       if it is different for your molecule then you should correct
       the printed rotational entropy by manually evaluating the equation
       as given above

For convenience we print out the resulting values for sn=1 - 12:
 sn= 1  qrot/sn=  235700.3104 T*S(rot)=     8.22 kcal/mol T*S(tot)=    25.93 kcal/mol
 sn= 2  qrot/sn=  117850.1552 T*S(rot)=     7.81 kcal/mol T*S(tot)=    25.52 kcal/mol
 sn= 3  qrot/sn=   78566.7701 T*S(rot)=     7.57 kcal/mol T*S(tot)=    25.28 kcal/mol
 sn= 4  qrot/sn=   58925.0776 T*S(rot)=     7.40 kcal/mol T*S(tot)=    25.11 kcal/mol
 sn= 5  qrot/sn=   47140.0621 T*S(rot)=     7.26 kcal/mol T*S(tot)=    24.98 kcal/mol
 sn= 6  qrot/sn=   39283.3851 T*S(rot)=     7.16 kcal/mol T*S(tot)=    24.87 kcal/mol
 sn= 7  qrot/sn=   33671.4729 T*S(rot)=     7.06 kcal/mol T*S(tot)=    24.78 kcal/mol
 sn= 8  qrot/sn=   29462.5388 T*S(rot)=     6.99 kcal/mol T*S(tot)=    24.70 kcal/mol
 sn= 9  qrot/sn=   26188.9234 T*S(rot)=     6.92 kcal/mol T*S(tot)=    24.63 kcal/mol
 sn=10  qrot/sn=   23570.0310 T*S(rot)=     6.85 kcal/mol T*S(tot)=    24.57 kcal/mol
 sn=11  qrot/sn=   21427.3009 T*S(rot)=     6.80 kcal/mol T*S(tot)=    24.51 kcal/mol
 sn=12  qrot/sn=   19641.6925 T*S(rot)=     6.75 kcal/mol T*S(tot)=    24.46 kcal/mol

-------------------
GIBBS FREE ENTHALPY
-------------------

The Gibbs free enthalpy is G = H - T*S

Total enthalpy                    ...   -362.92166913 Eh
Total entropy correction          ...     -0.04028795 Eh    -25.28 kcal/mol
-----------------------------------------------------------------------
Final Gibbs free enthalpy         ...   -362.96195708 Eh

For completeness - the Gibbs free enthalpy minus the electronic energy
G-E(el)                           ...      0.11967533 Eh     75.10 kcal/mol

                             ****ORCA TERMINATED NORMALLY****
TOTAL RUN TIME: 0 days 0 hours 39 minutes 38 seconds 954 msec
