                         Program Version 3.0.3 - RELEASE   -
|  1> ! NORI PBE0 def2-TZVP UseSym TightOPT Freq TightSCF Grid3 FinalGrid5 XYZFile
|  2> % pal
|  3>     nprocs 8
|  4> end
|  5> %method
|  6>     SymThresh 5.0e-2
|  7> end
|  8> % geom
|  9>     MaxIter 10
| 10> end
| 11> % maxcore 2000
| 12> % output
| 13>     printlevel mini
| 14>     print[ P_Basis ] 0
| 15>     print[ P_SCFInfo ] 1
| 16>     print[ P_SCFIterInfo ] 1
| 17>     print[ P_OrbEn ] 0
| 18>     print[ P_Cartesian ] 0
| 19> end
| 20> % elprop
| 21>     Dipole false
| 22> end
| 23> *xyz 1 1
| 24>  N        1.0115276128     0.3065330718    -0.4931968289
| 25>  C        2.3871990482     0.0158654950     0.0381685237
| 26>  C        2.9145299865     1.1314748567     0.9315187717
| 27>  O        4.1265870094     0.6561660577     1.4506236894
| 28>  C        3.0065848348     2.5795257620     0.4084179773
| 29>  C        2.5929741841     3.0597002720     1.8141328950
| 30>  C        2.0538134324     1.6444447101     2.1028704447
| 31>  H        0.6603612445    -0.4582416657    -1.0726043429
| 32>  H        1.0097402179     1.1591026522    -1.0573616525
| 33>  H        0.3552024836     0.4487614792     0.2782135877
| 34>  H        3.0345359359    -0.1391837352    -0.8266180740
| 35>  H        2.3222384615    -0.9125915119     0.6067569594
| 36>  H        4.8565771575     0.8926584742     0.8692798597
| 37>  H        2.2424217749     2.8259490612    -0.3378160734
| 38>  H        3.9736893486     2.8904444502     0.0083473206
| 39>  H        1.8860956472     3.8851631138     1.8680340062
| 40>  H        3.4573877439     3.2910919660     2.4337277723
| 41>  H        2.2725732187     1.1860749415     3.0662334142
| 42>  H        0.9728706575     1.5874505491     1.9259517495
| 43> *
| 44>
| 45>                          ****END OF INPUT****
 Total Charge           Charge          ....    1
 Multiplicity           Mult            ....    1
 Number of Electrons    NEL             ....   56
FINAL SINGLE POINT ENERGY      -327.199833637337
FINAL SINGLE POINT ENERGY      -327.199834812325

CARTESIAN COORDINATES (ANGSTROEM)
---------------------------------
  N      1.774133    0.001168   -1.451238
  C      1.532597    0.097780    0.028749
  C      0.052047    0.034686    0.381497
  O     -0.000295   -0.000297    1.781568
  C     -0.945108    1.035795   -0.237410
  C     -1.975414   -0.109751   -0.304243
  C     -0.816242   -1.116795   -0.164213
  H      2.770696    0.025324   -1.674203
  H      1.319150    0.770988   -1.946495
  H      1.386646   -0.870791   -1.818814
  H      1.980177    1.035990    0.362002
  H      2.059820   -0.734821    0.496015
  H     -0.038803    0.892857    2.138951
  H     -0.661734    1.375697   -1.240631
  H     -1.177392    1.920299    0.358834
  H     -2.588493   -0.174104   -1.200740
  H     -2.623057   -0.122653    0.570517
  H     -0.933533   -1.961512    0.512964
  H     -0.499008   -1.495269   -1.142851

FINAL SINGLE POINT ENERGY      -327.199835240433
                    ***********************HURRAY********************
 Multiplicity           Mult            ....    1
 Number of Electrons    NEL             ....   56
 Basis Dimension        Dim             ....  289
FINAL SINGLE POINT ENERGY      -327.199835465969

VIBRATIONAL FREQUENCIES
-----------------------

   0:         0.00 cm**-1
   1:         0.00 cm**-1
   2:         0.00 cm**-1
   3:         0.00 cm**-1
   4:         0.00 cm**-1
   5:         0.00 cm**-1
   6:       105.28 cm**-1
   7:       127.12 cm**-1
   8:       177.45 cm**-1
   9:       234.89 cm**-1
  10:       269.72 cm**-1
  11:       300.18 cm**-1
  12:       391.10 cm**-1
  13:       443.40 cm**-1
  14:       474.85 cm**-1
  15:       603.19 cm**-1
  16:       713.99 cm**-1
  17:       758.94 cm**-1
  18:       828.50 cm**-1
  19:       884.27 cm**-1
  20:       936.05 cm**-1
  21:       952.79 cm**-1
  22:       959.44 cm**-1
  23:       967.89 cm**-1
  24:       987.28 cm**-1
  25:      1048.75 cm**-1
  26:      1053.52 cm**-1
  27:      1134.28 cm**-1
  28:      1190.18 cm**-1
  29:      1208.60 cm**-1
  30:      1219.33 cm**-1
  31:      1249.00 cm**-1
  32:      1270.48 cm**-1
  33:      1282.02 cm**-1
  34:      1305.64 cm**-1
  35:      1325.05 cm**-1
  36:      1370.01 cm**-1
  37:      1405.14 cm**-1
  38:      1452.07 cm**-1
  39:      1468.64 cm**-1
  40:      1480.52 cm**-1
  41:      1494.20 cm**-1
  42:      1497.33 cm**-1
  43:      1648.29 cm**-1
  44:      1662.61 cm**-1
  45:      3037.54 cm**-1
  46:      3045.23 cm**-1
  47:      3094.66 cm**-1
  48:      3113.74 cm**-1
  49:      3120.06 cm**-1
  50:      3149.97 cm**-1
  51:      3159.84 cm**-1
  52:      3175.95 cm**-1
  53:      3420.57 cm**-1
  54:      3497.10 cm**-1
  55:      3511.25 cm**-1
  56:      3838.20 cm**-1

IR SPECTRUM
-----------

 Mode    freq (cm**-1)   T**2         TX         TY         TZ
-------------------------------------------------------------------
   6:       105.28    4.133064  (  0.410292   1.923127  -0.516050)
   7:       127.12    5.652599  (  2.351808   0.338447   0.083967)
   8:       177.45    2.015516  ( -1.221628  -0.695810   0.197457)
   9:       234.89    2.611784  ( -0.042943   0.286011  -1.590012)
  10:       269.72  112.113603  ( 10.559811  -0.132403   0.765811)
  11:       300.18    8.366734  ( -2.694173   1.026252   0.234460)
  12:       391.10    7.099918  (  1.534969  -0.039169  -2.177672)
  13:       443.40   10.352626  (  2.105636  -0.522822  -2.376043)
  14:       474.85   10.486902  ( -2.414848  -0.201453   2.148215)
  15:       603.19    1.082365  (  0.499195   0.041235   0.911849)
  16:       713.99    1.798145  ( -0.976017   0.160578   0.905401)
  17:       758.94    1.842862  ( -0.471038   1.273022   0.019994)
  18:       828.50    5.192223  (  0.029298   2.161126  -0.721733)
  19:       884.27    3.650086  (  1.907537   0.042714  -0.097802)
  20:       936.05   38.987615  ( -4.662764  -0.017921   4.152822)
  21:       952.79   21.672893  ( -0.519212   0.720905   4.569859)
  22:       959.44    2.391066  (  0.379712  -1.479899  -0.238290)
  23:       967.89    8.464658  ( -0.283492  -2.783650  -0.797234)
  24:       987.28    1.355841  (  1.158691  -0.025832   0.112288)
  25:      1048.75   34.137928  ( -3.816636  -0.351129  -4.409980)
  26:      1053.52   11.584319  ( -3.352481   0.151212   0.567738)
  27:      1134.28   37.854400  ( -0.534072  -0.319982   6.121011)
  28:      1190.18   14.989906  ( -1.787654  -0.153486   3.430837)
  29:      1208.60    6.363506  ( -0.327259   1.381054  -2.085449)
  30:      1219.33    0.165057  (  0.056941   0.229824  -0.330145)
  31:      1249.00    6.954213  (  0.186854  -0.026530  -2.630322)
  32:      1270.48   26.723112  (  0.612754   0.677920  -5.088032)
  33:      1282.02    8.855165  (  1.438279  -1.069527  -2.375422)
  34:      1305.64   24.531842  (  3.768494   0.514439   3.172641)
  35:      1325.05    2.535497  ( -0.836297   1.041928   0.866309)
  36:      1370.01   22.522273  ( -0.506703   2.358043  -4.087194)
  37:      1405.14    5.195421  (  1.104403   1.036296  -1.703469)
  38:      1452.07    7.989192  (  0.018968  -2.811600  -0.289371)
  39:      1468.64    1.327451  (  0.224090   0.722094   0.869376)
  40:      1480.52   15.663458  ( -3.819051  -0.195332  -1.019878)
  41:      1494.20   41.013810  ( -4.256239   0.389358   4.769344)
  42:      1497.33  136.599561  ( -3.297523   0.646851  11.194083)
  43:      1648.29   55.615693  ( -0.803885   7.400726  -0.445782)
  44:      1662.61   48.967809  (  6.937736   0.617146  -0.674360)
  45:      3037.54   18.092765  ( -0.912353  -3.915996   1.387572)
  46:      3045.23   62.754810  (  4.732677  -0.868783  -6.292996)
  47:      3094.66    1.513758  ( -1.056778  -0.620789  -0.107700)
  48:      3113.74   10.329450  ( -1.470734  -1.480572  -2.444238)
  49:      3120.06    9.782269  (  2.564661  -1.358999  -1.165293)
  50:      3149.97    2.333078  ( -0.697630  -1.095138   0.804403)
  51:      3159.84    0.300619  ( -0.195330  -0.250446  -0.446925)
  52:      3175.95    6.182397  (  0.559804   0.174685   2.416299)
  53:      3420.57   24.810986  ( -0.583315   0.691000   4.898290)
  54:      3497.10   79.713808  (  1.035028   8.822636  -0.896448)
  55:      3511.25  123.634784  ( 11.111376  -0.412316  -0.045897)
  56:      3838.20   62.060680  (  1.024455  -5.492049  -5.554148)

--------------------------
THERMOCHEMISTRY AT 298.15K
--------------------------

Temperature         ... 298.15 K
Pressure            ... 1.00 atm
Total Mass          ... 102.16 AMU

Throughout the following assumptions are being made:
  (1) The electronic state is orbitally nondegenerate
  (2) There are no thermally accessible electronically excited states
  (3) Hindered rotations indicated by low frequency modes) are not
      treated as such but are treated as vibrations and this may
      case some error
  (4) All equations used are the standard statistical mechanics
      equations for an ideal gas
  (5) All vibrations are strinctly harmonic

------------
INNER ENERGY
------------

The inner energy is: U= E(el) + E(ZPE) + E(vib) + E(rot) + E(trans)
    E(el)   - is the total energy from the electronic structure calculation
              = E(kin-el) + E(nuc-el) + E(el-el) + E(nuc-nuc)
    E(ZPE)  - the the zero temperature vibrational energy from the frequency calculation
    E(vib)  - the the finite temperature correction to E(ZPE) due to population
              of excietd vibrational states
    E(rot)  - is the rotational thermal energy
    E(trans)- is the translational thermal energy

Summary of contributions to the inner energy U:
Electronic energy                ...   -327.19983547 Eh
Zero point energy                ...      0.17552386 Eh     110.14 kcal/mol
Thermal vibrational correction   ...      0.00516176 Eh       3.24 kcal/mol
Thermal rotational correction    ...      0.00141627 Eh       0.89 kcal/mol
Thermal translational correction ...      0.00141627 Eh       0.89 kcal/mol
-----------------------------------------------------------------------
Total thermal energy                   -327.01631730 Eh

Summary of corrections to the electronic energy:
(perhaps to be used in another calculation)
Total thermal correction                  0.00799431 Eh       5.02 kcal/mol
Non-thermal (ZPE) correction              0.17552386 Eh     110.14 kcal/mol
-----------------------------------------------------------------------
Total correction                          0.18351817 Eh     115.16 kcal/mol

--------
ENTHALPY
--------

The enthalpy is H = U + kB*T
                kB is Boltzmann's constant
Total free energy                 ...   -327.01631730 Eh
Thermal Enthalpy correction       ...      0.00094421 Eh       0.59 kcal/mol
-----------------------------------------------------------------------
Total Enthalpy                    ...   -327.01537309 Eh

-------
ENTROPY
-------

The entropy contributions are T*S = T*(S(el)+S(vib)+S(rot)+S(trans)
     S(el)   - electronic entropy
     S(vib)  - vibrational entropy
     S(rot)  - rotational entropy
     S(trans)- translational entropy
The entropies will be listed as mutliplied by the temperature to get
units of energy

Electronic entropy                ...      0.00000000 Eh      0.00 kcal/mol
Vibrational entropy               ...      0.00880817 Eh      5.53 kcal/mol
Rotational entropy                ...      0.01201758 Eh      7.54 kcal/mol
Translational entropy             ...      0.01890147 Eh     11.86 kcal/mol
-----------------------------------------------------------------------
Final entropy term                ...      0.03972721 Eh     24.93 kcal/mol

CAUTION: The rotational entropy is not quite correctly treated here
         because it includes a symmetry number that is not yet correctly
         implemented in ORCA!
For a nonlinear molecule the correct rotational entropy is:
    S(rot) = R*(ln(qrot/sn)+1.5)
    R    = 8.31441 J/mol/K = 1.987191683e-3 kcal/mol/K
    qrot = 225632.2007735
    sn is the rotational symmetry number. We have assumed 3 here
       if it is different for your molecule then you should correct
       the printed rotational entropy by manually evaluating the equation
       as given above

For convenience we print out the resulting values for sn=1 - 12:
 sn= 1  qrot/sn=  225632.2008 T*S(rot)=     8.19 kcal/mol T*S(tot)=    25.58 kcal/mol
 sn= 2  qrot/sn=  112816.1004 T*S(rot)=     7.78 kcal/mol T*S(tot)=    25.17 kcal/mol
 sn= 3  qrot/sn=   75210.7336 T*S(rot)=     7.54 kcal/mol T*S(tot)=    24.93 kcal/mol
 sn= 4  qrot/sn=   56408.0502 T*S(rot)=     7.37 kcal/mol T*S(tot)=    24.76 kcal/mol
 sn= 5  qrot/sn=   45126.4402 T*S(rot)=     7.24 kcal/mol T*S(tot)=    24.63 kcal/mol
 sn= 6  qrot/sn=   37605.3668 T*S(rot)=     7.13 kcal/mol T*S(tot)=    24.52 kcal/mol
 sn= 7  qrot/sn=   32233.1715 T*S(rot)=     7.04 kcal/mol T*S(tot)=    24.43 kcal/mol
 sn= 8  qrot/sn=   28204.0251 T*S(rot)=     6.96 kcal/mol T*S(tot)=    24.35 kcal/mol
 sn= 9  qrot/sn=   25070.2445 T*S(rot)=     6.89 kcal/mol T*S(tot)=    24.28 kcal/mol
 sn=10  qrot/sn=   22563.2201 T*S(rot)=     6.83 kcal/mol T*S(tot)=    24.22 kcal/mol
 sn=11  qrot/sn=   20512.0183 T*S(rot)=     6.77 kcal/mol T*S(tot)=    24.16 kcal/mol
 sn=12  qrot/sn=   18802.6834 T*S(rot)=     6.72 kcal/mol T*S(tot)=    24.11 kcal/mol

-------------------
GIBBS FREE ENTHALPY
-------------------

The Gibbs free enthalpy is G = H - T*S

Total enthalpy                    ...   -327.01537309 Eh
Total entropy correction          ...     -0.03972721 Eh    -24.93 kcal/mol
-----------------------------------------------------------------------
Final Gibbs free enthalpy         ...   -327.05510030 Eh

For completeness - the Gibbs free enthalpy minus the electronic energy
G-E(el)                           ...      0.14473516 Eh     90.82 kcal/mol

                             ****ORCA TERMINATED NORMALLY****
TOTAL RUN TIME: 0 days 0 hours 48 minutes 2 seconds 753 msec
