                         Program Version 3.0.3 - RELEASE   -
|  1> ! NORI PBE0 def2-TZVP UseSym TightOPT Freq TightSCF Grid3 FinalGrid5 XYZFile
|  2> % pal
|  3>     nprocs 8
|  4> end
|  5> %method
|  6>     SymThresh 5.0e-2
|  7> end
|  8> % geom
|  9>     MaxIter 10
| 10> end
| 11> % maxcore 2000
| 12> % output
| 13>     printlevel mini
| 14>     print[ P_Basis ] 0
| 15>     print[ P_SCFInfo ] 1
| 16>     print[ P_SCFIterInfo ] 1
| 17>     print[ P_OrbEn ] 0
| 18>     print[ P_Cartesian ] 0
| 19> end
| 20> % elprop
| 21>     Dipole false
| 22> end
| 23> *xyz 1 1
| 24>  N        2.7670899503     1.5022247429    -0.0983089333
| 25>  C        2.4133303303     0.0519553258     0.0804466524
| 26>  C        3.0356192962    -0.7987340442    -1.0270251184
| 27>  O        2.5540320474    -2.0984065871    -0.8241718403
| 28>  C        3.6382827589    -3.0257361834    -0.7291299170
| 29>  C        4.8610370517    -2.1830669957    -0.8031618946
| 30>  C        4.5309036144    -0.9121362975    -0.9795353293
| 31>  H        2.3224115081     2.0885164858     0.6103565958
| 32>  H        2.4687495505     1.8419371118    -1.0160268543
| 33>  H        3.7779088546     1.6412758747    -0.0290039638
| 34>  H        2.7804097596    -0.2544163112     1.0597230980
| 35>  H        1.3260334601    -0.0223905877     0.0549121342
| 36>  H        2.6849222114    -0.4107805593    -2.0018043461
| 37>  H        3.5561629260    -3.5852755232     0.2087494939
| 38>  H        3.5810412709    -3.7432656171    -1.5562483924
| 39>  H        5.8645339984    -2.5842342970    -0.7500106174
| 40>  H        5.2243414114    -0.0944765375    -1.1385507675
| 41> *
| 42>
| 43>                          ****END OF INPUT****
 Total Charge           Charge          ....    1
 Multiplicity           Mult            ....    1
 Number of Electrons    NEL             ....   54
FINAL SINGLE POINT ENERGY      -325.989229941475

CARTESIAN COORDINATES (ANGSTROEM)
---------------------------------
  N      1.953627   -0.000329   -1.744032
  C      1.441400   -0.460636   -0.407667
  C      0.320726    0.454118    0.087581
  O     -0.000080    0.000196    1.373449
  C     -1.398522   -0.281731    1.471377
  C     -1.925999   -0.046811    0.101152
  C     -0.956775    0.378489   -0.695784
  H      2.732553   -0.576710   -2.068069
  H      2.280504    0.968070   -1.697618
  H      1.216388   -0.045823   -2.451264
  H      1.084670   -1.483076   -0.530157
  H      2.282704   -0.444783    0.285323
  H      0.711342    1.488023    0.135241
  H     -1.537863   -1.311721    1.816626
  H     -1.856544    0.386427    2.209785
  H     -2.965220   -0.182082   -0.167942
  H     -1.076925    0.692977   -1.725978

FINAL SINGLE POINT ENERGY      -325.989230458681
                    ***********************HURRAY********************
 Multiplicity           Mult            ....    1
 Number of Electrons    NEL             ....   54
 Basis Dimension        Dim             ....  277
FINAL SINGLE POINT ENERGY      -325.989230630534

VIBRATIONAL FREQUENCIES
-----------------------

   0:         0.00 cm**-1
   1:         0.00 cm**-1
   2:         0.00 cm**-1
   3:         0.00 cm**-1
   4:         0.00 cm**-1
   5:         0.00 cm**-1
   6:        65.85 cm**-1
   7:       117.80 cm**-1
   8:       196.09 cm**-1
   9:       225.06 cm**-1
  10:       313.92 cm**-1
  11:       405.93 cm**-1
  12:       509.10 cm**-1
  13:       707.45 cm**-1
  14:       755.18 cm**-1
  15:       794.81 cm**-1
  16:       842.94 cm**-1
  17:       903.38 cm**-1
  18:       943.96 cm**-1
  19:       951.16 cm**-1
  20:       956.10 cm**-1
  21:       989.86 cm**-1
  22:      1022.51 cm**-1
  23:      1043.47 cm**-1
  24:      1102.38 cm**-1
  25:      1131.99 cm**-1
  26:      1153.86 cm**-1
  27:      1170.83 cm**-1
  28:      1211.83 cm**-1
  29:      1305.07 cm**-1
  30:      1327.62 cm**-1
  31:      1351.97 cm**-1
  32:      1388.26 cm**-1
  33:      1393.19 cm**-1
  34:      1403.10 cm**-1
  35:      1487.49 cm**-1
  36:      1502.44 cm**-1
  37:      1504.46 cm**-1
  38:      1658.56 cm**-1
  39:      1662.46 cm**-1
  40:      1696.20 cm**-1
  41:      2934.48 cm**-1
  42:      3044.72 cm**-1
  43:      3080.51 cm**-1
  44:      3107.51 cm**-1
  45:      3175.74 cm**-1
  46:      3206.93 cm**-1
  47:      3245.85 cm**-1
  48:      3418.50 cm**-1
  49:      3495.05 cm**-1
  50:      3507.21 cm**-1

IR SPECTRUM
-----------

 Mode    freq (cm**-1)   T**2         TX         TY         TZ
-------------------------------------------------------------------
   6:        65.85   11.727202  (  2.280519   2.376077   0.938453)
   7:       117.80   10.894679  (  1.953629  -2.657277   0.129970)
   8:       196.09    3.711066  ( -1.823863   0.609087   0.116635)
   9:       225.06    2.662388  ( -1.568922  -0.438730   0.091580)
  10:       313.92    0.585951  (  0.318542   0.540533  -0.438527)
  11:       405.93   29.642320  (  3.274528  -1.308558  -4.148188)
  12:       509.10    1.616351  (  0.350738  -0.681994  -1.014011)
  13:       707.45   31.744473  ( -1.386462   5.453652   0.282630)
  14:       755.18   18.268196  ( -2.057406   2.194052   3.036678)
  15:       794.81    9.007085  (  2.905909   0.099037   0.743620)
  16:       842.94    2.144846  ( -1.342386  -0.211172  -0.546124)
  17:       903.38   32.233727  ( -1.463485   4.571172   3.032544)
  18:       943.96   15.753780  (  3.888667  -0.141206  -0.782375)
  19:       951.16   11.899571  ( -2.635071   1.070283  -1.952042)
  20:       956.10    2.543219  (  0.551323   0.793167   1.268916)
  21:       989.86   19.023614  (  4.151567   0.510678   1.235846)
  22:      1022.51   10.714213  (  1.778410  -2.258257   1.565806)
  23:      1043.47    7.532193  ( -0.307154   2.722406   0.162344)
  24:      1102.38    4.080001  ( -0.192378   2.010713  -0.004976)
  25:      1131.99   27.846470  (  3.085340   1.404355  -4.044123)
  26:      1153.86    6.105648  ( -2.032159  -1.314596   0.497811)
  27:      1170.83   89.329641  (  7.470548   1.085191  -5.687083)
  28:      1211.83    2.095555  ( -1.103932  -0.727642   0.589430)
  29:      1305.07    1.274417  (  0.579243  -0.746340  -0.617957)
  30:      1327.62    4.927844  (  1.134761   1.081876   1.571529)
  31:      1351.97    5.012580  (  1.965095  -0.065093  -1.070861)
  32:      1388.26   19.434327  ( -4.351626  -0.448647   0.544421)
  33:      1393.19    3.620657  ( -1.292628  -0.705371   1.205082)
  34:      1403.10    6.984078  ( -2.611760   0.179188   0.361498)
  35:      1487.49   15.994022  (  2.620450  -3.019847  -0.088246)
  36:      1502.44  178.768264  (  6.003759   3.436133 -11.441859)
  37:      1504.46    4.994271  ( -0.003579  -0.647444   2.138942)
  38:      1658.56   47.156260  (  5.725286   2.371422   2.958668)
  39:      1662.46   40.312078  (  2.501465  -5.440814  -2.110046)
  40:      1696.20   12.178155  ( -3.271460  -0.501067   1.106632)
  41:      2934.48   58.461525  (  4.732305   5.516672  -2.373424)
  42:      3044.72   19.338753  (  3.212398   0.868997  -2.874734)
  43:      3080.51    6.222767  ( -0.149905   2.487793   0.105754)
  44:      3107.51    0.423874  ( -0.398596   0.452433   0.245558)
  45:      3175.74    0.397057  ( -0.383718  -0.208929   0.454055)
  46:      3206.93    1.020564  (  0.114678   0.152251  -0.992085)
  47:      3245.85    1.263595  (  1.074634   0.237448  -0.228856)
  48:      3418.50   35.018735  (  2.537867   1.987063  -4.962816)
  49:      3495.05   89.224295  ( -5.563235  -6.489337  -4.020349)
  50:      3507.21  123.131641  (  8.971895  -6.429770  -1.137891)

--------------------------
THERMOCHEMISTRY AT 298.15K
--------------------------

Temperature         ... 298.15 K
Pressure            ... 1.00 atm
Total Mass          ... 100.14 AMU

Throughout the following assumptions are being made:
  (1) The electronic state is orbitally nondegenerate
  (2) There are no thermally accessible electronically excited states
  (3) Hindered rotations indicated by low frequency modes) are not
      treated as such but are treated as vibrations and this may
      case some error
  (4) All equations used are the standard statistical mechanics
      equations for an ideal gas
  (5) All vibrations are strinctly harmonic

------------
INNER ENERGY
------------

The inner energy is: U= E(el) + E(ZPE) + E(vib) + E(rot) + E(trans)
    E(el)   - is the total energy from the electronic structure calculation
              = E(kin-el) + E(nuc-el) + E(el-el) + E(nuc-nuc)
    E(ZPE)  - the the zero temperature vibrational energy from the frequency calculation
    E(vib)  - the the finite temperature correction to E(ZPE) due to population
              of excietd vibrational states
    E(rot)  - is the rotational thermal energy
    E(trans)- is the translational thermal energy

Summary of contributions to the inner energy U:
Electronic energy                ...   -325.98923063 Eh
Zero point energy                ...      0.15357756 Eh      96.37 kcal/mol
Thermal vibrational correction   ...      0.00433259 Eh       2.72 kcal/mol
Thermal rotational correction    ...      0.00141627 Eh       0.89 kcal/mol
Thermal translational correction ...      0.00141627 Eh       0.89 kcal/mol
-----------------------------------------------------------------------
Total thermal energy                   -325.82848793 Eh

Summary of corrections to the electronic energy:
(perhaps to be used in another calculation)
Total thermal correction                  0.00716514 Eh       4.50 kcal/mol
Non-thermal (ZPE) correction              0.15357756 Eh      96.37 kcal/mol
-----------------------------------------------------------------------
Total correction                          0.16074270 Eh     100.87 kcal/mol

--------
ENTHALPY
--------

The enthalpy is H = U + kB*T
                kB is Boltzmann's constant
Total free energy                 ...   -325.82848793 Eh
Thermal Enthalpy correction       ...      0.00094421 Eh       0.59 kcal/mol
-----------------------------------------------------------------------
Total Enthalpy                    ...   -325.82754372 Eh

-------
ENTROPY
-------

The entropy contributions are T*S = T*(S(el)+S(vib)+S(rot)+S(trans)
     S(el)   - electronic entropy
     S(vib)  - vibrational entropy
     S(rot)  - rotational entropy
     S(trans)- translational entropy
The entropies will be listed as mutliplied by the temperature to get
units of energy

Electronic entropy                ...      0.00000000 Eh      0.00 kcal/mol
Vibrational entropy               ...      0.00785029 Eh      4.93 kcal/mol
Rotational entropy                ...      0.01195035 Eh      7.50 kcal/mol
Translational entropy             ...      0.01887324 Eh     11.84 kcal/mol
-----------------------------------------------------------------------
Final entropy term                ...      0.03867388 Eh     24.27 kcal/mol

CAUTION: The rotational entropy is not quite correctly treated here
         because it includes a symmetry number that is not yet correctly
         implemented in ORCA!
For a nonlinear molecule the correct rotational entropy is:
    S(rot) = R*(ln(qrot/sn)+1.5)
    R    = 8.31441 J/mol/K = 1.987191683e-3 kcal/mol/K
    qrot = 210125.4708178
    sn is the rotational symmetry number. We have assumed 3 here
       if it is different for your molecule then you should correct
       the printed rotational entropy by manually evaluating the equation
       as given above

For convenience we print out the resulting values for sn=1 - 12:
 sn= 1  qrot/sn=  210125.4708 T*S(rot)=     8.15 kcal/mol T*S(tot)=    24.92 kcal/mol
 sn= 2  qrot/sn=  105062.7354 T*S(rot)=     7.74 kcal/mol T*S(tot)=    24.51 kcal/mol
 sn= 3  qrot/sn=   70041.8236 T*S(rot)=     7.50 kcal/mol T*S(tot)=    24.27 kcal/mol
 sn= 4  qrot/sn=   52531.3677 T*S(rot)=     7.33 kcal/mol T*S(tot)=    24.10 kcal/mol
 sn= 5  qrot/sn=   42025.0942 T*S(rot)=     7.20 kcal/mol T*S(tot)=    23.97 kcal/mol
 sn= 6  qrot/sn=   35020.9118 T*S(rot)=     7.09 kcal/mol T*S(tot)=    23.86 kcal/mol
 sn= 7  qrot/sn=   30017.9244 T*S(rot)=     7.00 kcal/mol T*S(tot)=    23.77 kcal/mol
 sn= 8  qrot/sn=   26265.6839 T*S(rot)=     6.92 kcal/mol T*S(tot)=    23.69 kcal/mol
 sn= 9  qrot/sn=   23347.2745 T*S(rot)=     6.85 kcal/mol T*S(tot)=    23.62 kcal/mol
 sn=10  qrot/sn=   21012.5471 T*S(rot)=     6.79 kcal/mol T*S(tot)=    23.55 kcal/mol
 sn=11  qrot/sn=   19102.3155 T*S(rot)=     6.73 kcal/mol T*S(tot)=    23.50 kcal/mol
 sn=12  qrot/sn=   17510.4559 T*S(rot)=     6.68 kcal/mol T*S(tot)=    23.45 kcal/mol

-------------------
GIBBS FREE ENTHALPY
-------------------

The Gibbs free enthalpy is G = H - T*S

Total enthalpy                    ...   -325.82754372 Eh
Total entropy correction          ...     -0.03867388 Eh    -24.27 kcal/mol
-----------------------------------------------------------------------
Final Gibbs free enthalpy         ...   -325.86621761 Eh

For completeness - the Gibbs free enthalpy minus the electronic energy
G-E(el)                           ...      0.12301302 Eh     77.19 kcal/mol

                             ****ORCA TERMINATED NORMALLY****
TOTAL RUN TIME: 0 days 0 hours 35 minutes 12 seconds 250 msec
