                         Program Version 3.0.3 - RELEASE   -
|  1> ! NORI PBE0 def2-TZVP UseSym TightOPT Freq TightSCF Grid3 FinalGrid5 XYZFile
|  2> % pal
|  3>     nprocs 8
|  4> end
|  5> %method
|  6>     SymThresh 5.0e-2
|  7> end
|  8> % geom
|  9>     MaxIter 10
| 10> end
| 11> % maxcore 2000
| 12> % output
| 13>     printlevel mini
| 14>     print[ P_Basis ] 0
| 15>     print[ P_SCFInfo ] 1
| 16>     print[ P_SCFIterInfo ] 1
| 17>     print[ P_OrbEn ] 0
| 18>     print[ P_Cartesian ] 0
| 19> end
| 20> % elprop
| 21>     Dipole false
| 22> end
| 23> *xyz 1 1
| 24>  N        1.7017731500     0.8676178226    -0.7343708047
| 25>  C        2.5153342402    -0.0946752983     0.0714067033
| 26>  C        3.0999147268    -1.1339488997    -0.8973599889
| 27>  O        3.5556454931    -2.2303780324    -0.1669649657
| 28>  C        2.5896150188    -3.2052123547    -0.3378533685
| 29>  C        1.7101633845    -2.8322136806    -1.2477600828
| 30>  O        2.0500855059    -1.5705468935    -1.7409644562
| 31>  H        1.0660510331     1.4200682721    -0.1575806482
| 32>  H        1.1550370485     0.3079477540    -1.4050527536
| 33>  H        2.2848421964     1.5159185877    -1.2680827805
| 34>  H        3.2835769956     0.4472707283     0.6202406495
| 35>  H        1.8396493467    -0.5951944037     0.7655228399
| 36>  H        3.9119645641    -0.7196886427    -1.5054197664
| 37>  H        2.7002691694    -4.1105708814     0.2339267837
| 38>  H        0.8605981268    -3.3225840777    -1.6895373608
| 39> *
| 40>
| 41>                          ****END OF INPUT****
 Total Charge           Charge          ....    1
 Multiplicity           Mult            ....    1
 Number of Electrons    NEL             ....   54
FINAL SINGLE POINT ENERGY      -361.880326356581
FINAL SINGLE POINT ENERGY      -361.880327199430

CARTESIAN COORDINATES (ANGSTROEM)
---------------------------------
  N     -1.205110    0.914466   -1.820817
  C     -1.360909    0.553652   -0.377446
  C      0.024154    0.663241    0.279979
  O      0.000236   -0.001007    1.505458
  C      0.645777   -1.202709    1.277785
  C      1.200183   -1.211849    0.080590
  O      0.951537    0.003017   -0.562121
  H     -1.999465    0.613294   -2.386712
  H     -0.350462    0.445572   -2.154982
  H     -1.085405    1.920416   -1.957675
  H     -2.098780    1.207349    0.084550
  H     -1.696183   -0.482782   -0.332711
  H      0.332489    1.705275    0.419482
  H      0.647022   -1.918583    2.081697
  H      1.819570   -1.925149   -0.434258

FINAL SINGLE POINT ENERGY      -361.880327453088
                    ***********************HURRAY********************
 Multiplicity           Mult            ....    1
 Number of Electrons    NEL             ....   54
 Basis Dimension        Dim             ....  265
FINAL SINGLE POINT ENERGY      -361.880327497672

VIBRATIONAL FREQUENCIES
-----------------------

   0:         0.00 cm**-1
   1:         0.00 cm**-1
   2:         0.00 cm**-1
   3:         0.00 cm**-1
   4:         0.00 cm**-1
   5:         0.00 cm**-1
   6:        92.18 cm**-1
   7:       129.28 cm**-1
   8:       232.43 cm**-1
   9:       259.03 cm**-1
  10:       423.67 cm**-1
  11:       483.29 cm**-1
  12:       543.27 cm**-1
  13:       739.82 cm**-1
  14:       750.49 cm**-1
  15:       829.09 cm**-1
  16:       854.13 cm**-1
  17:       891.22 cm**-1
  18:       927.48 cm**-1
  19:       966.62 cm**-1
  20:      1001.88 cm**-1
  21:      1026.11 cm**-1
  22:      1067.65 cm**-1
  23:      1093.39 cm**-1
  24:      1129.36 cm**-1
  25:      1162.56 cm**-1
  26:      1217.55 cm**-1
  27:      1282.71 cm**-1
  28:      1327.91 cm**-1
  29:      1362.64 cm**-1
  30:      1384.57 cm**-1
  31:      1418.05 cm**-1
  32:      1482.12 cm**-1
  33:      1490.16 cm**-1
  34:      1650.11 cm**-1
  35:      1668.49 cm**-1
  36:      1715.04 cm**-1
  37:      3066.26 cm**-1
  38:      3114.12 cm**-1
  39:      3186.18 cm**-1
  40:      3302.61 cm**-1
  41:      3327.79 cm**-1
  42:      3343.92 cm**-1
  43:      3468.81 cm**-1
  44:      3517.43 cm**-1

IR SPECTRUM
-----------

 Mode    freq (cm**-1)   T**2         TX         TY         TZ
-------------------------------------------------------------------
   6:        92.18   10.960876  ( -0.233186  -3.300642   0.110740)
   7:       129.28    7.612953  (  2.530100  -0.786258   0.770290)
   8:       232.43   18.786990  (  3.731935  -0.812127   2.049415)
   9:       259.03    0.559161  ( -0.406133   0.500733   0.378792)
  10:       423.67   33.804941  (  2.971204  -0.347038   4.985625)
  11:       483.29    4.993060  (  1.812481   0.999781  -0.841672)
  12:       543.27    3.406361  (  0.361722   0.067633  -1.808575)
  13:       739.82   42.176079  (  5.440833   0.402728   3.522956)
  14:       750.49   35.092071  ( -4.215843  -3.871324  -1.526954)
  15:       829.09   11.511650  ( -1.184339   0.268698  -3.168090)
  16:       854.13    2.859195  ( -1.604550  -0.434062  -0.310167)
  17:       891.22   35.205598  ( -1.286361  -0.714468   5.748079)
  18:       927.48   26.275292  (  3.458997   3.236221   1.958955)
  19:       966.62   31.369557  (  4.940697  -2.529646  -0.748309)
  20:      1001.88   61.545795  (  4.218640   0.233567  -6.610168)
  21:      1026.11   16.406782  (  3.498992  -1.667336   1.176363)
  22:      1067.65   12.260231  (  1.096306   2.592440   2.082690)
  23:      1093.39   46.942703  (  4.677991  -3.231529   3.823130)
  24:      1129.36   20.406285  ( -2.481418   3.370536  -1.699512)
  25:      1162.56    8.124542  (  1.919895  -1.939645   0.822388)
  26:      1217.55  209.933310  ( -7.153350  12.041353  -3.710622)
  27:      1282.71    0.122601  ( -0.134335   0.063980   0.316957)
  28:      1327.91   16.312715  (  1.713640  -3.654015   0.155973)
  29:      1362.64    2.198583  ( -0.624250   0.783750  -1.092992)
  30:      1384.57   17.132391  (  2.947083  -1.243674  -2.626855)
  31:      1418.05   25.116292  (  3.850294  -1.640040   2.757135)
  32:      1482.12   27.143776  (  3.573351   2.063071  -3.180987)
  33:      1490.16  175.948405  (  1.303925  -2.640938  12.933431)
  34:      1650.11   33.557607  ( -2.199123   5.342456   0.423827)
  35:      1668.49   39.979466  (  5.706984   2.055906   1.784110)
  36:      1715.04   28.992312  (  2.465393  -4.766702   0.438977)
  37:      3066.26   18.930639  (  0.180641  -4.322495   0.462647)
  38:      3114.12    0.399626  (  0.597306  -0.193227   0.074260)
  39:      3186.18    0.235701  (  0.001037   0.325773   0.359962)
  40:      3302.61   22.568114  ( -1.663635  -0.395504   4.432156)
  41:      3327.79    8.126986  ( -1.343819   2.498224  -0.282870)
  42:      3343.92   80.516101  (  7.880362  -3.930011  -1.723663)
  43:      3468.81  128.200300  (  6.621775  -7.756413   4.918379)
  44:      3517.43  116.013608  (  7.481425   6.470708   4.262843)

--------------------------
THERMOCHEMISTRY AT 298.15K
--------------------------

Temperature         ... 298.15 K
Pressure            ... 1.00 atm
Total Mass          ... 102.11 AMU

Throughout the following assumptions are being made:
  (1) The electronic state is orbitally nondegenerate
  (2) There are no thermally accessible electronically excited states
  (3) Hindered rotations indicated by low frequency modes) are not
      treated as such but are treated as vibrations and this may
      case some error
  (4) All equations used are the standard statistical mechanics
      equations for an ideal gas
  (5) All vibrations are strinctly harmonic

------------
INNER ENERGY
------------

The inner energy is: U= E(el) + E(ZPE) + E(vib) + E(rot) + E(trans)
    E(el)   - is the total energy from the electronic structure calculation
              = E(kin-el) + E(nuc-el) + E(el-el) + E(nuc-nuc)
    E(ZPE)  - the the zero temperature vibrational energy from the frequency calculation
    E(vib)  - the the finite temperature correction to E(ZPE) due to population
              of excietd vibrational states
    E(rot)  - is the rotational thermal energy
    E(trans)- is the translational thermal energy

Summary of contributions to the inner energy U:
Electronic energy                ...   -361.88032750 Eh
Zero point energy                ...      0.12969484 Eh      81.38 kcal/mol
Thermal vibrational correction   ...      0.00384989 Eh       2.42 kcal/mol
Thermal rotational correction    ...      0.00141627 Eh       0.89 kcal/mol
Thermal translational correction ...      0.00141627 Eh       0.89 kcal/mol
-----------------------------------------------------------------------
Total thermal energy                   -361.74395022 Eh

Summary of corrections to the electronic energy:
(perhaps to be used in another calculation)
Total thermal correction                  0.00668244 Eh       4.19 kcal/mol
Non-thermal (ZPE) correction              0.12969484 Eh      81.38 kcal/mol
-----------------------------------------------------------------------
Total correction                          0.13637728 Eh      85.58 kcal/mol

--------
ENTHALPY
--------

The enthalpy is H = U + kB*T
                kB is Boltzmann's constant
Total free energy                 ...   -361.74395022 Eh
Thermal Enthalpy correction       ...      0.00094421 Eh       0.59 kcal/mol
-----------------------------------------------------------------------
Total Enthalpy                    ...   -361.74300601 Eh

-------
ENTROPY
-------

The entropy contributions are T*S = T*(S(el)+S(vib)+S(rot)+S(trans)
     S(el)   - electronic entropy
     S(vib)  - vibrational entropy
     S(rot)  - rotational entropy
     S(trans)- translational entropy
The entropies will be listed as mutliplied by the temperature to get
units of energy

Electronic entropy                ...      0.00000000 Eh      0.00 kcal/mol
Vibrational entropy               ...      0.00669324 Eh      4.20 kcal/mol
Rotational entropy                ...      0.01181122 Eh      7.41 kcal/mol
Translational entropy             ...      0.01890086 Eh     11.86 kcal/mol
-----------------------------------------------------------------------
Final entropy term                ...      0.03740531 Eh     23.47 kcal/mol

CAUTION: The rotational entropy is not quite correctly treated here
         because it includes a symmetry number that is not yet correctly
         implemented in ORCA!
For a nonlinear molecule the correct rotational entropy is:
    S(rot) = R*(ln(qrot/sn)+1.5)
    R    = 8.31441 J/mol/K = 1.987191683e-3 kcal/mol/K
    qrot = 181334.0034258
    sn is the rotational symmetry number. We have assumed 3 here
       if it is different for your molecule then you should correct
       the printed rotational entropy by manually evaluating the equation
       as given above

For convenience we print out the resulting values for sn=1 - 12:
 sn= 1  qrot/sn=  181334.0034 T*S(rot)=     8.06 kcal/mol T*S(tot)=    24.12 kcal/mol
 sn= 2  qrot/sn=   90667.0017 T*S(rot)=     7.65 kcal/mol T*S(tot)=    23.71 kcal/mol
 sn= 3  qrot/sn=   60444.6678 T*S(rot)=     7.41 kcal/mol T*S(tot)=    23.47 kcal/mol
 sn= 4  qrot/sn=   45333.5009 T*S(rot)=     7.24 kcal/mol T*S(tot)=    23.30 kcal/mol
 sn= 5  qrot/sn=   36266.8007 T*S(rot)=     7.11 kcal/mol T*S(tot)=    23.17 kcal/mol
 sn= 6  qrot/sn=   30222.3339 T*S(rot)=     7.00 kcal/mol T*S(tot)=    23.06 kcal/mol
 sn= 7  qrot/sn=   25904.8576 T*S(rot)=     6.91 kcal/mol T*S(tot)=    22.97 kcal/mol
 sn= 8  qrot/sn=   22666.7504 T*S(rot)=     6.83 kcal/mol T*S(tot)=    22.89 kcal/mol
 sn= 9  qrot/sn=   20148.2226 T*S(rot)=     6.76 kcal/mol T*S(tot)=    22.82 kcal/mol
 sn=10  qrot/sn=   18133.4003 T*S(rot)=     6.70 kcal/mol T*S(tot)=    22.76 kcal/mol
 sn=11  qrot/sn=   16484.9094 T*S(rot)=     6.64 kcal/mol T*S(tot)=    22.70 kcal/mol
 sn=12  qrot/sn=   15111.1670 T*S(rot)=     6.59 kcal/mol T*S(tot)=    22.65 kcal/mol

-------------------
GIBBS FREE ENTHALPY
-------------------

The Gibbs free enthalpy is G = H - T*S

Total enthalpy                    ...   -361.74300601 Eh
Total entropy correction          ...     -0.03740531 Eh    -23.47 kcal/mol
-----------------------------------------------------------------------
Final Gibbs free enthalpy         ...   -361.78041132 Eh

For completeness - the Gibbs free enthalpy minus the electronic energy
G-E(el)                           ...      0.09991618 Eh     62.70 kcal/mol

                             ****ORCA TERMINATED NORMALLY****
TOTAL RUN TIME: 0 days 0 hours 30 minutes 12 seconds 90 msec
