                         Program Version 3.0.3 - RELEASE   -
|  1> ! NORI PBE0 def2-TZVP UseSym TightOPT Freq TightSCF Grid3 FinalGrid5 XYZFile
|  2> % pal
|  3>     nprocs 8
|  4> end
|  5> %method
|  6>     SymThresh 5.0e-2
|  7> end
|  8> % geom
|  9>     MaxIter 10
| 10> end
| 11> % maxcore 2000
| 12> % output
| 13>     printlevel mini
| 14>     print[ P_Basis ] 0
| 15>     print[ P_SCFInfo ] 1
| 16>     print[ P_SCFIterInfo ] 1
| 17>     print[ P_OrbEn ] 0
| 18>     print[ P_Cartesian ] 0
| 19> end
| 20> % elprop
| 21>     Dipole false
| 22> end
| 23> *xyz 1 1
| 24>  N        3.3904343923     0.6396945159     1.0706693346
| 25>  C        2.3685620838     0.1326774822     0.0838683370
| 26>  C        2.8662384748     0.3416409993    -1.3430215966
| 27>  O        1.8573245744    -0.1456740132    -2.1378017201
| 28>  C        3.4607549106     1.7497425802    -1.5386609653
| 29>  O        4.7492367869     1.2289006190    -1.1233742305
| 30>  C        4.3313492161    -0.1066705293    -1.5052714026
| 31>  H        3.7206442378    -0.0948332869     1.6945599502
| 32>  H        3.0222317569     1.3898568075     1.6532358193
| 33>  H        4.2063888376     1.0088571220     0.5124419384
| 34>  H        2.1967417680    -0.9268912315     0.2688443398
| 35>  H        1.4351574396     0.6723099816     0.2378555249
| 36>  H        2.0819028595    -0.0658820998    -3.0709290076
| 37>  H        3.4842909074     2.0623956859    -2.5866106755
| 38>  H        3.1214873786     2.5847859388    -0.9193622390
| 39>  H        4.7470581245    -0.8827052897    -0.8565281600
| 40>  H        4.6020362512    -0.3194052818    -2.5435452470
| 41> *
| 42>
| 43>                          ****END OF INPUT****
 Total Charge           Charge          ....    1
 Multiplicity           Mult            ....    1
 Number of Electrons    NEL             ....   56
FINAL SINGLE POINT ENERGY      -363.087223799015

CARTESIAN COORDINATES (ANGSTROEM)
---------------------------------
  N     -1.312720    1.486084   -0.000000
  C      0.193246    1.402720    0.000000
  C      0.639340   -0.056221    0.000000
  O      2.011880    0.000229   -0.000000
  C     -0.150317   -0.892704    1.025319
  O     -1.142035   -1.154956    0.000000
  C     -0.150317   -0.892704   -1.025319
  H     -1.670847    1.971977   -0.820637
  H     -1.670847    1.971977    0.820637
  H     -1.679545    0.496586   -0.000000
  H      0.572890    1.910247   -0.885888
  H      0.572889    1.910247    0.885888
  H      2.395215   -0.883222    0.000000
  H      0.365179   -1.812878    1.315857
  H     -0.575361   -0.419381    1.914996
  H     -0.575361   -0.419381   -1.914995
  H      0.365179   -1.812878   -1.315857

FINAL SINGLE POINT ENERGY      -363.087224169297
                    ***********************HURRAY********************
 Multiplicity           Mult            ....    1
 Number of Electrons    NEL             ....   56
 Basis Dimension        Dim             ....  277
FINAL SINGLE POINT ENERGY      -363.087224344779

VIBRATIONAL FREQUENCIES
-----------------------

   0:         0.00 cm**-1
   1:         0.00 cm**-1
   2:         0.00 cm**-1
   3:         0.00 cm**-1
   4:         0.00 cm**-1
   5:         0.00 cm**-1
   6:       108.69 cm**-1
   7:       272.99 cm**-1
   8:       300.04 cm**-1
   9:       301.07 cm**-1
  10:       315.20 cm**-1
  11:       340.14 cm**-1
  12:       418.18 cm**-1
  13:       425.17 cm**-1
  14:       493.85 cm**-1
  15:       659.08 cm**-1
  16:       815.88 cm**-1
  17:       863.35 cm**-1
  18:       910.93 cm**-1
  19:       947.91 cm**-1
  20:       985.05 cm**-1
  21:       996.17 cm**-1
  22:      1025.48 cm**-1
  23:      1028.54 cm**-1
  24:      1132.53 cm**-1
  25:      1135.15 cm**-1
  26:      1139.12 cm**-1
  27:      1189.09 cm**-1
  28:      1196.92 cm**-1
  29:      1280.60 cm**-1
  30:      1284.01 cm**-1
  31:      1319.16 cm**-1
  32:      1339.68 cm**-1
  33:      1394.71 cm**-1
  34:      1426.81 cm**-1
  35:      1489.99 cm**-1
  36:      1502.88 cm**-1
  37:      1521.95 cm**-1
  38:      1538.42 cm**-1
  39:      1655.34 cm**-1
  40:      1693.60 cm**-1
  41:      2905.88 cm**-1
  42:      3056.04 cm**-1
  43:      3062.81 cm**-1
  44:      3113.81 cm**-1
  45:      3118.72 cm**-1
  46:      3118.80 cm**-1
  47:      3175.29 cm**-1
  48:      3491.99 cm**-1
  49:      3546.64 cm**-1
  50:      3840.52 cm**-1

IR SPECTRUM
-----------

 Mode    freq (cm**-1)   T**2         TX         TY         TZ
-------------------------------------------------------------------
   6:       108.69    2.484011  ( -0.000008   0.000025   1.576075)
   7:       272.99   78.250466  (  1.317432  -8.747276  -0.000026)
   8:       300.04   11.262233  ( -0.001634   0.000412  -3.355925)
   9:       301.07    4.721722  ( -1.933181   0.992232   0.003097)
  10:       315.20  102.540542  (  0.000063  -0.000211  10.126230)
  11:       340.14    0.840622  (  0.000033  -0.000053   0.916855)
  12:       418.18   24.981630  ( -4.210321   2.693478   0.000263)
  13:       425.17   14.053393  ( -0.000251   0.000113  -3.748786)
  14:       493.85   14.456159  ( -2.092168   3.174743  -0.000030)
  15:       659.08    3.255827  (  1.540878  -0.938894  -0.000003)
  16:       815.88   15.594121  (  0.194141   3.944164  -0.000007)
  17:       863.35    1.165258  (  0.000070   0.000016   1.079471)
  18:       910.93   51.957706  (  6.867742  -2.189023   0.000002)
  19:       947.91    0.351749  ( -0.000117   0.000039  -0.593084)
  20:       985.05   11.841065  ( -3.340857   0.824463   0.000007)
  21:       996.17   81.706318  ( -0.000002   0.000034   9.039155)
  22:      1025.48    0.730317  ( -0.705528   0.482232   0.000113)
  23:      1028.54    0.004858  ( -0.000135   0.000025  -0.069697)
  24:      1132.53    0.020651  (  0.000107   0.000667   0.143702)
  25:      1135.15   32.567259  (  4.105273  -3.964088   0.000034)
  26:      1139.12  113.460083  (  7.279491   7.776188  -0.000029)
  27:      1189.09    0.220678  ( -0.000138  -0.000027   0.469764)
  28:      1196.92   22.137925  ( -4.697976   0.258747  -0.000006)
  29:      1280.60   80.297732  ( -8.880862   1.195002  -0.000162)
  30:      1284.01    0.670450  ( -0.001881   0.000293   0.818808)
  31:      1319.16    3.969717  (  0.000227   0.000088   1.992415)
  32:      1339.68    1.899717  ( -1.365461  -0.187705   0.000099)
  33:      1394.71   80.722206  ( -8.823963  -1.691121   0.000017)
  34:      1426.81    8.001191  (  2.813601  -0.291270  -0.000010)
  35:      1489.99   21.166226  (  4.534718   0.776245  -0.000049)
  36:      1502.88    9.673826  (  0.000044  -0.000032  -3.110277)
  37:      1521.95   93.052209  (  8.314974  -4.890134   0.000062)
  38:      1538.42   75.908682  (  5.878297  -6.430732  -0.000029)
  39:      1655.34   11.818151  ( -0.885470   3.321761  -0.000021)
  40:      1693.60   20.233277  ( -0.000001  -0.000055  -4.498141)
  41:      2905.88  473.019567  (  0.499516 -21.743276   0.000006)
  42:      3056.04   29.498787  ( -0.000026  -0.000103  -5.431279)
  43:      3062.81    3.848266  (  1.162146   1.580406  -0.000186)
  44:      3113.81    0.064931  (  0.044744   0.250857   0.000040)
  45:      3118.72   17.642998  (  2.831964  -3.101977  -0.026793)
  46:      3118.80    5.511754  ( -0.032347   0.035460  -2.347222)
  47:      3175.29    0.005658  (  0.000025  -0.000013   0.075217)
  48:      3491.99  106.273174  ( -5.839724   8.495340  -0.000002)
  49:      3546.64   99.555177  (  0.000016   0.000013   9.977734)
  50:      3840.52   84.155387  (  6.858848  -6.091929  -0.000000)

--------------------------
THERMOCHEMISTRY AT 298.15K
--------------------------

Temperature         ... 298.15 K
Pressure            ... 1.00 atm
Total Mass          ... 104.13 AMU

Throughout the following assumptions are being made:
  (1) The electronic state is orbitally nondegenerate
  (2) There are no thermally accessible electronically excited states
  (3) Hindered rotations indicated by low frequency modes) are not
      treated as such but are treated as vibrations and this may
      case some error
  (4) All equations used are the standard statistical mechanics
      equations for an ideal gas
  (5) All vibrations are strinctly harmonic

------------
INNER ENERGY
------------

The inner energy is: U= E(el) + E(ZPE) + E(vib) + E(rot) + E(trans)
    E(el)   - is the total energy from the electronic structure calculation
              = E(kin-el) + E(nuc-el) + E(el-el) + E(nuc-nuc)
    E(ZPE)  - the the zero temperature vibrational energy from the frequency calculation
    E(vib)  - the the finite temperature correction to E(ZPE) due to population
              of excietd vibrational states
    E(rot)  - is the rotational thermal energy
    E(trans)- is the translational thermal energy

Summary of contributions to the inner energy U:
Electronic energy                ...   -363.08722434 Eh
Zero point energy                ...      0.15235980 Eh      95.61 kcal/mol
Thermal vibrational correction   ...      0.00427939 Eh       2.69 kcal/mol
Thermal rotational correction    ...      0.00141627 Eh       0.89 kcal/mol
Thermal translational correction ...      0.00141627 Eh       0.89 kcal/mol
-----------------------------------------------------------------------
Total thermal energy                   -362.92775262 Eh

Summary of corrections to the electronic energy:
(perhaps to be used in another calculation)
Total thermal correction                  0.00711193 Eh       4.46 kcal/mol
Non-thermal (ZPE) correction              0.15235980 Eh      95.61 kcal/mol
-----------------------------------------------------------------------
Total correction                          0.15947173 Eh     100.07 kcal/mol

--------
ENTHALPY
--------

The enthalpy is H = U + kB*T
                kB is Boltzmann's constant
Total free energy                 ...   -362.92775262 Eh
Thermal Enthalpy correction       ...      0.00094421 Eh       0.59 kcal/mol
-----------------------------------------------------------------------
Total Enthalpy                    ...   -362.92680841 Eh

-------
ENTROPY
-------

The entropy contributions are T*S = T*(S(el)+S(vib)+S(rot)+S(trans)
     S(el)   - electronic entropy
     S(vib)  - vibrational entropy
     S(rot)  - rotational entropy
     S(trans)- translational entropy
The entropies will be listed as mutliplied by the temperature to get
units of energy

Electronic entropy                ...      0.00000000 Eh      0.00 kcal/mol
Vibrational entropy               ...      0.00687060 Eh      4.31 kcal/mol
Rotational entropy                ...      0.01189241 Eh      7.46 kcal/mol
Translational entropy             ...      0.01892854 Eh     11.88 kcal/mol
-----------------------------------------------------------------------
Final entropy term                ...      0.03769156 Eh     23.65 kcal/mol

CAUTION: The rotational entropy is not quite correctly treated here
         because it includes a symmetry number that is not yet correctly
         implemented in ORCA!
For a nonlinear molecule the correct rotational entropy is:
    S(rot) = R*(ln(qrot/sn)+1.5)
    R    = 8.31441 J/mol/K = 1.987191683e-3 kcal/mol/K
    qrot = 197618.5570597
    sn is the rotational symmetry number. We have assumed 3 here
       if it is different for your molecule then you should correct
       the printed rotational entropy by manually evaluating the equation
       as given above

For convenience we print out the resulting values for sn=1 - 12:
 sn= 1  qrot/sn=  197618.5571 T*S(rot)=     8.11 kcal/mol T*S(tot)=    24.30 kcal/mol
 sn= 2  qrot/sn=   98809.2785 T*S(rot)=     7.70 kcal/mol T*S(tot)=    23.89 kcal/mol
 sn= 3  qrot/sn=   65872.8524 T*S(rot)=     7.46 kcal/mol T*S(tot)=    23.65 kcal/mol
 sn= 4  qrot/sn=   49404.6393 T*S(rot)=     7.29 kcal/mol T*S(tot)=    23.48 kcal/mol
 sn= 5  qrot/sn=   39523.7114 T*S(rot)=     7.16 kcal/mol T*S(tot)=    23.35 kcal/mol
 sn= 6  qrot/sn=   32936.4262 T*S(rot)=     7.05 kcal/mol T*S(tot)=    23.24 kcal/mol
 sn= 7  qrot/sn=   28231.2224 T*S(rot)=     6.96 kcal/mol T*S(tot)=    23.15 kcal/mol
 sn= 8  qrot/sn=   24702.3196 T*S(rot)=     6.88 kcal/mol T*S(tot)=    23.07 kcal/mol
 sn= 9  qrot/sn=   21957.6175 T*S(rot)=     6.81 kcal/mol T*S(tot)=    23.00 kcal/mol
 sn=10  qrot/sn=   19761.8557 T*S(rot)=     6.75 kcal/mol T*S(tot)=    22.94 kcal/mol
 sn=11  qrot/sn=   17965.3234 T*S(rot)=     6.69 kcal/mol T*S(tot)=    22.88 kcal/mol
 sn=12  qrot/sn=   16468.2131 T*S(rot)=     6.64 kcal/mol T*S(tot)=    22.83 kcal/mol

-------------------
GIBBS FREE ENTHALPY
-------------------

The Gibbs free enthalpy is G = H - T*S

Total enthalpy                    ...   -362.92680841 Eh
Total entropy correction          ...     -0.03769156 Eh    -23.65 kcal/mol
-----------------------------------------------------------------------
Final Gibbs free enthalpy         ...   -362.96449996 Eh

For completeness - the Gibbs free enthalpy minus the electronic energy
G-E(el)                           ...      0.12272438 Eh     77.01 kcal/mol

                             ****ORCA TERMINATED NORMALLY****
TOTAL RUN TIME: 0 days 0 hours 36 minutes 26 seconds 736 msec
