                         Program Version 3.0.3 - RELEASE   -
|  1> ! NORI PBE0 def2-TZVP UseSym TightOPT Freq TightSCF Grid3 FinalGrid5 XYZFile
|  2> % pal
|  3>     nprocs 8
|  4> end
|  5> %method
|  6>     SymThresh 5.0e-2
|  7> end
|  8> % geom
|  9>     MaxIter 10
| 10> end
| 11> % maxcore 2000
| 12> % output
| 13>     printlevel mini
| 14>     print[ P_Basis ] 0
| 15>     print[ P_SCFInfo ] 1
| 16>     print[ P_SCFIterInfo ] 1
| 17>     print[ P_OrbEn ] 0
| 18>     print[ P_Cartesian ] 0
| 19> end
| 20> % elprop
| 21>     Dipole false
| 22> end
| 23> *xyz 1 1
| 24>  N        0.7961948795     0.1820025800     0.2618456955
| 25>  C        2.1048442587    -0.4440975025    -0.1480434900
| 26>  C        3.2748125915     0.2615472993     0.4993699410
| 27>  C        4.5351205337    -0.5399155185     0.2259252696
| 28>  C        5.7671856295    -0.2985958271     1.1005880187
| 29>  C        5.6584264133    -1.7959955536     1.4050643950
| 30>  O        4.3915419394    -1.8781438550     0.7085032150
| 31>  H       -0.0007895091    -0.2935376651    -0.1661736772
| 32>  H        0.7563117774     1.1668173214    -0.0090918361
| 33>  H        0.6776478679     0.1381991262     1.2764845203
| 34>  H        2.1414485518    -0.4005025933    -1.2376486712
| 35>  H        2.0662147959    -1.4882747706     0.1655300039
| 36>  H        3.1283129709     0.3125541756     1.5845463669
| 37>  H        3.3901590853     1.2814659979     0.1164321653
| 38>  H        4.7549154767    -0.5319428189    -0.8508098101
| 39>  H        5.5833877521     0.3466506953     1.9598575788
| 40>  H        6.6661011088     0.0328649881     0.5854825575
| 41>  H        6.4122620532    -2.4192176979     0.9190505014
| 42>  H        5.5618318236    -2.0867083812     2.4519272558
| 43> *
| 44>
| 45>                          ****END OF INPUT****
 Total Charge           Charge          ....    1
 Multiplicity           Mult            ....    1
 Number of Electrons    NEL             ....   56
FINAL SINGLE POINT ENERGY      -327.195677990775

CARTESIAN COORDINATES (ANGSTROEM)
---------------------------------
  N      2.164317   -0.000767   -2.141787
  C      1.346528    0.563395   -1.008061
  C     -0.051019   -0.013101   -1.002705
  C     -0.748074    0.418703    0.275208
  C     -1.987363   -0.351613    0.735488
  C     -1.182567   -0.582183    2.018536
  O      0.000086    0.000042    1.419373
  H      3.113534    0.378344   -2.148510
  H      1.736643    0.208076   -3.046414
  H      2.234971   -1.017714   -2.063911
  H      1.351254    1.647144   -1.131835
  H      1.869593    0.308159   -0.085466
  H     -0.005090   -1.108227   -1.016167
  H     -0.626179    0.320708   -1.873281
  H     -0.886482    1.508918    0.273477
  H     -2.185370   -1.257946    0.163090
  H     -2.905079    0.224477    0.829615
  H     -1.513130    0.003633    2.879150
  H     -1.012677   -1.616066    2.322196

FINAL SINGLE POINT ENERGY      -327.195678903387
                    ***********************HURRAY********************
 Multiplicity           Mult            ....    1
 Number of Electrons    NEL             ....   56
 Basis Dimension        Dim             ....  289
FINAL SINGLE POINT ENERGY      -327.195679895099

VIBRATIONAL FREQUENCIES
-----------------------

   0:         0.00 cm**-1
   1:         0.00 cm**-1
   2:         0.00 cm**-1
   3:         0.00 cm**-1
   4:         0.00 cm**-1
   5:         0.00 cm**-1
   6:        69.39 cm**-1
   7:       108.26 cm**-1
   8:       111.96 cm**-1
   9:       160.65 cm**-1
  10:       231.18 cm**-1
  11:       334.28 cm**-1
  12:       381.70 cm**-1
  13:       486.64 cm**-1
  14:       726.89 cm**-1
  15:       775.11 cm**-1
  16:       824.40 cm**-1
  17:       892.08 cm**-1
  18:       901.44 cm**-1
  19:       910.90 cm**-1
  20:       973.62 cm**-1
  21:       998.91 cm**-1
  22:      1001.82 cm**-1
  23:      1032.29 cm**-1
  24:      1064.93 cm**-1
  25:      1127.45 cm**-1
  26:      1150.42 cm**-1
  27:      1167.20 cm**-1
  28:      1194.40 cm**-1
  29:      1222.98 cm**-1
  30:      1264.17 cm**-1
  31:      1282.71 cm**-1
  32:      1305.45 cm**-1
  33:      1317.44 cm**-1
  34:      1349.70 cm**-1
  35:      1367.32 cm**-1
  36:      1405.74 cm**-1
  37:      1410.23 cm**-1
  38:      1471.51 cm**-1
  39:      1487.62 cm**-1
  40:      1503.15 cm**-1
  41:      1508.07 cm**-1
  42:      1528.47 cm**-1
  43:      1659.24 cm**-1
  44:      1664.14 cm**-1
  45:      3012.61 cm**-1
  46:      3038.89 cm**-1
  47:      3074.53 cm**-1
  48:      3093.07 cm**-1
  49:      3101.48 cm**-1
  50:      3104.84 cm**-1
  51:      3129.83 cm**-1
  52:      3163.47 cm**-1
  53:      3172.47 cm**-1
  54:      3421.68 cm**-1
  55:      3504.50 cm**-1
  56:      3507.05 cm**-1

IR SPECTRUM
-----------

 Mode    freq (cm**-1)   T**2         TX         TY         TZ
-------------------------------------------------------------------
   6:        69.39   10.765979  (  0.002603  -2.545517   2.070342)
   7:       108.26    6.068825  (  0.128537   1.600761   1.868119)
   8:       111.96    4.786539  ( -0.351235  -0.689713   2.046331)
   9:       160.65    6.641954  (  0.857672   1.465901   1.938424)
  10:       231.18    0.320798  (  0.260802   0.045588  -0.500701)
  11:       334.28   15.066742  ( -3.328489   0.233534   1.983271)
  12:       381.70    1.082741  (  0.886378  -0.532605   0.115785)
  13:       486.64    4.187714  ( -1.542031  -0.781807  -1.094821)
  14:       726.89    0.915477  ( -0.414512   0.675483  -0.536078)
  15:       775.11    4.364661  (  0.498576   1.667565  -1.155556)
  16:       824.40    1.981345  (  0.258138   1.270960  -0.547146)
  17:       892.08   33.457603  ( -5.469273   0.538764  -1.803992)
  18:       901.44   12.200442  (  1.575372   1.684393  -2.623255)
  19:       910.90    3.405917  ( -1.499095   0.498294   0.954115)
  20:       973.62    9.018851  ( -2.785369  -0.954587   0.591047)
  21:       998.91    5.679382  (  1.789715   1.466426  -0.570872)
  22:      1001.82    3.358687  ( -0.520115  -1.624019  -0.671364)
  23:      1032.29   57.430077  ( -3.766167  -2.534884   6.067984)
  24:      1064.93   86.695173  ( -4.453373  -3.514415   7.383192)
  25:      1127.45   16.644982  (  0.497359   1.196337  -3.868642)
  26:      1150.42   19.134234  ( -3.931130   0.204366  -1.907533)
  27:      1167.20    6.517495  ( -1.074289   2.129563   0.910143)
  28:      1194.40    4.677356  (  0.753485   1.293086   1.561264)
  29:      1222.98    1.326218  (  0.112696   0.927298  -0.673525)
  30:      1264.17    9.212129  (  0.399057   1.072602  -2.811122)
  31:      1282.71    1.929634  (  0.316222   1.297807   0.381228)
  32:      1305.45    4.273735  ( -0.889026  -1.713827   0.739030)
  33:      1317.44    0.679883  (  0.382197  -0.636954  -0.357908)
  34:      1349.70    6.046370  ( -0.392234  -1.617107   1.810383)
  35:      1367.32    5.328631  (  0.021577   0.700710  -2.199357)
  36:      1405.74   21.030163  ( -1.683970  -0.083422   4.264675)
  37:      1410.23   15.301041  ( -2.568282   1.010509   2.771974)
  38:      1471.51    0.185947  (  0.194348   0.380851  -0.055937)
  39:      1487.62    8.960868  ( -2.714988  -1.095189  -0.624716)
  40:      1503.15   20.239632  (  4.354697   1.007867  -0.510344)
  41:      1508.07  137.668045  (  5.889158  -4.817140  -8.932022)
  42:      1528.47    0.447598  ( -0.067574  -0.620678   0.240397)
  43:      1659.24   51.829706  (  2.475413  -5.264576   4.241024)
  44:      1664.14   36.195494  (  4.814054   3.419622   1.151764)
  45:      3012.61   31.139989  ( -0.406100   5.064090  -2.308694)
  46:      3038.89   12.544923  (  0.278852  -2.793682  -2.159284)
  47:      3074.53   41.497779  ( -1.813589  -1.674189   5.950274)
  48:      3093.07   10.057585  ( -1.299187   2.417460  -1.589209)
  49:      3101.48    3.981139  ( -0.912817  -1.404613   1.083958)
  50:      3104.84    9.673076  ( -2.398756  -1.352629  -1.445490)
  51:      3129.83   12.521454  ( -0.287035   3.507094   0.373304)
  52:      3163.47    1.075023  (  0.267066  -0.538215  -0.844999)
  53:      3172.47    8.216569  ( -1.579048   2.218568   0.895060)
  54:      3421.68   44.794529  ( -4.411791   1.717605   4.730799)
  55:      3504.50   90.602942  ( -1.345905   7.880191  -5.166631)
  56:      3507.05   96.992068  (  8.173560   3.951772   3.816869)

--------------------------
THERMOCHEMISTRY AT 298.15K
--------------------------

Temperature         ... 298.15 K
Pressure            ... 1.00 atm
Total Mass          ... 102.16 AMU

Throughout the following assumptions are being made:
  (1) The electronic state is orbitally nondegenerate
  (2) There are no thermally accessible electronically excited states
  (3) Hindered rotations indicated by low frequency modes) are not
      treated as such but are treated as vibrations and this may
      case some error
  (4) All equations used are the standard statistical mechanics
      equations for an ideal gas
  (5) All vibrations are strinctly harmonic

------------
INNER ENERGY
------------

The inner energy is: U= E(el) + E(ZPE) + E(vib) + E(rot) + E(trans)
    E(el)   - is the total energy from the electronic structure calculation
              = E(kin-el) + E(nuc-el) + E(el-el) + E(nuc-nuc)
    E(ZPE)  - the the zero temperature vibrational energy from the frequency calculation
    E(vib)  - the the finite temperature correction to E(ZPE) due to population
              of excietd vibrational states
    E(rot)  - is the rotational thermal energy
    E(trans)- is the translational thermal energy

Summary of contributions to the inner energy U:
Electronic energy                ...   -327.19567990 Eh
Zero point energy                ...      0.17700972 Eh     111.08 kcal/mol
Thermal vibrational correction   ...      0.00510422 Eh       3.20 kcal/mol
Thermal rotational correction    ...      0.00141627 Eh       0.89 kcal/mol
Thermal translational correction ...      0.00141627 Eh       0.89 kcal/mol
-----------------------------------------------------------------------
Total thermal energy                   -327.01073341 Eh

Summary of corrections to the electronic energy:
(perhaps to be used in another calculation)
Total thermal correction                  0.00793677 Eh       4.98 kcal/mol
Non-thermal (ZPE) correction              0.17700972 Eh     111.08 kcal/mol
-----------------------------------------------------------------------
Total correction                          0.18494648 Eh     116.06 kcal/mol

--------
ENTHALPY
--------

The enthalpy is H = U + kB*T
                kB is Boltzmann's constant
Total free energy                 ...   -327.01073341 Eh
Thermal Enthalpy correction       ...      0.00094421 Eh       0.59 kcal/mol
-----------------------------------------------------------------------
Total Enthalpy                    ...   -327.00978920 Eh

-------
ENTROPY
-------

The entropy contributions are T*S = T*(S(el)+S(vib)+S(rot)+S(trans)
     S(el)   - electronic entropy
     S(vib)  - vibrational entropy
     S(rot)  - rotational entropy
     S(trans)- translational entropy
The entropies will be listed as mutliplied by the temperature to get
units of energy

Electronic entropy                ...      0.00000000 Eh      0.00 kcal/mol
Vibrational entropy               ...      0.00956497 Eh      6.00 kcal/mol
Rotational entropy                ...      0.01214653 Eh      7.62 kcal/mol
Translational entropy             ...      0.01890147 Eh     11.86 kcal/mol
-----------------------------------------------------------------------
Final entropy term                ...      0.04061298 Eh     25.48 kcal/mol

CAUTION: The rotational entropy is not quite correctly treated here
         because it includes a symmetry number that is not yet correctly
         implemented in ORCA!
For a nonlinear molecule the correct rotational entropy is:
    S(rot) = R*(ln(qrot/sn)+1.5)
    R    = 8.31441 J/mol/K = 1.987191683e-3 kcal/mol/K
    qrot = 258651.8276944
    sn is the rotational symmetry number. We have assumed 3 here
       if it is different for your molecule then you should correct
       the printed rotational entropy by manually evaluating the equation
       as given above

For convenience we print out the resulting values for sn=1 - 12:
 sn= 1  qrot/sn=  258651.8277 T*S(rot)=     8.27 kcal/mol T*S(tot)=    26.14 kcal/mol
 sn= 2  qrot/sn=  129325.9138 T*S(rot)=     7.86 kcal/mol T*S(tot)=    25.73 kcal/mol
 sn= 3  qrot/sn=   86217.2759 T*S(rot)=     7.62 kcal/mol T*S(tot)=    25.48 kcal/mol
 sn= 4  qrot/sn=   64662.9569 T*S(rot)=     7.45 kcal/mol T*S(tot)=    25.31 kcal/mol
 sn= 5  qrot/sn=   51730.3655 T*S(rot)=     7.32 kcal/mol T*S(tot)=    25.18 kcal/mol
 sn= 6  qrot/sn=   43108.6379 T*S(rot)=     7.21 kcal/mol T*S(tot)=    25.07 kcal/mol
 sn= 7  qrot/sn=   36950.2611 T*S(rot)=     7.12 kcal/mol T*S(tot)=    24.98 kcal/mol
 sn= 8  qrot/sn=   32331.4785 T*S(rot)=     7.04 kcal/mol T*S(tot)=    24.90 kcal/mol
 sn= 9  qrot/sn=   28739.0920 T*S(rot)=     6.97 kcal/mol T*S(tot)=    24.83 kcal/mol
 sn=10  qrot/sn=   25865.1828 T*S(rot)=     6.91 kcal/mol T*S(tot)=    24.77 kcal/mol
 sn=11  qrot/sn=   23513.8025 T*S(rot)=     6.85 kcal/mol T*S(tot)=    24.72 kcal/mol
 sn=12  qrot/sn=   21554.3190 T*S(rot)=     6.80 kcal/mol T*S(tot)=    24.66 kcal/mol

-------------------
GIBBS FREE ENTHALPY
-------------------

The Gibbs free enthalpy is G = H - T*S

Total enthalpy                    ...   -327.00978920 Eh
Total entropy correction          ...     -0.04061298 Eh    -25.48 kcal/mol
-----------------------------------------------------------------------
Final Gibbs free enthalpy         ...   -327.05040218 Eh

For completeness - the Gibbs free enthalpy minus the electronic energy
G-E(el)                           ...      0.14527771 Eh     91.16 kcal/mol

                             ****ORCA TERMINATED NORMALLY****
TOTAL RUN TIME: 0 days 0 hours 40 minutes 30 seconds 47 msec
