                         Program Version 3.0.3 - RELEASE   -
|  1> ! NORI PBE0 def2-TZVP UseSym TightOPT Freq TightSCF Grid3 FinalGrid5 XYZFile
|  2> % pal
|  3>     nprocs 8
|  4> end
|  5> %method
|  6>     SymThresh 5.0e-2
|  7> end
|  8> % geom
|  9>     MaxIter 10
| 10> end
| 11> % maxcore 2000
| 12> % output
| 13>     printlevel mini
| 14>     print[ P_Basis ] 0
| 15>     print[ P_SCFInfo ] 1
| 16>     print[ P_SCFIterInfo ] 1
| 17>     print[ P_OrbEn ] 0
| 18>     print[ P_Cartesian ] 0
| 19> end
| 20> % elprop
| 21>     Dipole false
| 22> end
| 23> *xyz 1 1
| 24>  N        0.8450924408    -0.1911519604    -0.2714537911
| 25>  C        2.2232360311     0.3671451402    -0.5280753701
| 26>  C        3.2797099681    -0.5088566307     0.1055511938
| 27>  C        4.6800913377    -0.0172729642    -0.2229875002
| 28>  C        5.7797203059    -1.0070010558     0.1878243541
| 29>  O        5.9192839587    -1.4605236049    -1.1635892113
| 30>  C        5.1593860616    -0.3520617403    -1.6442028351
| 31>  H        0.1131314852     0.3865988029    -0.6900137765
| 32>  H        0.6590598411    -0.2552109431     0.7319395147
| 33>  H        0.7589996991    -1.1344834892    -0.6566747898
| 34>  H        2.2259901180     1.3795384717    -0.1220692992
| 35>  H        2.3320171439     0.4249424011    -1.6120619015
| 36>  H        3.1802867230    -1.5396727959    -0.2582957265
| 37>  H        3.1440085141    -0.5287784992     1.1935836556
| 38>  H        4.8219360355     1.0144909562     0.1045684700
| 39>  H        6.6925336516    -0.5253399291     0.5523182264
| 40>  H        5.4971727383    -1.8138026411     0.8704174002
| 41>  H        4.4040193357    -0.6589557895    -2.3774041320
| 42>  H        5.7961846105     0.4193262714    -2.0908444815
| 43> *
| 44>
| 45>                          ****END OF INPUT****
 Total Charge           Charge          ....    1
 Multiplicity           Mult            ....    1
 Number of Electrons    NEL             ....   56
FINAL SINGLE POINT ENERGY      -327.183687808916

CARTESIAN COORDINATES (ANGSTROEM)
---------------------------------
  N      1.268556   -0.000240   -2.820794
  C      0.262824    0.480629   -1.804083
  C      0.092840   -0.537455   -0.699829
  C     -0.844403   -0.030883    0.384098
  C     -0.852967   -0.917537    1.637601
  O     -0.000138    0.000920    2.330985
  C     -0.222434    1.001442    1.337710
  H      1.398464    0.672165   -3.579651
  H      0.972328   -0.887101   -3.234746
  H      2.178901   -0.158973   -2.382751
  H     -0.664896    0.659598   -2.349488
  H      0.638268    1.434510   -1.430727
  H      1.064736   -0.759540   -0.241065
  H     -0.298108   -1.474741   -1.113876
  H     -1.823664    0.220266   -0.028305
  H     -1.835439   -0.999618    2.112906
  H     -0.407754   -1.912881    1.549229
  H      0.711129    1.485337    1.026378
  H     -0.924638    1.769642    1.678747

FINAL SINGLE POINT ENERGY      -327.183688471462
                    ***********************HURRAY********************
 Multiplicity           Mult            ....    1
 Number of Electrons    NEL             ....   56
 Basis Dimension        Dim             ....  289
FINAL SINGLE POINT ENERGY      -327.183688682173

VIBRATIONAL FREQUENCIES
-----------------------

   0:         0.00 cm**-1
   1:         0.00 cm**-1
   2:         0.00 cm**-1
   3:         0.00 cm**-1
   4:         0.00 cm**-1
   5:         0.00 cm**-1
   6:        71.17 cm**-1
   7:       107.35 cm**-1
   8:       120.93 cm**-1
   9:       175.74 cm**-1
  10:       228.44 cm**-1
  11:       318.80 cm**-1
  12:       378.80 cm**-1
  13:       441.08 cm**-1
  14:       761.79 cm**-1
  15:       822.47 cm**-1
  16:       866.09 cm**-1
  17:       875.99 cm**-1
  18:       903.10 cm**-1
  19:       908.03 cm**-1
  20:       976.68 cm**-1
  21:      1001.95 cm**-1
  22:      1014.62 cm**-1
  23:      1061.76 cm**-1
  24:      1078.08 cm**-1
  25:      1117.12 cm**-1
  26:      1151.84 cm**-1
  27:      1166.23 cm**-1
  28:      1173.17 cm**-1
  29:      1224.04 cm**-1
  30:      1240.76 cm**-1
  31:      1301.74 cm**-1
  32:      1314.71 cm**-1
  33:      1331.02 cm**-1
  34:      1352.92 cm**-1
  35:      1377.27 cm**-1
  36:      1400.33 cm**-1
  37:      1411.84 cm**-1
  38:      1478.52 cm**-1
  39:      1501.72 cm**-1
  40:      1505.13 cm**-1
  41:      1510.45 cm**-1
  42:      1529.12 cm**-1
  43:      1657.62 cm**-1
  44:      1664.11 cm**-1
  45:      3025.22 cm**-1
  46:      3027.14 cm**-1
  47:      3049.60 cm**-1
  48:      3071.14 cm**-1
  49:      3076.13 cm**-1
  50:      3096.34 cm**-1
  51:      3097.90 cm**-1
  52:      3106.58 cm**-1
  53:      3156.80 cm**-1
  54:      3419.61 cm**-1
  55:      3500.37 cm**-1
  56:      3506.11 cm**-1

IR SPECTRUM
-----------

 Mode    freq (cm**-1)   T**2         TX         TY         TZ
-------------------------------------------------------------------
   6:        71.17   12.760566  (  0.144540  -0.807948  -3.476621)
   7:       107.35    4.299470  (  1.553171   1.153735  -0.745670)
   8:       120.93    0.316091  ( -0.530418  -0.173992  -0.066896)
   9:       175.74    4.730539  (  1.408699  -1.657117  -0.008334)
  10:       228.44    0.194226  ( -0.071304  -0.309100   0.305940)
  11:       318.80    8.316730  (  0.961428   1.126468  -2.474562)
  12:       378.80    0.689784  (  0.115215   0.819419   0.071146)
  13:       441.08    3.284781  ( -0.887384  -0.346298   1.541885)
  14:       761.79    4.978311  ( -1.274016  -1.178610  -1.402167)
  15:       822.47   10.759339  (  1.878802   0.404840   2.658110)
  16:       866.09   12.119867  ( -0.244515  -0.793670   3.380853)
  17:       875.99    1.650677  (  0.263808   1.185411  -0.419384)
  18:       903.10    5.577207  (  1.545726   0.741741  -1.624118)
  19:       908.03    4.040401  ( -1.315274  -0.940337   1.194245)
  20:       976.68   30.359120  (  2.775935   1.060266   4.639950)
  21:      1001.95   10.376365  (  2.490162  -1.478384   1.410617)
  22:      1014.62    9.546544  ( -0.679158  -1.863471   2.369128)
  23:      1061.76   29.882737  ( -2.282620  -4.636889   1.780912)
  24:      1078.08   54.412232  (  1.665158   7.117865  -0.987666)
  25:      1117.12    5.799788  ( -0.790189  -0.196452  -2.266450)
  26:      1151.84   15.796605  (  0.952802   3.238055  -2.098517)
  27:      1166.23    0.993745  ( -0.202159   0.961134  -0.170582)
  28:      1173.17    1.441168  (  0.773447   0.523396  -0.754324)
  29:      1224.04    3.446738  ( -1.523312   0.335159  -1.006940)
  30:      1240.76    5.634170  ( -1.465625  -1.764689   0.609907)
  31:      1301.74    1.956285  ( -1.068433   0.360922  -0.827327)
  32:      1314.71    0.505637  ( -0.269768  -0.653887   0.072754)
  33:      1331.02    3.195881  ( -0.092789   1.344316  -1.174771)
  34:      1352.92    5.157214  ( -1.145077  -0.695106  -1.833805)
  35:      1377.27    3.851217  (  0.622656  -0.555960  -1.776070)
  36:      1400.33    0.151591  (  0.080734   0.372056  -0.081534)
  37:      1411.84   12.558876  (  2.198983  -0.736282  -2.679783)
  38:      1478.52    0.065828  ( -0.128758  -0.201811   0.092313)
  39:      1501.72   19.579475  ( -1.159507  -2.320548   3.584700)
  40:      1505.13   10.896486  ( -1.759632   1.988954   1.960674)
  41:      1510.45  136.691807  ( -7.869181   3.836137   7.749313)
  42:      1529.12    0.838378  (  0.680761  -0.323581   0.519844)
  43:      1657.62   53.022718  (  5.349816   3.338825   3.640664)
  44:      1664.11   36.723048  (  0.759628  -4.787261   3.637052)
  45:      3025.22   53.819145  ( -1.707265  -7.087285   0.821455)
  46:      3027.14   27.667574  ( -3.491113  -2.529703   3.013354)
  47:      3049.60   25.279925  (  2.132098   4.509086  -0.634216)
  48:      3071.14    3.867486  ( -1.574775  -1.115653  -0.378004)
  49:      3076.13   24.521845  ( -3.596373   1.868088   2.845732)
  50:      3096.34    6.123834  ( -0.292550  -2.031224  -1.382887)
  51:      3097.90    3.816539  (  0.426845  -0.277716  -1.886058)
  52:      3106.58   32.887358  ( -5.290346   2.116573  -0.647859)
  53:      3156.80    0.863445  ( -0.722796  -0.398051  -0.427278)
  54:      3419.61   47.492798  ( -4.296623   1.490187   5.177950)
  55:      3500.37   92.606895  (  7.028584   4.044162   5.181762)
  56:      3506.11   99.214616  (  0.921542  -8.366972   5.325332)

--------------------------
THERMOCHEMISTRY AT 298.15K
--------------------------

Temperature         ... 298.15 K
Pressure            ... 1.00 atm
Total Mass          ... 102.16 AMU

Throughout the following assumptions are being made:
  (1) The electronic state is orbitally nondegenerate
  (2) There are no thermally accessible electronically excited states
  (3) Hindered rotations indicated by low frequency modes) are not
      treated as such but are treated as vibrations and this may
      case some error
  (4) All equations used are the standard statistical mechanics
      equations for an ideal gas
  (5) All vibrations are strinctly harmonic

------------
INNER ENERGY
------------

The inner energy is: U= E(el) + E(ZPE) + E(vib) + E(rot) + E(trans)
    E(el)   - is the total energy from the electronic structure calculation
              = E(kin-el) + E(nuc-el) + E(el-el) + E(nuc-nuc)
    E(ZPE)  - the the zero temperature vibrational energy from the frequency calculation
    E(vib)  - the the finite temperature correction to E(ZPE) due to population
              of excietd vibrational states
    E(rot)  - is the rotational thermal energy
    E(trans)- is the translational thermal energy

Summary of contributions to the inner energy U:
Electronic energy                ...   -327.18368868 Eh
Zero point energy                ...      0.17691220 Eh     111.01 kcal/mol
Thermal vibrational correction   ...      0.00508363 Eh       3.19 kcal/mol
Thermal rotational correction    ...      0.00141627 Eh       0.89 kcal/mol
Thermal translational correction ...      0.00141627 Eh       0.89 kcal/mol
-----------------------------------------------------------------------
Total thermal energy                   -326.99886031 Eh

Summary of corrections to the electronic energy:
(perhaps to be used in another calculation)
Total thermal correction                  0.00791617 Eh       4.97 kcal/mol
Non-thermal (ZPE) correction              0.17691220 Eh     111.01 kcal/mol
-----------------------------------------------------------------------
Total correction                          0.18482838 Eh     115.98 kcal/mol

--------
ENTHALPY
--------

The enthalpy is H = U + kB*T
                kB is Boltzmann's constant
Total free energy                 ...   -326.99886031 Eh
Thermal Enthalpy correction       ...      0.00094421 Eh       0.59 kcal/mol
-----------------------------------------------------------------------
Total Enthalpy                    ...   -326.99791610 Eh

-------
ENTROPY
-------

The entropy contributions are T*S = T*(S(el)+S(vib)+S(rot)+S(trans)
     S(el)   - electronic entropy
     S(vib)  - vibrational entropy
     S(rot)  - rotational entropy
     S(trans)- translational entropy
The entropies will be listed as mutliplied by the temperature to get
units of energy

Electronic entropy                ...      0.00000000 Eh      0.00 kcal/mol
Vibrational entropy               ...      0.00945999 Eh      5.94 kcal/mol
Rotational entropy                ...      0.01219413 Eh      7.65 kcal/mol
Translational entropy             ...      0.01890147 Eh     11.86 kcal/mol
-----------------------------------------------------------------------
Final entropy term                ...      0.04055558 Eh     25.45 kcal/mol

CAUTION: The rotational entropy is not quite correctly treated here
         because it includes a symmetry number that is not yet correctly
         implemented in ORCA!
For a nonlinear molecule the correct rotational entropy is:
    S(rot) = R*(ln(qrot/sn)+1.5)
    R    = 8.31441 J/mol/K = 1.987191683e-3 kcal/mol/K
    qrot = 272023.7575338
    sn is the rotational symmetry number. We have assumed 3 here
       if it is different for your molecule then you should correct
       the printed rotational entropy by manually evaluating the equation
       as given above

For convenience we print out the resulting values for sn=1 - 12:
 sn= 1  qrot/sn=  272023.7575 T*S(rot)=     8.30 kcal/mol T*S(tot)=    26.10 kcal/mol
 sn= 2  qrot/sn=  136011.8788 T*S(rot)=     7.89 kcal/mol T*S(tot)=    25.69 kcal/mol
 sn= 3  qrot/sn=   90674.5858 T*S(rot)=     7.65 kcal/mol T*S(tot)=    25.45 kcal/mol
 sn= 4  qrot/sn=   68005.9394 T*S(rot)=     7.48 kcal/mol T*S(tot)=    25.28 kcal/mol
 sn= 5  qrot/sn=   54404.7515 T*S(rot)=     7.35 kcal/mol T*S(tot)=    25.15 kcal/mol
 sn= 6  qrot/sn=   45337.2929 T*S(rot)=     7.24 kcal/mol T*S(tot)=    25.04 kcal/mol
 sn= 7  qrot/sn=   38860.5368 T*S(rot)=     7.15 kcal/mol T*S(tot)=    24.95 kcal/mol
 sn= 8  qrot/sn=   34002.9697 T*S(rot)=     7.07 kcal/mol T*S(tot)=    24.87 kcal/mol
 sn= 9  qrot/sn=   30224.8619 T*S(rot)=     7.00 kcal/mol T*S(tot)=    24.80 kcal/mol
 sn=10  qrot/sn=   27202.3758 T*S(rot)=     6.94 kcal/mol T*S(tot)=    24.74 kcal/mol
 sn=11  qrot/sn=   24729.4325 T*S(rot)=     6.88 kcal/mol T*S(tot)=    24.68 kcal/mol
 sn=12  qrot/sn=   22668.6465 T*S(rot)=     6.83 kcal/mol T*S(tot)=    24.63 kcal/mol

-------------------
GIBBS FREE ENTHALPY
-------------------

The Gibbs free enthalpy is G = H - T*S

Total enthalpy                    ...   -326.99791610 Eh
Total entropy correction          ...     -0.04055558 Eh    -25.45 kcal/mol
-----------------------------------------------------------------------
Final Gibbs free enthalpy         ...   -327.03847168 Eh

For completeness - the Gibbs free enthalpy minus the electronic energy
G-E(el)                           ...      0.14521700 Eh     91.12 kcal/mol

                             ****ORCA TERMINATED NORMALLY****
TOTAL RUN TIME: 0 days 0 hours 41 minutes 54 seconds 538 msec
