                         Program Version 3.0.3 - RELEASE   -
|  1> ! NORI PBE0 def2-TZVP UseSym TightOPT Freq TightSCF Grid3 FinalGrid5 XYZFile
|  2> % pal
|  3>     nprocs 8
|  4> end
|  5> %method
|  6>     SymThresh 5.0e-2
|  7> end
|  8> % geom
|  9>     MaxIter 10
| 10> end
| 11> % maxcore 2000
| 12> % output
| 13>     printlevel mini
| 14>     print[ P_Basis ] 0
| 15>     print[ P_SCFInfo ] 1
| 16>     print[ P_SCFIterInfo ] 1
| 17>     print[ P_OrbEn ] 0
| 18>     print[ P_Cartesian ] 0
| 19> end
| 20> % elprop
| 21>     Dipole false
| 22> end
| 23> *xyz 1 1
| 24>  N        2.5891361665     1.5416940128    -0.0645592867
| 25>  C        2.4000061973     0.0537275076     0.0626536719
| 26>  C        3.2396852897    -0.6598806808    -0.9813909880
| 27>  C        4.7151104381    -0.4199152092    -0.7837109429
| 28>  O        5.0411045661     0.9642721488    -0.8465226542
| 29>  C        5.4805341903    -1.2172542343     0.2200748764
| 30>  C        5.7341084971    -1.3945685518    -1.2525433264
| 31>  H        2.3244145446     2.0419780444     0.7829260315
| 32>  H        2.0432228498     1.9210844935    -0.8378198504
| 33>  H        3.6051699602     1.6901011092    -0.2850788296
| 34>  H        2.7241588315    -0.2140395809     1.0690746700
| 35>  H        1.3359549509    -0.1607943046    -0.0327816290
| 36>  H        3.0281485022    -1.7282547845    -0.9006453007
| 37>  H        2.9312235499    -0.3597199352    -1.9904011633
| 38>  H        5.4532084198     1.1631772092    -1.6938513088
| 39>  H        6.2345813241    -0.6901574769     0.7898305768
| 40>  H        4.9700158386    -2.0104643705     0.7530111383
| 41>  H        6.6635297401    -0.9961793452    -1.6418399628
| 42>  H        5.3927061432    -2.2998060516    -1.7387957218
| 43> *
| 44>
| 45>                          ****END OF INPUT****
 Total Charge           Charge          ....    1
 Multiplicity           Mult            ....    1
 Number of Electrons    NEL             ....   56
FINAL SINGLE POINT ENERGY      -327.215616984466
FINAL SINGLE POINT ENERGY      -327.215617329927
FINAL SINGLE POINT ENERGY      -327.215618534763

CARTESIAN COORDINATES (ANGSTROEM)
---------------------------------
  N      2.288302   -0.000319    0.107515
  C      1.446779    0.016602   -1.140643
  C      0.151418   -0.735973   -0.893230
  C     -0.689207   -0.082864    0.174946
  O      0.001230    0.000539    1.417002
  C     -1.559601    1.084139   -0.157681
  C     -2.165774   -0.243075    0.211374
  H      2.989772    0.738847    0.114488
  H      2.769886   -0.892344    0.218424
  H      1.621498    0.107420    0.912276
  H      1.248034    1.065201   -1.365579
  H      2.036086   -0.411302   -1.951136
  H     -0.403379   -0.756677   -1.833499
  H      0.360306   -1.781233   -0.634595
  H     -0.337791   -0.666306    2.023482
  H     -1.618101    1.874567    0.579094
  H     -1.621816    1.408980   -1.189323
  H     -2.635900   -0.314344    1.185166
  H     -2.636528   -0.838158   -0.561270

FINAL SINGLE POINT ENERGY      -327.215618790308
                    ***********************HURRAY********************
 Multiplicity           Mult            ....    1
 Number of Electrons    NEL             ....   56
 Basis Dimension        Dim             ....  289
FINAL SINGLE POINT ENERGY      -327.215619020294

VIBRATIONAL FREQUENCIES
-----------------------

   0:         0.00 cm**-1
   1:         0.00 cm**-1
   2:         0.00 cm**-1
   3:         0.00 cm**-1
   4:         0.00 cm**-1
   5:         0.00 cm**-1
   6:        78.03 cm**-1
   7:       200.40 cm**-1
   8:       247.27 cm**-1
   9:       305.56 cm**-1
  10:       320.39 cm**-1
  11:       357.35 cm**-1
  12:       365.21 cm**-1
  13:       409.10 cm**-1
  14:       447.81 cm**-1
  15:       541.58 cm**-1
  16:       700.06 cm**-1
  17:       776.33 cm**-1
  18:       856.44 cm**-1
  19:       878.16 cm**-1
  20:       908.90 cm**-1
  21:       939.15 cm**-1
  22:       953.74 cm**-1
  23:       971.71 cm**-1
  24:       991.13 cm**-1
  25:      1041.60 cm**-1
  26:      1059.12 cm**-1
  27:      1100.92 cm**-1
  28:      1111.50 cm**-1
  29:      1147.24 cm**-1
  30:      1190.62 cm**-1
  31:      1253.82 cm**-1
  32:      1259.96 cm**-1
  33:      1303.21 cm**-1
  34:      1341.79 cm**-1
  35:      1361.67 cm**-1
  36:      1407.52 cm**-1
  37:      1414.87 cm**-1
  38:      1452.03 cm**-1
  39:      1463.99 cm**-1
  40:      1493.89 cm**-1
  41:      1505.63 cm**-1
  42:      1526.29 cm**-1
  43:      1639.53 cm**-1
  44:      1691.64 cm**-1
  45:      2979.40 cm**-1
  46:      3046.06 cm**-1
  47:      3102.57 cm**-1
  48:      3124.69 cm**-1
  49:      3155.42 cm**-1
  50:      3159.34 cm**-1
  51:      3162.28 cm**-1
  52:      3240.86 cm**-1
  53:      3255.31 cm**-1
  54:      3479.63 cm**-1
  55:      3540.63 cm**-1
  56:      3835.06 cm**-1

IR SPECTRUM
-----------

 Mode    freq (cm**-1)   T**2         TX         TY         TZ
-------------------------------------------------------------------
   6:        78.03    3.914889  ( -0.236398   1.711598  -0.964073)
   7:       200.40    0.965999  (  0.852220   0.072250  -0.484252)
   8:       247.27   32.480694  (  4.696690  -1.109364  -3.031683)
   9:       305.56   17.340667  ( -0.180902  -3.951915  -1.300118)
  10:       320.39   37.669554  ( -5.755977   0.749527   1.994113)
  11:       357.35   56.301465  ( -4.449250   4.669616   3.834101)
  12:       365.21   20.572138  (  3.585180  -0.837345  -2.649052)
  13:       409.10    2.735251  ( -0.340421   1.099226  -1.187883)
  14:       447.81   15.295367  ( -3.834873  -0.767480  -0.009649)
  15:       541.58   11.438266  (  2.567230  -0.420687  -2.161162)
  16:       700.06   15.151796  (  3.669466  -0.850489   0.981572)
  17:       776.33    0.489478  (  0.069412   0.461092   0.521589)
  18:       856.44    1.590809  ( -0.878137   0.635860   0.644490)
  19:       878.16   30.019650  (  1.122403  -2.093538  -4.937303)
  20:       908.90    9.004476  (  0.835510   1.236303  -2.603450)
  21:       939.15   15.978179  (  3.829132   0.588303  -0.984798)
  22:       953.74   26.436755  (  3.509371  -2.116571   3.105028)
  23:       971.71   12.062069  (  0.536737   0.484041   3.397011)
  24:       991.13    5.502461  (  0.555504   2.234984  -0.445782)
  25:      1041.60   11.533897  ( -1.875365  -0.459256  -2.793919)
  26:      1059.12   28.268918  ( -5.072128   1.047281  -1.202347)
  27:      1100.92    1.249718  ( -0.241067  -1.086547  -0.104974)
  28:      1111.50   25.961807  (  4.362313   1.495751  -2.166739)
  29:      1147.24    7.456013  (  2.502445  -1.070266   0.219809)
  30:      1190.62    0.206580  (  0.315883  -0.132940   0.298539)
  31:      1253.82   69.753160  (  1.620306  -0.044201   8.193035)
  32:      1259.96   41.153582  ( -4.488165  -2.343027  -3.939566)
  33:      1303.21    7.173414  (  0.767811   0.644311   2.483696)
  34:      1341.79   10.698013  (  0.323843  -0.920083  -3.121952)
  35:      1361.67   18.771756  ( -3.996557   1.664260  -0.171828)
  36:      1407.52    0.993674  (  0.686492   0.719903  -0.064363)
  37:      1414.87    3.655436  ( -1.390853  -1.287386  -0.252193)
  38:      1452.03   11.814552  (  1.197869   3.181128  -0.509990)
  39:      1463.99    7.099987  (  0.440557   1.825733   1.890131)
  40:      1493.89   27.455228  (  3.022783  -1.987557   3.790465)
  41:      1505.63   53.483040  (  7.145024   0.540017   1.462893)
  42:      1526.29  152.134532  ( 11.360864   1.205327   4.648923)
  43:      1639.53   18.295849  (  1.420842  -3.974301   0.694254)
  44:      1691.64   23.178107  (  2.259376   3.398921  -2.553558)
  45:      2979.40  615.018231  (-20.669532   0.886332  13.674907)
  46:      3046.06   13.390258  (  1.955127  -3.092785  -0.049172)
  47:      3102.57    0.812363  (  0.023849  -0.763930   0.477708)
  48:      3124.69    1.389026  ( -0.387608   1.058277  -0.344726)
  49:      3155.42    1.666935  ( -0.211786  -1.092718   0.654254)
  50:      3159.34    1.253352  (  0.712668   0.302692  -0.808600)
  51:      3162.28    0.555476  (  0.286511  -0.678019  -0.116949)
  52:      3240.86    0.230078  (  0.321438   0.330525   0.132323)
  53:      3255.31    0.322452  ( -0.095010  -0.352758   0.434726)
  54:      3479.63   92.288516  (  9.546894  -1.069962  -0.022660)
  55:      3540.63   84.706285  ( -2.073129  -8.953208   0.498488)
  56:      3835.06   85.911485  ( -2.460205  -5.154132   7.300260)

--------------------------
THERMOCHEMISTRY AT 298.15K
--------------------------

Temperature         ... 298.15 K
Pressure            ... 1.00 atm
Total Mass          ... 102.16 AMU

Throughout the following assumptions are being made:
  (1) The electronic state is orbitally nondegenerate
  (2) There are no thermally accessible electronically excited states
  (3) Hindered rotations indicated by low frequency modes) are not
      treated as such but are treated as vibrations and this may
      case some error
  (4) All equations used are the standard statistical mechanics
      equations for an ideal gas
  (5) All vibrations are strinctly harmonic

------------
INNER ENERGY
------------

The inner energy is: U= E(el) + E(ZPE) + E(vib) + E(rot) + E(trans)
    E(el)   - is the total energy from the electronic structure calculation
              = E(kin-el) + E(nuc-el) + E(el-el) + E(nuc-nuc)
    E(ZPE)  - the the zero temperature vibrational energy from the frequency calculation
    E(vib)  - the the finite temperature correction to E(ZPE) due to population
              of excietd vibrational states
    E(rot)  - is the rotational thermal energy
    E(trans)- is the translational thermal energy

Summary of contributions to the inner energy U:
Electronic energy                ...   -327.21561902 Eh
Zero point energy                ...      0.17563861 Eh     110.21 kcal/mol
Thermal vibrational correction   ...      0.00488690 Eh       3.07 kcal/mol
Thermal rotational correction    ...      0.00141627 Eh       0.89 kcal/mol
Thermal translational correction ...      0.00141627 Eh       0.89 kcal/mol
-----------------------------------------------------------------------
Total thermal energy                   -327.03226097 Eh

Summary of corrections to the electronic energy:
(perhaps to be used in another calculation)
Total thermal correction                  0.00771944 Eh       4.84 kcal/mol
Non-thermal (ZPE) correction              0.17563861 Eh     110.21 kcal/mol
-----------------------------------------------------------------------
Total correction                          0.18335805 Eh     115.06 kcal/mol

--------
ENTHALPY
--------

The enthalpy is H = U + kB*T
                kB is Boltzmann's constant
Total free energy                 ...   -327.03226097 Eh
Thermal Enthalpy correction       ...      0.00094421 Eh       0.59 kcal/mol
-----------------------------------------------------------------------
Total Enthalpy                    ...   -327.03131676 Eh

-------
ENTROPY
-------

The entropy contributions are T*S = T*(S(el)+S(vib)+S(rot)+S(trans)
     S(el)   - electronic entropy
     S(vib)  - vibrational entropy
     S(rot)  - rotational entropy
     S(trans)- translational entropy
The entropies will be listed as mutliplied by the temperature to get
units of energy

Electronic entropy                ...      0.00000000 Eh      0.00 kcal/mol
Vibrational entropy               ...      0.00811307 Eh      5.09 kcal/mol
Rotational entropy                ...      0.01203584 Eh      7.55 kcal/mol
Translational entropy             ...      0.01890147 Eh     11.86 kcal/mol
-----------------------------------------------------------------------
Final entropy term                ...      0.03905037 Eh     24.50 kcal/mol

CAUTION: The rotational entropy is not quite correctly treated here
         because it includes a symmetry number that is not yet correctly
         implemented in ORCA!
For a nonlinear molecule the correct rotational entropy is:
    S(rot) = R*(ln(qrot/sn)+1.5)
    R    = 8.31441 J/mol/K = 1.987191683e-3 kcal/mol/K
    qrot = 230036.9517982
    sn is the rotational symmetry number. We have assumed 3 here
       if it is different for your molecule then you should correct
       the printed rotational entropy by manually evaluating the equation
       as given above

For convenience we print out the resulting values for sn=1 - 12:
 sn= 1  qrot/sn=  230036.9518 T*S(rot)=     8.20 kcal/mol T*S(tot)=    25.16 kcal/mol
 sn= 2  qrot/sn=  115018.4759 T*S(rot)=     7.79 kcal/mol T*S(tot)=    24.74 kcal/mol
 sn= 3  qrot/sn=   76678.9839 T*S(rot)=     7.55 kcal/mol T*S(tot)=    24.50 kcal/mol
 sn= 4  qrot/sn=   57509.2379 T*S(rot)=     7.38 kcal/mol T*S(tot)=    24.33 kcal/mol
 sn= 5  qrot/sn=   46007.3904 T*S(rot)=     7.25 kcal/mol T*S(tot)=    24.20 kcal/mol
 sn= 6  qrot/sn=   38339.4920 T*S(rot)=     7.14 kcal/mol T*S(tot)=    24.09 kcal/mol
 sn= 7  qrot/sn=   32862.4217 T*S(rot)=     7.05 kcal/mol T*S(tot)=    24.00 kcal/mol
 sn= 8  qrot/sn=   28754.6190 T*S(rot)=     6.97 kcal/mol T*S(tot)=    23.92 kcal/mol
 sn= 9  qrot/sn=   25559.6613 T*S(rot)=     6.90 kcal/mol T*S(tot)=    23.85 kcal/mol
 sn=10  qrot/sn=   23003.6952 T*S(rot)=     6.84 kcal/mol T*S(tot)=    23.79 kcal/mol
 sn=11  qrot/sn=   20912.4502 T*S(rot)=     6.78 kcal/mol T*S(tot)=    23.73 kcal/mol
 sn=12  qrot/sn=   19169.7460 T*S(rot)=     6.73 kcal/mol T*S(tot)=    23.68 kcal/mol

-------------------
GIBBS FREE ENTHALPY
-------------------

The Gibbs free enthalpy is G = H - T*S

Total enthalpy                    ...   -327.03131676 Eh
Total entropy correction          ...     -0.03905037 Eh    -24.50 kcal/mol
-----------------------------------------------------------------------
Final Gibbs free enthalpy         ...   -327.07036714 Eh

For completeness - the Gibbs free enthalpy minus the electronic energy
G-E(el)                           ...      0.14525188 Eh     91.15 kcal/mol

                             ****ORCA TERMINATED NORMALLY****
TOTAL RUN TIME: 0 days 0 hours 45 minutes 4 seconds 712 msec
