                         Program Version 3.0.3 - RELEASE   -
|  1> ! NORI PBE0 def2-TZVP UseSym TightOPT Freq TightSCF Grid3 FinalGrid5 XYZFile
|  2> % pal
|  3>     nprocs 8
|  4> end
|  5> %method
|  6>     SymThresh 5.0e-2
|  7> end
|  8> % geom
|  9>     MaxIter 10
| 10> end
| 11> % maxcore 2000
| 12> % output
| 13>     printlevel mini
| 14>     print[ P_Basis ] 0
| 15>     print[ P_SCFInfo ] 1
| 16>     print[ P_SCFIterInfo ] 1
| 17>     print[ P_OrbEn ] 0
| 18>     print[ P_Cartesian ] 0
| 19> end
| 20> % elprop
| 21>     Dipole false
| 22> end
| 23> *xyz 1 1
| 24>  N        0.7776573313    -0.1917493291     0.1255298937
| 25>  C        2.2802981928    -0.0561386151     0.0909116564
| 26>  C        2.8209708929    -0.5145191380    -1.2480217446
| 27>  C        4.3454143878    -0.4063446424    -1.3037193962
| 28>  C        5.0250724415    -1.3555208867    -0.3614409103
| 29>  C        6.1773707845    -0.9651447412     0.4419613105
| 30>  O        4.8820231719    -1.0555595162     1.0249537764
| 31>  H        0.3922055822     0.1229672123     1.0180734617
| 32>  H        0.4984232982    -1.1659994990    -0.0076411843
| 33>  H        0.3383632056     0.3561097309    -0.6173132163
| 34>  H        2.4985297950     0.9951914630     0.2819734170
| 35>  H        2.6699275044    -0.6414374448     0.9223648287
| 36>  H        2.5238922419    -1.5540903823    -1.4330035719
| 37>  H        2.3864040347     0.0932072866    -2.0494442194
| 38>  H        4.6541973138     0.6191412633    -1.0788613350
| 39>  H        4.6720083332    -0.6185971703    -2.3253508835
| 40>  H        4.9088132559    -2.4142449050    -0.5939266610
| 41>  H        6.5726046421     0.0429881986     0.3509811567
| 42>  H        6.8824835902    -1.7219788849     0.7710036214
| 43> *
| 44>
| 45>                          ****END OF INPUT****
 Total Charge           Charge          ....    1
 Multiplicity           Mult            ....    1
 Number of Electrons    NEL             ....   56
FINAL SINGLE POINT ENERGY      -327.193550048417

CARTESIAN COORDINATES (ANGSTROEM)
---------------------------------
  N      2.230669    0.000208   -1.937297
  C      1.151140   -0.373714   -0.950800
  C     -0.177992    0.217667   -1.373439
  C     -1.288395   -0.130189   -0.380685
  C     -1.085081    0.511954    0.960239
  C     -1.327558   -0.198827    2.209736
  O     -0.001618   -0.001702    1.731470
  H      3.134063   -0.399172   -1.675346
  H      2.341535    1.015180   -1.986001
  H      2.002926   -0.327677   -2.878424
  H      1.123781   -1.463788   -0.923889
  H      1.476766   -0.016860    0.025154
  H     -0.091421    1.308259   -1.453446
  H     -0.450571   -0.158475   -2.366006
  H     -1.354850   -1.215929   -0.262052
  H     -2.243129    0.202049   -0.797067
  H     -1.157497    1.599507    0.977701
  H     -1.681325   -1.225659    2.177779
  H     -1.580674    0.361368    3.104313

FINAL SINGLE POINT ENERGY      -327.193550902140
                    ***********************HURRAY********************
 Multiplicity           Mult            ....    1
 Number of Electrons    NEL             ....   56
 Basis Dimension        Dim             ....  289
FINAL SINGLE POINT ENERGY      -327.193551237052

VIBRATIONAL FREQUENCIES
-----------------------

   0:         0.00 cm**-1
   1:         0.00 cm**-1
   2:         0.00 cm**-1
   3:         0.00 cm**-1
   4:         0.00 cm**-1
   5:         0.00 cm**-1
   6:        58.41 cm**-1
   7:        88.38 cm**-1
   8:       129.04 cm**-1
   9:       221.66 cm**-1
  10:       242.73 cm**-1
  11:       252.08 cm**-1
  12:       356.48 cm**-1
  13:       406.50 cm**-1
  14:       540.88 cm**-1
  15:       767.55 cm**-1
  16:       795.77 cm**-1
  17:       849.14 cm**-1
  18:       878.15 cm**-1
  19:       915.13 cm**-1
  20:       943.34 cm**-1
  21:       966.93 cm**-1
  22:       980.75 cm**-1
  23:      1025.68 cm**-1
  24:      1066.45 cm**-1
  25:      1095.42 cm**-1
  26:      1142.59 cm**-1
  27:      1170.95 cm**-1
  28:      1176.21 cm**-1
  29:      1189.91 cm**-1
  30:      1262.69 cm**-1
  31:      1298.61 cm**-1
  32:      1303.49 cm**-1
  33:      1349.31 cm**-1
  34:      1358.34 cm**-1
  35:      1364.23 cm**-1
  36:      1417.90 cm**-1
  37:      1459.87 cm**-1
  38:      1468.55 cm**-1
  39:      1483.43 cm**-1
  40:      1498.29 cm**-1
  41:      1506.78 cm**-1
  42:      1534.25 cm**-1
  43:      1658.82 cm**-1
  44:      1664.19 cm**-1
  45:      3031.85 cm**-1
  46:      3061.72 cm**-1
  47:      3079.42 cm**-1
  48:      3108.49 cm**-1
  49:      3110.07 cm**-1
  50:      3122.49 cm**-1
  51:      3126.65 cm**-1
  52:      3174.10 cm**-1
  53:      3218.64 cm**-1
  54:      3422.72 cm**-1
  55:      3504.61 cm**-1
  56:      3510.40 cm**-1

IR SPECTRUM
-----------

 Mode    freq (cm**-1)   T**2         TX         TY         TZ
-------------------------------------------------------------------
   6:        58.41    2.099002  (  0.058689   0.021348   1.447447)
   7:        88.38   12.149169  ( -0.158318  -3.480843   0.088513)
   8:       129.04   20.863892  (  0.855688  -0.496301  -4.459302)
   9:       221.66    0.665478  (  0.243742  -0.247312  -0.738177)
  10:       242.73    2.066076  (  0.961372  -0.943073   0.502446)
  11:       252.08    2.194186  (  0.571297  -1.009756  -0.920977)
  12:       356.48   13.013782  ( -3.604745   0.137355  -0.027028)
  13:       406.50    4.449091  (  1.461471   0.386636   1.470954)
  14:       540.88    2.605567  ( -0.011603   0.050062   1.613359)
  15:       767.55    7.270456  (  1.266965   2.050991   1.207764)
  16:       795.77    6.677951  ( -0.346245  -0.628933  -2.482440)
  17:       849.14   13.277176  ( -3.466920   0.988741   0.529180)
  18:       878.15   12.765041  (  0.126289   1.602708  -3.190677)
  19:       915.13    8.980153  (  2.863575   0.758525   0.452473)
  20:       943.34    7.357994  ( -2.303077   1.403947  -0.287687)
  21:       966.93   40.995339  ( -5.503654   2.805778  -1.683075)
  22:       980.75   39.521628  (  5.688025   0.612571  -2.606292)
  23:      1025.68   13.436459  ( -1.118256   1.950813   2.894874)
  24:      1066.45    2.546339  (  1.238505  -0.806659   0.601453)
  25:      1095.42    5.962259  (  2.350177  -0.651244  -0.121696)
  26:      1142.59    4.520262  ( -1.726125  -0.849725  -0.904833)
  27:      1170.95    2.641782  ( -0.570782   1.515486  -0.138900)
  28:      1176.21    0.944547  ( -0.244779  -0.358303  -0.869626)
  29:      1189.91    0.830725  (  0.235183   0.814401  -0.334910)
  30:      1262.69    3.190088  ( -0.813652   1.293591   0.924490)
  31:      1298.61    0.587401  (  0.551234  -0.097797   0.523430)
  32:      1303.49    9.098688  ( -2.899307   0.144218   0.819700)
  33:      1349.31    9.517894  ( -1.154864   1.700527   2.300520)
  34:      1358.34    1.147004  (  0.171162   1.015271   0.294844)
  35:      1364.23    4.071347  (  0.253350  -0.273181   1.983061)
  36:      1417.90    5.960981  ( -2.362888  -0.264579   0.554741)
  37:      1459.87    1.302532  (  0.924689  -0.174098   0.645888)
  38:      1468.55   15.786578  ( -2.877738  -2.564984  -0.962320)
  39:      1483.43    1.451229  ( -0.962148  -0.625587   0.366252)
  40:      1498.29   22.850567  (  4.760598  -0.365956  -0.230975)
  41:      1506.78  141.872161  (  7.668569   3.250406  -8.514697)
  42:      1534.25    6.976113  (  1.800313  -1.133020   1.565648)
  43:      1658.82   51.529110  ( -1.221924  -6.136446  -3.518527)
  44:      1664.19   37.007111  (  4.556913  -2.629951   3.053689)
  45:      3031.85   17.506789  ( -1.187057  -1.870250   3.549627)
  46:      3061.72    2.849236  (  1.296091   0.780442  -0.748528)
  47:      3079.42   14.516962  (  0.889347   2.644991   2.594233)
  48:      3108.49    2.054965  (  0.573723  -1.036412  -0.807252)
  49:      3110.07    1.295122  (  0.953768  -0.315288  -0.534828)
  50:      3122.49   13.890918  ( -2.027602  -2.485595   1.897779)
  51:      3126.65   16.500173  (  1.953520  -3.560886   0.063426)
  52:      3174.10    3.827990  (  0.970193   0.467097  -1.633565)
  53:      3218.64    6.242572  (  0.086394  -2.116229  -1.325399)
  54:      3422.72   44.853914  ( -5.189696  -1.052567   4.100375)
  55:      3504.61   87.427849  ( -2.772044  -7.168218  -5.325436)
  56:      3510.40   97.853605  ( -6.768679   5.726542  -4.386947)

--------------------------
THERMOCHEMISTRY AT 298.15K
--------------------------

Temperature         ... 298.15 K
Pressure            ... 1.00 atm
Total Mass          ... 102.16 AMU

Throughout the following assumptions are being made:
  (1) The electronic state is orbitally nondegenerate
  (2) There are no thermally accessible electronically excited states
  (3) Hindered rotations indicated by low frequency modes) are not
      treated as such but are treated as vibrations and this may
      case some error
  (4) All equations used are the standard statistical mechanics
      equations for an ideal gas
  (5) All vibrations are strinctly harmonic

------------
INNER ENERGY
------------

The inner energy is: U= E(el) + E(ZPE) + E(vib) + E(rot) + E(trans)
    E(el)   - is the total energy from the electronic structure calculation
              = E(kin-el) + E(nuc-el) + E(el-el) + E(nuc-nuc)
    E(ZPE)  - the the zero temperature vibrational energy from the frequency calculation
    E(vib)  - the the finite temperature correction to E(ZPE) due to population
              of excietd vibrational states
    E(rot)  - is the rotational thermal energy
    E(trans)- is the translational thermal energy

Summary of contributions to the inner energy U:
Electronic energy                ...   -327.19355124 Eh
Zero point energy                ...      0.17623919 Eh     110.59 kcal/mol
Thermal vibrational correction   ...      0.00535365 Eh       3.36 kcal/mol
Thermal rotational correction    ...      0.00141627 Eh       0.89 kcal/mol
Thermal translational correction ...      0.00141627 Eh       0.89 kcal/mol
-----------------------------------------------------------------------
Total thermal energy                   -327.00912585 Eh

Summary of corrections to the electronic energy:
(perhaps to be used in another calculation)
Total thermal correction                  0.00818620 Eh       5.14 kcal/mol
Non-thermal (ZPE) correction              0.17623919 Eh     110.59 kcal/mol
-----------------------------------------------------------------------
Total correction                          0.18442538 Eh     115.73 kcal/mol

--------
ENTHALPY
--------

The enthalpy is H = U + kB*T
                kB is Boltzmann's constant
Total free energy                 ...   -327.00912585 Eh
Thermal Enthalpy correction       ...      0.00094421 Eh       0.59 kcal/mol
-----------------------------------------------------------------------
Total Enthalpy                    ...   -327.00818165 Eh

-------
ENTROPY
-------

The entropy contributions are T*S = T*(S(el)+S(vib)+S(rot)+S(trans)
     S(el)   - electronic entropy
     S(vib)  - vibrational entropy
     S(rot)  - rotational entropy
     S(trans)- translational entropy
The entropies will be listed as mutliplied by the temperature to get
units of energy

Electronic entropy                ...      0.00000000 Eh      0.00 kcal/mol
Vibrational entropy               ...      0.01004264 Eh      6.30 kcal/mol
Rotational entropy                ...      0.01223597 Eh      7.68 kcal/mol
Translational entropy             ...      0.01890147 Eh     11.86 kcal/mol
-----------------------------------------------------------------------
Final entropy term                ...      0.04118008 Eh     25.84 kcal/mol

CAUTION: The rotational entropy is not quite correctly treated here
         because it includes a symmetry number that is not yet correctly
         implemented in ORCA!
For a nonlinear molecule the correct rotational entropy is:
    S(rot) = R*(ln(qrot/sn)+1.5)
    R    = 8.31441 J/mol/K = 1.987191683e-3 kcal/mol/K
    qrot = 284350.7795980
    sn is the rotational symmetry number. We have assumed 3 here
       if it is different for your molecule then you should correct
       the printed rotational entropy by manually evaluating the equation
       as given above

For convenience we print out the resulting values for sn=1 - 12:
 sn= 1  qrot/sn=  284350.7796 T*S(rot)=     8.33 kcal/mol T*S(tot)=    26.49 kcal/mol
 sn= 2  qrot/sn=  142175.3898 T*S(rot)=     7.92 kcal/mol T*S(tot)=    26.08 kcal/mol
 sn= 3  qrot/sn=   94783.5932 T*S(rot)=     7.68 kcal/mol T*S(tot)=    25.84 kcal/mol
 sn= 4  qrot/sn=   71087.6949 T*S(rot)=     7.51 kcal/mol T*S(tot)=    25.67 kcal/mol
 sn= 5  qrot/sn=   56870.1559 T*S(rot)=     7.38 kcal/mol T*S(tot)=    25.54 kcal/mol
 sn= 6  qrot/sn=   47391.7966 T*S(rot)=     7.27 kcal/mol T*S(tot)=    25.43 kcal/mol
 sn= 7  qrot/sn=   40621.5399 T*S(rot)=     7.18 kcal/mol T*S(tot)=    25.34 kcal/mol
 sn= 8  qrot/sn=   35543.8474 T*S(rot)=     7.10 kcal/mol T*S(tot)=    25.26 kcal/mol
 sn= 9  qrot/sn=   31594.5311 T*S(rot)=     7.03 kcal/mol T*S(tot)=    25.19 kcal/mol
 sn=10  qrot/sn=   28435.0780 T*S(rot)=     6.96 kcal/mol T*S(tot)=    25.13 kcal/mol
 sn=11  qrot/sn=   25850.0709 T*S(rot)=     6.91 kcal/mol T*S(tot)=    25.07 kcal/mol
 sn=12  qrot/sn=   23695.8983 T*S(rot)=     6.86 kcal/mol T*S(tot)=    25.02 kcal/mol

-------------------
GIBBS FREE ENTHALPY
-------------------

The Gibbs free enthalpy is G = H - T*S

Total enthalpy                    ...   -327.00818165 Eh
Total entropy correction          ...     -0.04118008 Eh    -25.84 kcal/mol
-----------------------------------------------------------------------
Final Gibbs free enthalpy         ...   -327.04936172 Eh

For completeness - the Gibbs free enthalpy minus the electronic energy
G-E(el)                           ...      0.14418952 Eh     90.48 kcal/mol

                             ****ORCA TERMINATED NORMALLY****
TOTAL RUN TIME: 0 days 0 hours 40 minutes 10 seconds 655 msec
