                         Program Version 3.0.3 - RELEASE   -
|  1> ! NORI PBE0 def2-TZVP UseSym TightOPT Freq TightSCF Grid3 FinalGrid5 XYZFile
|  2> % pal
|  3>     nprocs 8
|  4> end
|  5> %method
|  6>     SymThresh 5.0e-2
|  7> end
|  8> % geom
|  9>     MaxIter 10
| 10> end
| 11> % maxcore 2000
| 12> % output
| 13>     printlevel mini
| 14>     print[ P_Basis ] 0
| 15>     print[ P_SCFInfo ] 1
| 16>     print[ P_SCFIterInfo ] 1
| 17>     print[ P_OrbEn ] 0
| 18>     print[ P_Cartesian ] 0
| 19> end
| 20> % elprop
| 21>     Dipole false
| 22> end
| 23> *xyz 1 1
| 24>  N        0.7154744735    -0.2302956943     0.1774294190
| 25>  C        2.2110810235    -0.2382960174     0.0046203697
| 26>  C        2.8914310665     0.1474697719     1.2763852754
| 27>  C        2.3147822823     0.4467181314     2.4303322166
| 28>  C        2.6375678587    -1.6040190366    -0.4874063874
| 29>  C        2.7464059782    -1.8908783498    -1.9213968728
| 30>  O        3.8822398699    -1.5937101285    -1.1292710997
| 31>  H        0.2471959806    -0.4885723898    -0.6930465111
| 32>  H        0.3871645803     0.6943220585     0.4658224631
| 33>  H        0.4346706691    -0.8963265643     0.9020239412
| 34>  H        2.4298328931     0.4917234090    -0.7814669057
| 35>  H        3.9739738391     0.1528885306     1.1866790688
| 36>  H        1.2406123970     0.4662598798     2.5980848269
| 37>  H        2.9141732638     0.7002905854     3.2952640264
| 38>  H        2.4848414021    -2.4224103071     0.2181473474
| 39>  H        2.6704224372    -2.9198924351    -2.2586781939
| 40>  H        2.4806699851    -1.1283314437    -2.6509529841
| 41> *
| 42>
| 43>                          ****END OF INPUT****
 Total Charge           Charge          ....    1
 Multiplicity           Mult            ....    1
 Number of Electrons    NEL             ....   54
FINAL SINGLE POINT ENERGY      -325.949989193438
FINAL SINGLE POINT ENERGY      -325.949991396402
FINAL SINGLE POINT ENERGY      -325.949993481410

CARTESIAN COORDINATES (ANGSTROEM)
---------------------------------
  N      0.985526    0.002170   -1.519734
  C      0.098223    0.383731   -0.364092
  C     -1.338143    0.353330   -0.770139
  C     -1.826351    0.011260   -1.952489
  C      0.390236   -0.538621    0.799183
  C      1.382054   -0.181020    1.817996
  O     -0.007263   -0.010836    2.033753
  H      1.970156    0.028264   -1.248526
  H      0.845123    0.636448   -2.309765
  H      0.767674   -0.944421   -1.842429
  H      0.391973    1.398854   -0.078540
  H     -2.006173    0.639949    0.036384
  H     -1.224422   -0.285525   -2.807467
  H     -2.894773    0.015107   -2.127443
  H      0.133658   -1.586858    0.637499
  H      1.849259   -0.971680    2.397132
  H      1.950513    0.742111    1.724408

FINAL SINGLE POINT ENERGY      -325.949993902340
                    ***********************HURRAY********************
 Multiplicity           Mult            ....    1
 Number of Electrons    NEL             ....   54
 Basis Dimension        Dim             ....  277
FINAL SINGLE POINT ENERGY      -325.949994070075

VIBRATIONAL FREQUENCIES
-----------------------

   0:         0.00 cm**-1
   1:         0.00 cm**-1
   2:         0.00 cm**-1
   3:         0.00 cm**-1
   4:         0.00 cm**-1
   5:         0.00 cm**-1
   6:        76.03 cm**-1
   7:        94.19 cm**-1
   8:       193.48 cm**-1
   9:       216.22 cm**-1
  10:       276.44 cm**-1
  11:       295.10 cm**-1
  12:       359.78 cm**-1
  13:       467.38 cm**-1
  14:       579.02 cm**-1
  15:       655.00 cm**-1
  16:       819.31 cm**-1
  17:       874.08 cm**-1
  18:       931.77 cm**-1
  19:       950.23 cm**-1
  20:       975.21 cm**-1
  21:       979.53 cm**-1
  22:      1006.08 cm**-1
  23:      1038.08 cm**-1
  24:      1092.50 cm**-1
  25:      1109.27 cm**-1
  26:      1138.05 cm**-1
  27:      1168.18 cm**-1
  28:      1183.75 cm**-1
  29:      1208.98 cm**-1
  30:      1290.78 cm**-1
  31:      1302.44 cm**-1
  32:      1323.97 cm**-1
  33:      1380.48 cm**-1
  34:      1448.34 cm**-1
  35:      1465.91 cm**-1
  36:      1494.49 cm**-1
  37:      1527.21 cm**-1
  38:      1641.69 cm**-1
  39:      1658.24 cm**-1
  40:      1728.78 cm**-1
  41:      3081.73 cm**-1
  42:      3111.11 cm**-1
  43:      3114.86 cm**-1
  44:      3151.06 cm**-1
  45:      3193.56 cm**-1
  46:      3213.49 cm**-1
  47:      3249.06 cm**-1
  48:      3414.03 cm**-1
  49:      3491.08 cm**-1
  50:      3510.86 cm**-1

IR SPECTRUM
-----------

 Mode    freq (cm**-1)   T**2         TX         TY         TZ
-------------------------------------------------------------------
   6:        76.03    1.590607  ( -1.123945  -0.336952   0.462405)
   7:        94.19    0.293355  (  0.329467   0.425616  -0.060475)
   8:       193.48    1.111431  (  0.755178  -0.680365  -0.279717)
   9:       216.22    0.307345  (  0.053456  -0.549652   0.048679)
  10:       276.44   13.620096  ( -3.447888  -0.003225  -1.316113)
  11:       295.10    2.497205  (  1.262214  -0.857227   0.411320)
  12:       359.78    4.864989  (  0.592723   1.364579  -1.628371)
  13:       467.38   11.188261  (  0.455898  -0.086412  -3.312544)
  14:       579.02   11.260226  ( -1.889173  -1.633307   2.241330)
  15:       655.00   15.543608  ( -0.069785  -3.172801   2.339246)
  16:       819.31    6.049259  (  2.218952  -0.100197  -1.056159)
  17:       874.08    8.700403  ( -1.067226   1.432985   2.346910)
  18:       931.77   10.293836  (  2.012411   1.765385   1.768461)
  19:       950.23   11.434367  ( -1.835306   0.975978  -2.667112)
  20:       975.21   42.111191  ( -5.159611   2.554762   2.993792)
  21:       979.53   50.190138  (  0.221568   6.734051  -2.189429)
  22:      1006.08   12.877276  (  0.196098  -1.936770   3.014589)
  23:      1038.08   13.672628  ( -0.714692   3.418611  -1.214472)
  24:      1092.50    5.865736  (  2.383466  -0.396952   0.165087)
  25:      1109.27    5.537291  (  1.448787   1.505844   1.082008)
  26:      1138.05   15.933733  (  1.236986   0.232288   3.788092)
  27:      1168.18    0.600505  (  0.521731   0.571614  -0.039483)
  28:      1183.75    1.652575  ( -0.472608   1.082170   0.508059)
  29:      1208.98    4.321644  ( -1.104428   1.111791  -1.365944)
  30:      1290.78    6.277167  (  1.717035  -0.237478  -1.809022)
  31:      1302.44    7.445280  ( -2.491964   0.811540  -0.759473)
  32:      1323.97    0.977621  ( -0.576761   0.170250  -0.784845)
  33:      1380.48    9.579442  ( -2.732069  -1.188542   0.838219)
  34:      1448.34    0.348317  ( -0.565217   0.106011  -0.132699)
  35:      1465.91   18.308072  ( -4.171340  -0.270519  -0.913681)
  36:      1494.49  168.213466  ( -7.496071   2.787231  10.210472)
  37:      1527.21    6.337449  (  0.560589  -1.381301  -2.028595)
  38:      1641.69   54.684508  (  1.135673   6.994554  -2.114467)
  39:      1658.24   39.126878  (  5.933544   0.151492   1.974077)
  40:      1728.78    1.932235  ( -0.500350  -0.478460  -1.205388)
  41:      3081.73    1.174033  ( -0.825192   0.683718  -0.160066)
  42:      3111.11    7.395014  (  2.141863   1.675150  -0.036164)
  43:      3114.86    5.040812  (  1.049762  -1.195165  -1.584422)
  44:      3151.06   11.199241  (  3.035248  -0.516925  -1.311221)
  45:      3193.56    4.709627  ( -1.267390   0.509287   1.686410)
  46:      3213.49    2.312738  ( -0.100944  -1.443341   0.468310)
  47:      3249.06    1.906974  ( -0.907028  -0.226648  -1.016319)
  48:      3414.03   35.364711  ( -3.063564   1.358739   4.912546)
  49:      3491.08   85.801664  (  2.087833   8.743514  -2.234630)
  50:      3510.86   91.349360  (  8.086268  -0.767237   5.037159)

--------------------------
THERMOCHEMISTRY AT 298.15K
--------------------------

Temperature         ... 298.15 K
Pressure            ... 1.00 atm
Total Mass          ... 100.14 AMU

Throughout the following assumptions are being made:
  (1) The electronic state is orbitally nondegenerate
  (2) There are no thermally accessible electronically excited states
  (3) Hindered rotations indicated by low frequency modes) are not
      treated as such but are treated as vibrations and this may
      case some error
  (4) All equations used are the standard statistical mechanics
      equations for an ideal gas
  (5) All vibrations are strinctly harmonic

------------
INNER ENERGY
------------

The inner energy is: U= E(el) + E(ZPE) + E(vib) + E(rot) + E(trans)
    E(el)   - is the total energy from the electronic structure calculation
              = E(kin-el) + E(nuc-el) + E(el-el) + E(nuc-nuc)
    E(ZPE)  - the the zero temperature vibrational energy from the frequency calculation
    E(vib)  - the the finite temperature correction to E(ZPE) due to population
              of excietd vibrational states
    E(rot)  - is the rotational thermal energy
    E(trans)- is the translational thermal energy

Summary of contributions to the inner energy U:
Electronic energy                ...   -325.94999407 Eh
Zero point energy                ...      0.15145452 Eh      95.04 kcal/mol
Thermal vibrational correction   ...      0.00498177 Eh       3.13 kcal/mol
Thermal rotational correction    ...      0.00141627 Eh       0.89 kcal/mol
Thermal translational correction ...      0.00141627 Eh       0.89 kcal/mol
-----------------------------------------------------------------------
Total thermal energy                   -325.79072524 Eh

Summary of corrections to the electronic energy:
(perhaps to be used in another calculation)
Total thermal correction                  0.00781431 Eh       4.90 kcal/mol
Non-thermal (ZPE) correction              0.15145452 Eh      95.04 kcal/mol
-----------------------------------------------------------------------
Total correction                          0.15926883 Eh      99.94 kcal/mol

--------
ENTHALPY
--------

The enthalpy is H = U + kB*T
                kB is Boltzmann's constant
Total free energy                 ...   -325.79072524 Eh
Thermal Enthalpy correction       ...      0.00094421 Eh       0.59 kcal/mol
-----------------------------------------------------------------------
Total Enthalpy                    ...   -325.78978103 Eh

-------
ENTROPY
-------

The entropy contributions are T*S = T*(S(el)+S(vib)+S(rot)+S(trans)
     S(el)   - electronic entropy
     S(vib)  - vibrational entropy
     S(rot)  - rotational entropy
     S(trans)- translational entropy
The entropies will be listed as mutliplied by the temperature to get
units of energy

Electronic entropy                ...      0.00000000 Eh      0.00 kcal/mol
Vibrational entropy               ...      0.00898162 Eh      5.64 kcal/mol
Rotational entropy                ...      0.01209302 Eh      7.59 kcal/mol
Translational entropy             ...      0.01887324 Eh     11.84 kcal/mol
-----------------------------------------------------------------------
Final entropy term                ...      0.03994788 Eh     25.07 kcal/mol

CAUTION: The rotational entropy is not quite correctly treated here
         because it includes a symmetry number that is not yet correctly
         implemented in ORCA!
For a nonlinear molecule the correct rotational entropy is:
    S(rot) = R*(ln(qrot/sn)+1.5)
    R    = 8.31441 J/mol/K = 1.987191683e-3 kcal/mol/K
    qrot = 244399.2517302
    sn is the rotational symmetry number. We have assumed 3 here
       if it is different for your molecule then you should correct
       the printed rotational entropy by manually evaluating the equation
       as given above

For convenience we print out the resulting values for sn=1 - 12:
 sn= 1  qrot/sn=  244399.2517 T*S(rot)=     8.24 kcal/mol T*S(tot)=    25.72 kcal/mol
 sn= 2  qrot/sn=  122199.6259 T*S(rot)=     7.83 kcal/mol T*S(tot)=    25.31 kcal/mol
 sn= 3  qrot/sn=   81466.4172 T*S(rot)=     7.59 kcal/mol T*S(tot)=    25.07 kcal/mol
 sn= 4  qrot/sn=   61099.8129 T*S(rot)=     7.42 kcal/mol T*S(tot)=    24.90 kcal/mol
 sn= 5  qrot/sn=   48879.8503 T*S(rot)=     7.29 kcal/mol T*S(tot)=    24.76 kcal/mol
 sn= 6  qrot/sn=   40733.2086 T*S(rot)=     7.18 kcal/mol T*S(tot)=    24.66 kcal/mol
 sn= 7  qrot/sn=   34914.1788 T*S(rot)=     7.09 kcal/mol T*S(tot)=    24.57 kcal/mol
 sn= 8  qrot/sn=   30549.9065 T*S(rot)=     7.01 kcal/mol T*S(tot)=    24.49 kcal/mol
 sn= 9  qrot/sn=   27155.4724 T*S(rot)=     6.94 kcal/mol T*S(tot)=    24.42 kcal/mol
 sn=10  qrot/sn=   24439.9252 T*S(rot)=     6.88 kcal/mol T*S(tot)=    24.35 kcal/mol
 sn=11  qrot/sn=   22218.1138 T*S(rot)=     6.82 kcal/mol T*S(tot)=    24.30 kcal/mol
 sn=12  qrot/sn=   20366.6043 T*S(rot)=     6.77 kcal/mol T*S(tot)=    24.25 kcal/mol

-------------------
GIBBS FREE ENTHALPY
-------------------

The Gibbs free enthalpy is G = H - T*S

Total enthalpy                    ...   -325.78978103 Eh
Total entropy correction          ...     -0.03994788 Eh    -25.07 kcal/mol
-----------------------------------------------------------------------
Final Gibbs free enthalpy         ...   -325.82972891 Eh

For completeness - the Gibbs free enthalpy minus the electronic energy
G-E(el)                           ...      0.12026516 Eh     75.47 kcal/mol

                             ****ORCA TERMINATED NORMALLY****
TOTAL RUN TIME: 0 days 0 hours 37 minutes 49 seconds 29 msec
