                         Program Version 3.0.3 - RELEASE   -
|  1> ! NORI PBE0 def2-TZVP UseSym TightOPT Freq TightSCF Grid3 FinalGrid5 XYZFile
|  2> % pal
|  3>     nprocs 8
|  4> end
|  5> %method
|  6>     SymThresh 5.0e-2
|  7> end
|  8> % geom
|  9>     MaxIter 10
| 10> end
| 11> % maxcore 2000
| 12> % output
| 13>     printlevel mini
| 14>     print[ P_Basis ] 0
| 15>     print[ P_SCFInfo ] 1
| 16>     print[ P_SCFIterInfo ] 1
| 17>     print[ P_OrbEn ] 0
| 18>     print[ P_Cartesian ] 0
| 19> end
| 20> % elprop
| 21>     Dipole false
| 22> end
| 23> *xyz 1 1
| 24>  N        2.3106338901     1.6012543466     0.0305608319
| 25>  C        2.8399483586     0.2123852446    -0.3105615234
| 26>  C        2.9345652827    -0.6124606255     0.9176979698
| 27>  C        4.1023294519    -0.9334847800     1.4739586682
| 28>  C        4.2501040953    -1.7523230332     2.6779831641
| 29>  C        5.4440782222    -2.5916881452     2.8571727671
| 30>  O        5.3180004506    -1.3600897140     3.5276243213
| 31>  H        2.2364661774     2.1996501376    -0.7953919407
| 32>  H        2.9298247904     2.0538416727     0.7070754650
| 33>  H        1.3856305361     1.5403531759     0.4611707583
| 34>  H        3.8102996749     0.3681097211    -0.7816194685
| 35>  H        2.1452222857    -0.1906029746    -1.0501844537
| 36>  H        2.0045645242    -0.9801004115     1.3455095134
| 37>  H        5.0351386010    -0.5796066954     1.0374466752
| 38>  H        3.3356956711    -2.0436832953     3.1899290615
| 39>  H        6.1998344548    -2.6281809004     2.0764928542
| 40>  H        5.3532635330    -3.4789937236     3.4771653364
| 41> *
| 42>
| 43>                          ****END OF INPUT****
 Total Charge           Charge          ....    1
 Multiplicity           Mult            ....    1
 Number of Electrons    NEL             ....   54
FINAL SINGLE POINT ENERGY      -325.960688487073

CARTESIAN COORDINATES (ANGSTROEM)
---------------------------------
  N      1.706294   -0.000385   -2.693555
  C      0.280361   -0.364227   -2.295090
  C     -0.113849    0.382087   -1.076226
  C     -0.243755   -0.208598    0.111601
  C     -0.639889    0.479309    1.341123
  C     -1.380151   -0.244531    2.385308
  O      0.000241    0.000270    2.514561
  H      2.013376   -0.501604   -3.530413
  H      2.348495   -0.218807   -1.928341
  H      1.785780    1.001817   -2.878023
  H      0.277770   -1.443019   -2.139825
  H     -0.334829   -0.127894   -3.165384
  H     -0.326108    1.443247   -1.186667
  H     -0.046856   -1.274345    0.220312
  H     -0.754134    1.559651    1.285415
  H     -1.661768   -1.282238    2.225807
  H     -2.025871    0.330996    3.042547

FINAL SINGLE POINT ENERGY      -325.960688935577
                    ***********************HURRAY********************
 Multiplicity           Mult            ....    1
 Number of Electrons    NEL             ....   54
 Basis Dimension        Dim             ....  277
FINAL SINGLE POINT ENERGY      -325.960689056438

VIBRATIONAL FREQUENCIES
-----------------------

   0:         0.00 cm**-1
   1:         0.00 cm**-1
   2:         0.00 cm**-1
   3:         0.00 cm**-1
   4:         0.00 cm**-1
   5:         0.00 cm**-1
   6:        58.36 cm**-1
   7:       128.32 cm**-1
   8:       141.50 cm**-1
   9:       167.67 cm**-1
  10:       234.68 cm**-1
  11:       338.36 cm**-1
  12:       423.33 cm**-1
  13:       462.10 cm**-1
  14:       509.18 cm**-1
  15:       829.61 cm**-1
  16:       841.83 cm**-1
  17:       869.95 cm**-1
  18:       886.90 cm**-1
  19:       902.06 cm**-1
  20:       952.13 cm**-1
  21:       993.49 cm**-1
  22:      1013.13 cm**-1
  23:      1076.86 cm**-1
  24:      1096.62 cm**-1
  25:      1143.49 cm**-1
  26:      1161.16 cm**-1
  27:      1169.35 cm**-1
  28:      1218.38 cm**-1
  29:      1281.19 cm**-1
  30:      1288.34 cm**-1
  31:      1327.40 cm**-1
  32:      1342.80 cm**-1
  33:      1393.41 cm**-1
  34:      1442.12 cm**-1
  35:      1488.38 cm**-1
  36:      1495.87 cm**-1
  37:      1523.24 cm**-1
  38:      1651.02 cm**-1
  39:      1661.19 cm**-1
  40:      1730.40 cm**-1
  41:      3095.73 cm**-1
  42:      3114.86 cm**-1
  43:      3146.53 cm**-1
  44:      3153.56 cm**-1
  45:      3157.99 cm**-1
  46:      3169.96 cm**-1
  47:      3212.56 cm**-1
  48:      3414.14 cm**-1
  49:      3503.67 cm**-1
  50:      3506.93 cm**-1

IR SPECTRUM
-----------

 Mode    freq (cm**-1)   T**2         TX         TY         TZ
-------------------------------------------------------------------
   6:        58.36   14.742227  (  0.713044  -1.686514   3.374828)
   7:       128.32   12.236657  ( -0.652878  -3.138259  -1.400619)
   8:       141.50    7.343305  (  0.206578  -1.084616  -2.474720)
   9:       167.67    0.570133  (  0.067545  -0.502422  -0.559592)
  10:       234.68    1.653212  ( -0.084093   0.682390   1.086501)
  11:       338.36    4.124101  ( -1.794231   0.423602   0.851703)
  12:       423.33    3.716259  ( -1.280711  -0.289571   1.411448)
  13:       462.10    1.652991  ( -0.018794  -0.777674  -1.023651)
  14:       509.18   10.339781  ( -2.059815   0.677238   2.374509)
  15:       829.61   28.962940  ( -0.438507   1.339254  -5.193944)
  16:       841.83   11.270277  (  2.455255  -1.535361  -1.698430)
  17:       869.95   41.156809  (  6.156114  -0.584118  -1.708179)
  18:       886.90    6.833789  (  0.614986   0.573678   2.475172)
  19:       902.06    3.905065  (  0.875038   1.596322  -0.768849)
  20:       952.13   52.432335  ( -0.533864   1.678995  -7.023411)
  21:       993.49   17.262294  ( -2.281639  -1.770224  -2.987093)
  22:      1013.13   42.416151  ( -6.063264  -0.801701  -2.238361)
  23:      1076.86   13.266384  (  3.467355   0.756401   0.819568)
  24:      1096.62    3.546973  ( -0.620270  -0.142615  -1.772540)
  25:      1143.49   18.540345  ( -1.359232   2.329069   3.356825)
  26:      1161.16    7.570028  (  1.665860  -1.852238  -1.167970)
  27:      1169.35    7.950858  ( -1.431876   0.824069   2.285060)
  28:      1218.38    3.235584  (  0.051361   0.647780  -1.677298)
  29:      1281.19   10.106474  (  2.586439  -0.555217  -1.763105)
  30:      1288.34   13.960445  ( -3.203874  -1.586026   1.086352)
  31:      1327.40   12.487729  ( -0.043519   0.024019   3.533448)
  32:      1342.80    6.230980  (  0.907141  -1.390967   1.863676)
  33:      1393.41   42.538105  (  3.109596   0.206868  -5.729374)
  34:      1442.12   13.029381  (  0.191670   0.065497   3.603936)
  35:      1488.38   11.253929  (  0.207060   2.619475   2.085523)
  36:      1495.87  157.253235  (-11.511156  -2.687429   4.186196)
  37:      1523.24    2.680084  ( -1.280833   1.003291   0.181540)
  38:      1651.02   48.765719  (  2.686674  -5.736376   2.939643)
  39:      1661.19   42.041472  ( -0.101811  -2.708405  -5.890301)
  40:      1730.40   72.721869  (  3.134480   0.880047  -7.881778)
  41:      3095.73    3.983460  (  0.445526  -0.715052  -1.809328)
  42:      3114.86   10.840122  (  2.728114   1.723436  -0.653671)
  43:      3146.53    2.893215  (  0.944964  -1.291640   0.576129)
  44:      3153.56    0.185322  (  0.099483  -0.298136   0.294176)
  45:      3157.99    3.642154  (  0.775229  -1.651396  -0.560414)
  46:      3169.96    1.248580  ( -0.141879   1.007443   0.462070)
  47:      3212.56    4.993029  (  0.363547  -2.117047  -0.615609)
  48:      3414.14   41.129404  (  5.728181   0.887388  -2.744065)
  49:      3503.67   88.596311  (  2.933954  -1.663535   8.787541)
  50:      3506.93   90.896978  (  0.938440  -9.383397  -1.402913)

--------------------------
THERMOCHEMISTRY AT 298.15K
--------------------------

Temperature         ... 298.15 K
Pressure            ... 1.00 atm
Total Mass          ... 100.14 AMU

Throughout the following assumptions are being made:
  (1) The electronic state is orbitally nondegenerate
  (2) There are no thermally accessible electronically excited states
  (3) Hindered rotations indicated by low frequency modes) are not
      treated as such but are treated as vibrations and this may
      case some error
  (4) All equations used are the standard statistical mechanics
      equations for an ideal gas
  (5) All vibrations are strinctly harmonic

------------
INNER ENERGY
------------

The inner energy is: U= E(el) + E(ZPE) + E(vib) + E(rot) + E(trans)
    E(el)   - is the total energy from the electronic structure calculation
              = E(kin-el) + E(nuc-el) + E(el-el) + E(nuc-nuc)
    E(ZPE)  - the the zero temperature vibrational energy from the frequency calculation
    E(vib)  - the the finite temperature correction to E(ZPE) due to population
              of excietd vibrational states
    E(rot)  - is the rotational thermal energy
    E(trans)- is the translational thermal energy

Summary of contributions to the inner energy U:
Electronic energy                ...   -325.96068906 Eh
Zero point energy                ...      0.15199881 Eh      95.38 kcal/mol
Thermal vibrational correction   ...      0.00504375 Eh       3.16 kcal/mol
Thermal rotational correction    ...      0.00141627 Eh       0.89 kcal/mol
Thermal translational correction ...      0.00141627 Eh       0.89 kcal/mol
-----------------------------------------------------------------------
Total thermal energy                   -325.80081395 Eh

Summary of corrections to the electronic energy:
(perhaps to be used in another calculation)
Total thermal correction                  0.00787630 Eh       4.94 kcal/mol
Non-thermal (ZPE) correction              0.15199881 Eh      95.38 kcal/mol
-----------------------------------------------------------------------
Total correction                          0.15987511 Eh     100.32 kcal/mol

--------
ENTHALPY
--------

The enthalpy is H = U + kB*T
                kB is Boltzmann's constant
Total free energy                 ...   -325.80081395 Eh
Thermal Enthalpy correction       ...      0.00094421 Eh       0.59 kcal/mol
-----------------------------------------------------------------------
Total Enthalpy                    ...   -325.79986974 Eh

-------
ENTROPY
-------

The entropy contributions are T*S = T*(S(el)+S(vib)+S(rot)+S(trans)
     S(el)   - electronic entropy
     S(vib)  - vibrational entropy
     S(rot)  - rotational entropy
     S(trans)- translational entropy
The entropies will be listed as mutliplied by the temperature to get
units of energy

Electronic entropy                ...      0.00000000 Eh      0.00 kcal/mol
Vibrational entropy               ...      0.00934910 Eh      5.87 kcal/mol
Rotational entropy                ...      0.01224104 Eh      7.68 kcal/mol
Translational entropy             ...      0.01887324 Eh     11.84 kcal/mol
-----------------------------------------------------------------------
Final entropy term                ...      0.04046338 Eh     25.39 kcal/mol

CAUTION: The rotational entropy is not quite correctly treated here
         because it includes a symmetry number that is not yet correctly
         implemented in ORCA!
For a nonlinear molecule the correct rotational entropy is:
    S(rot) = R*(ln(qrot/sn)+1.5)
    R    = 8.31441 J/mol/K = 1.987191683e-3 kcal/mol/K
    qrot = 285881.2373275
    sn is the rotational symmetry number. We have assumed 3 here
       if it is different for your molecule then you should correct
       the printed rotational entropy by manually evaluating the equation
       as given above

For convenience we print out the resulting values for sn=1 - 12:
 sn= 1  qrot/sn=  285881.2373 T*S(rot)=     8.33 kcal/mol T*S(tot)=    26.04 kcal/mol
 sn= 2  qrot/sn=  142940.6187 T*S(rot)=     7.92 kcal/mol T*S(tot)=    25.63 kcal/mol
 sn= 3  qrot/sn=   95293.7458 T*S(rot)=     7.68 kcal/mol T*S(tot)=    25.39 kcal/mol
 sn= 4  qrot/sn=   71470.3093 T*S(rot)=     7.51 kcal/mol T*S(tot)=    25.22 kcal/mol
 sn= 5  qrot/sn=   57176.2475 T*S(rot)=     7.38 kcal/mol T*S(tot)=    25.09 kcal/mol
 sn= 6  qrot/sn=   47646.8729 T*S(rot)=     7.27 kcal/mol T*S(tot)=    24.98 kcal/mol
 sn= 7  qrot/sn=   40840.1768 T*S(rot)=     7.18 kcal/mol T*S(tot)=    24.89 kcal/mol
 sn= 8  qrot/sn=   35735.1547 T*S(rot)=     7.10 kcal/mol T*S(tot)=    24.81 kcal/mol
 sn= 9  qrot/sn=   31764.5819 T*S(rot)=     7.03 kcal/mol T*S(tot)=    24.74 kcal/mol
 sn=10  qrot/sn=   28588.1237 T*S(rot)=     6.97 kcal/mol T*S(tot)=    24.68 kcal/mol
 sn=11  qrot/sn=   25989.2034 T*S(rot)=     6.91 kcal/mol T*S(tot)=    24.62 kcal/mol
 sn=12  qrot/sn=   23823.4364 T*S(rot)=     6.86 kcal/mol T*S(tot)=    24.57 kcal/mol

-------------------
GIBBS FREE ENTHALPY
-------------------

The Gibbs free enthalpy is G = H - T*S

Total enthalpy                    ...   -325.79986974 Eh
Total entropy correction          ...     -0.04046338 Eh    -25.39 kcal/mol
-----------------------------------------------------------------------
Final Gibbs free enthalpy         ...   -325.84033312 Eh

For completeness - the Gibbs free enthalpy minus the electronic energy
G-E(el)                           ...      0.12035594 Eh     75.52 kcal/mol

                             ****ORCA TERMINATED NORMALLY****
TOTAL RUN TIME: 0 days 0 hours 31 minutes 25 seconds 794 msec
