                         Program Version 3.0.3 - RELEASE   -
|  1> ! NORI PBE0 def2-TZVP UseSym TightOPT Freq TightSCF Grid3 FinalGrid5 XYZFile
|  2> % pal
|  3>     nprocs 8
|  4> end
|  5> %method
|  6>     SymThresh 5.0e-2
|  7> end
|  8> % geom
|  9>     MaxIter 10
| 10> end
| 11> % maxcore 2000
| 12> % output
| 13>     printlevel mini
| 14>     print[ P_Basis ] 0
| 15>     print[ P_SCFInfo ] 1
| 16>     print[ P_SCFIterInfo ] 1
| 17>     print[ P_OrbEn ] 0
| 18>     print[ P_Cartesian ] 0
| 19> end
| 20> % elprop
| 21>     Dipole false
| 22> end
| 23> *xyz 1 1
| 24>  N        1.5728899990     0.4669224450     0.0573899321
| 25>  C        3.0454810516     0.2523253292     0.2130378748
| 26>  C        3.3644501454    -0.8491934472     1.1743561124
| 27>  C        2.4774293598    -1.4848431012     1.9275322716
| 28>  C        4.8263213802    -1.1511426108     1.1985877170
| 29>  C        5.3538113356    -2.4449188000     0.7747356313
| 30>  O        5.4117197026    -1.3121759533    -0.0820668880
| 31>  H        1.3728568419     1.1873366917    -0.6389940293
| 32>  H        1.1465002139     0.7537761632     0.9414870455
| 33>  H        1.1160099158    -0.4000581910    -0.2376070134
| 34>  H        3.4770600967     1.2060114861     0.5288363849
| 35>  H        3.4482344001     0.0130614427    -0.7738705346
| 36>  H        1.4148570831    -1.2594518373     1.9492747203
| 37>  H        2.7893802427    -2.2839428837     2.5893930890
| 38>  H        5.4141837463    -0.5503683364     1.8929976203
| 39>  H        6.3114114387    -2.7763936759     1.1634803631
| 40>  H        4.6638030467    -3.2250347211     0.4676497031
| 41> *
| 42>
| 43>                          ****END OF INPUT****
 Total Charge           Charge          ....    1
 Multiplicity           Mult            ....    1
 Number of Electrons    NEL             ....   54
FINAL SINGLE POINT ENERGY      -325.953798140769

CARTESIAN COORDINATES (ANGSTROEM)
---------------------------------
  N      1.770708    0.000140   -1.902372
  C      1.177469    0.470077   -0.611552
  C     -0.271107    0.116125   -0.484903
  C     -1.011374   -0.422804   -1.443898
  C     -0.803670    0.454719    0.868052
  C     -1.291456   -0.572569    1.783782
  O     -0.000627    0.000699    1.943957
  H      2.770249    0.206150   -1.949812
  H      1.316367    0.447792   -2.701556
  H      1.646135   -1.010444   -2.004324
  H      1.338598    1.550180   -0.558990
  H      1.745669    0.007084    0.198193
  H     -0.653518   -0.647443   -2.444711
  H     -2.052552   -0.662639   -1.265913
  H     -1.176874    1.472906    0.979829
  H     -2.013713   -0.298822    2.546499
  H     -1.302520   -1.609615    1.461906

FINAL SINGLE POINT ENERGY      -325.953798905878
                    ***********************HURRAY********************
 Multiplicity           Mult            ....    1
 Number of Electrons    NEL             ....   54
 Basis Dimension        Dim             ....  277
FINAL SINGLE POINT ENERGY      -325.953799173510

VIBRATIONAL FREQUENCIES
-----------------------

   0:         0.00 cm**-1
   1:         0.00 cm**-1
   2:         0.00 cm**-1
   3:         0.00 cm**-1
   4:         0.00 cm**-1
   5:         0.00 cm**-1
   6:        36.71 cm**-1
   7:        68.69 cm**-1
   8:       189.90 cm**-1
   9:       218.18 cm**-1
  10:       255.71 cm**-1
  11:       302.13 cm**-1
  12:       452.92 cm**-1
  13:       489.19 cm**-1
  14:       566.15 cm**-1
  15:       710.57 cm**-1
  16:       790.06 cm**-1
  17:       873.14 cm**-1
  18:       882.24 cm**-1
  19:       914.34 cm**-1
  20:       962.59 cm**-1
  21:       969.89 cm**-1
  22:       994.80 cm**-1
  23:      1042.02 cm**-1
  24:      1085.67 cm**-1
  25:      1105.99 cm**-1
  26:      1114.57 cm**-1
  27:      1164.95 cm**-1
  28:      1175.99 cm**-1
  29:      1246.03 cm**-1
  30:      1295.52 cm**-1
  31:      1337.50 cm**-1
  32:      1412.32 cm**-1
  33:      1426.63 cm**-1
  34:      1466.69 cm**-1
  35:      1485.91 cm**-1
  36:      1506.68 cm**-1
  37:      1527.58 cm**-1
  38:      1647.75 cm**-1
  39:      1664.82 cm**-1
  40:      1740.14 cm**-1
  41:      3082.53 cm**-1
  42:      3120.29 cm**-1
  43:      3126.54 cm**-1
  44:      3134.72 cm**-1
  45:      3153.67 cm**-1
  46:      3223.75 cm**-1
  47:      3243.71 cm**-1
  48:      3418.83 cm**-1
  49:      3493.87 cm**-1
  50:      3510.70 cm**-1

IR SPECTRUM
-----------

 Mode    freq (cm**-1)   T**2         TX         TY         TZ
-------------------------------------------------------------------
   6:        36.71    5.789551  (  0.031720  -2.163061   1.053429)
   7:        68.69    7.959110  (  0.039490  -2.237142   1.718356)
   8:       189.90   13.123557  ( -0.277600  -1.512842  -3.279909)
   9:       218.18    0.486474  ( -0.521657   0.093111   0.453518)
  10:       255.71    4.423080  ( -0.667075  -0.946596   1.755576)
  11:       302.13   22.879131  ( -4.087410  -0.355495   2.458828)
  12:       452.92    9.570219  (  2.636006  -1.576981   0.367177)
  13:       489.19    3.076966  (  0.904818  -0.443222   1.435906)
  14:       566.15    7.675265  ( -0.035525   2.766701  -0.139177)
  15:       710.57    1.018120  (  0.119993   0.532671   0.848518)
  16:       790.06    1.904567  (  0.803024  -1.089192  -0.270891)
  17:       873.14    5.773722  ( -1.254517   1.699356  -1.145469)
  18:       882.24   28.471040  (  5.044057   1.729445   0.193764)
  19:       914.34   21.974152  ( -1.084226   2.729005  -3.653921)
  20:       962.59   38.409440  (  1.713240  -5.690497   1.758548)
  21:       969.89   21.008561  (  4.125230  -0.191079   1.988600)
  22:       994.80    9.148346  (  0.895206  -0.252773  -2.878030)
  23:      1042.02    7.580552  ( -0.507944  -0.543882   2.650799)
  24:      1085.67   14.609485  (  3.671841   0.901706  -0.560349)
  25:      1105.99   10.964308  (  3.145000   0.841052   0.604906)
  26:      1114.57    7.803552  ( -1.503341   2.337353  -0.283370)
  27:      1164.95    3.845541  ( -0.883401   1.408050   1.040452)
  28:      1175.99    0.305480  (  0.025900  -0.098188   0.543294)
  29:      1246.03    2.067159  (  0.875021  -1.140773   0.011636)
  30:      1295.52   10.801238  ( -2.916045  -0.435939   1.451852)
  31:      1337.50    5.067091  ( -0.406475  -1.697030   1.421956)
  32:      1412.32    4.079398  ( -1.850806  -0.377304  -0.715233)
  33:      1426.63    6.954047  (  0.573105   0.829264   2.436785)
  34:      1466.69   16.517729  (  3.422064   1.507318   1.592230)
  35:      1485.91   26.074633  ( -4.584408  -1.600345  -1.580107)
  36:      1506.68  155.714866  (  5.461517  -3.836010 -10.543800)
  37:      1527.58    5.055749  (  1.771501  -0.713524   1.186768)
  38:      1647.75   57.483968  (  2.360466  -6.474387   3.161406)
  39:      1664.82   39.272353  ( -5.776299  -2.232599   0.960324)
  40:      1740.14    6.383063  (  1.296078   0.505086   2.109060)
  41:      3082.53    0.532864  ( -0.441639  -0.316914   0.487221)
  42:      3120.29    4.607885  ( -0.409341   2.052574  -0.476725)
  43:      3126.54    6.876964  ( -2.254616  -1.325320   0.192861)
  44:      3134.72    2.551903  ( -0.208423   0.735976  -1.402428)
  45:      3153.67   12.349496  ( -2.463706  -0.123465   2.502880)
  46:      3223.75    3.556712  (  0.757816  -1.313634  -1.121068)
  47:      3243.71    3.099415  (  0.368055   0.492340   1.649713)
  48:      3418.83   39.533157  ( -3.123273   2.013808   5.071775)
  49:      3493.87   92.463710  (  0.425294  -8.694897   4.084312)
  50:      3510.70  112.189812  (-10.177088  -2.092391  -2.058785)

--------------------------
THERMOCHEMISTRY AT 298.15K
--------------------------

Temperature         ... 298.15 K
Pressure            ... 1.00 atm
Total Mass          ... 100.14 AMU

Throughout the following assumptions are being made:
  (1) The electronic state is orbitally nondegenerate
  (2) There are no thermally accessible electronically excited states
  (3) Hindered rotations indicated by low frequency modes) are not
      treated as such but are treated as vibrations and this may
      case some error
  (4) All equations used are the standard statistical mechanics
      equations for an ideal gas
  (5) All vibrations are strinctly harmonic

------------
INNER ENERGY
------------

The inner energy is: U= E(el) + E(ZPE) + E(vib) + E(rot) + E(trans)
    E(el)   - is the total energy from the electronic structure calculation
              = E(kin-el) + E(nuc-el) + E(el-el) + E(nuc-nuc)
    E(ZPE)  - the the zero temperature vibrational energy from the frequency calculation
    E(vib)  - the the finite temperature correction to E(ZPE) due to population
              of excietd vibrational states
    E(rot)  - is the rotational thermal energy
    E(trans)- is the translational thermal energy

Summary of contributions to the inner energy U:
Electronic energy                ...   -325.95379917 Eh
Zero point energy                ...      0.15180024 Eh      95.26 kcal/mol
Thermal vibrational correction   ...      0.00503710 Eh       3.16 kcal/mol
Thermal rotational correction    ...      0.00141627 Eh       0.89 kcal/mol
Thermal translational correction ...      0.00141627 Eh       0.89 kcal/mol
-----------------------------------------------------------------------
Total thermal energy                   -325.79412929 Eh

Summary of corrections to the electronic energy:
(perhaps to be used in another calculation)
Total thermal correction                  0.00786965 Eh       4.94 kcal/mol
Non-thermal (ZPE) correction              0.15180024 Eh      95.26 kcal/mol
-----------------------------------------------------------------------
Total correction                          0.15966989 Eh     100.19 kcal/mol

--------
ENTHALPY
--------

The enthalpy is H = U + kB*T
                kB is Boltzmann's constant
Total free energy                 ...   -325.79412929 Eh
Thermal Enthalpy correction       ...      0.00094421 Eh       0.59 kcal/mol
-----------------------------------------------------------------------
Total Enthalpy                    ...   -325.79318508 Eh

-------
ENTROPY
-------

The entropy contributions are T*S = T*(S(el)+S(vib)+S(rot)+S(trans)
     S(el)   - electronic entropy
     S(vib)  - vibrational entropy
     S(rot)  - rotational entropy
     S(trans)- translational entropy
The entropies will be listed as mutliplied by the temperature to get
units of energy

Electronic entropy                ...      0.00000000 Eh      0.00 kcal/mol
Vibrational entropy               ...      0.00983562 Eh      6.17 kcal/mol
Rotational entropy                ...      0.01209061 Eh      7.59 kcal/mol
Translational entropy             ...      0.01887324 Eh     11.84 kcal/mol
-----------------------------------------------------------------------
Final entropy term                ...      0.04079947 Eh     25.60 kcal/mol

CAUTION: The rotational entropy is not quite correctly treated here
         because it includes a symmetry number that is not yet correctly
         implemented in ORCA!
For a nonlinear molecule the correct rotational entropy is:
    S(rot) = R*(ln(qrot/sn)+1.5)
    R    = 8.31441 J/mol/K = 1.987191683e-3 kcal/mol/K
    qrot = 243776.8189462
    sn is the rotational symmetry number. We have assumed 3 here
       if it is different for your molecule then you should correct
       the printed rotational entropy by manually evaluating the equation
       as given above

For convenience we print out the resulting values for sn=1 - 12:
 sn= 1  qrot/sn=  243776.8189 T*S(rot)=     8.24 kcal/mol T*S(tot)=    26.25 kcal/mol
 sn= 2  qrot/sn=  121888.4095 T*S(rot)=     7.83 kcal/mol T*S(tot)=    25.84 kcal/mol
 sn= 3  qrot/sn=   81258.9396 T*S(rot)=     7.59 kcal/mol T*S(tot)=    25.60 kcal/mol
 sn= 4  qrot/sn=   60944.2047 T*S(rot)=     7.42 kcal/mol T*S(tot)=    25.43 kcal/mol
 sn= 5  qrot/sn=   48755.3638 T*S(rot)=     7.28 kcal/mol T*S(tot)=    25.30 kcal/mol
 sn= 6  qrot/sn=   40629.4698 T*S(rot)=     7.18 kcal/mol T*S(tot)=    25.19 kcal/mol
 sn= 7  qrot/sn=   34825.2598 T*S(rot)=     7.08 kcal/mol T*S(tot)=    25.10 kcal/mol
 sn= 8  qrot/sn=   30472.1024 T*S(rot)=     7.01 kcal/mol T*S(tot)=    25.02 kcal/mol
 sn= 9  qrot/sn=   27086.3132 T*S(rot)=     6.94 kcal/mol T*S(tot)=    24.95 kcal/mol
 sn=10  qrot/sn=   24377.6819 T*S(rot)=     6.87 kcal/mol T*S(tot)=    24.89 kcal/mol
 sn=11  qrot/sn=   22161.5290 T*S(rot)=     6.82 kcal/mol T*S(tot)=    24.83 kcal/mol
 sn=12  qrot/sn=   20314.7349 T*S(rot)=     6.77 kcal/mol T*S(tot)=    24.78 kcal/mol

-------------------
GIBBS FREE ENTHALPY
-------------------

The Gibbs free enthalpy is G = H - T*S

Total enthalpy                    ...   -325.79318508 Eh
Total entropy correction          ...     -0.04079947 Eh    -25.60 kcal/mol
-----------------------------------------------------------------------
Final Gibbs free enthalpy         ...   -325.83398454 Eh

For completeness - the Gibbs free enthalpy minus the electronic energy
G-E(el)                           ...      0.11981463 Eh     75.18 kcal/mol

                             ****ORCA TERMINATED NORMALLY****
TOTAL RUN TIME: 0 days 0 hours 31 minutes 34 seconds 409 msec
