                         Program Version 3.0.3 - RELEASE   -
|  1> ! NORI PBE0 def2-TZVP UseSym TightOPT Freq TightSCF Grid3 FinalGrid5 XYZFile
|  2> % pal
|  3>     nprocs 8
|  4> end
|  5> %method
|  6>     SymThresh 5.0e-2
|  7> end
|  8> % geom
|  9>     MaxIter 10
| 10> end
| 11> % maxcore 2000
| 12> % output
| 13>     printlevel mini
| 14>     print[ P_Basis ] 0
| 15>     print[ P_SCFInfo ] 1
| 16>     print[ P_SCFIterInfo ] 1
| 17>     print[ P_OrbEn ] 0
| 18>     print[ P_Cartesian ] 0
| 19> end
| 20> % elprop
| 21>     Dipole false
| 22> end
| 23> *xyz 1 1
| 24>  N        0.9034659040    -0.2160767433     0.1428865615
| 25>  C        2.3924638225     0.0831275580     0.1097951109
| 26>  C        2.8088062821     0.3733122252    -1.2353490250
| 27>  C        3.1918631189     0.6472552367    -2.3428525055
| 28>  C        3.6990544896     0.9762274152    -3.6455206370
| 29>  C        2.8029206377     1.4423539958    -4.7150101047
| 30>  O        3.6330849452     2.3398465985    -4.0168378381
| 31>  H        0.5770231208    -0.4274066174     1.0889571768
| 32>  H        0.6900974797    -1.0130551042    -0.4614074213
| 33>  H        0.3760675191     0.5853801820    -0.2116698236
| 34>  H        2.5530851220     0.9268605355     0.7855033198
| 35>  H        2.8957680740    -0.7945323077     0.5218196626
| 36>  H        4.6146051074     0.4574753817    -3.9206489485
| 37>  H        3.0871361612     1.2333719738    -5.7424204035
| 38>  H        1.7386382158     1.5353596704    -4.5164351244
| 39> *
| 40>
| 41>                          ****END OF INPUT****
 Total Charge           Charge          ....    1
 Multiplicity           Mult            ....    1
 Number of Electrons    NEL             ....   52
FINAL SINGLE POINT ENERGY      -324.701261793449

CARTESIAN COORDINATES (ANGSTROEM)
---------------------------------
  N      1.090072   -0.000370   -2.946257
  C      0.272753    1.042083   -2.202297
  C     -0.132077    0.531223   -0.920845
  C     -0.468681    0.150204    0.169930
  C     -0.898725   -0.259367    1.477416
  C     -0.216639   -1.346636    2.196619
  O     -0.002973    0.001619    2.541218
  H      1.392758    0.335088   -3.864033
  H      0.540750   -0.853328   -3.075579
  H      1.919002   -0.250959   -2.402017
  H      0.907248    1.927455   -2.115009
  H     -0.578709    1.284826   -2.842161
  H     -1.948772   -0.071037    1.689755
  H     -0.798452   -1.931091    2.903575
  H      0.623952   -1.850619    1.728229

FINAL SINGLE POINT ENERGY      -324.701262369218
                    ***********************HURRAY********************
 Multiplicity           Mult            ....    1
 Number of Electrons    NEL             ....   52
 Basis Dimension        Dim             ....  265
FINAL SINGLE POINT ENERGY      -324.701262990277

VIBRATIONAL FREQUENCIES
-----------------------

   0:         0.00 cm**-1
   1:         0.00 cm**-1
   2:         0.00 cm**-1
   3:         0.00 cm**-1
   4:         0.00 cm**-1
   5:         0.00 cm**-1
   6:        25.57 cm**-1
   7:        92.43 cm**-1
   8:       121.96 cm**-1
   9:       219.52 cm**-1
  10:       221.55 cm**-1
  11:       324.22 cm**-1
  12:       422.27 cm**-1
  13:       556.68 cm**-1
  14:       573.05 cm**-1
  15:       719.33 cm**-1
  16:       856.45 cm**-1
  17:       863.92 cm**-1
  18:       902.80 cm**-1
  19:       926.78 cm**-1
  20:      1000.19 cm**-1
  21:      1075.60 cm**-1
  22:      1092.33 cm**-1
  23:      1103.16 cm**-1
  24:      1157.09 cm**-1
  25:      1167.40 cm**-1
  26:      1212.63 cm**-1
  27:      1287.96 cm**-1
  28:      1325.82 cm**-1
  29:      1398.51 cm**-1
  30:      1421.58 cm**-1
  31:      1476.26 cm**-1
  32:      1502.61 cm**-1
  33:      1520.60 cm**-1
  34:      1646.49 cm**-1
  35:      1661.14 cm**-1
  36:      2362.51 cm**-1
  37:      3082.02 cm**-1
  38:      3120.40 cm**-1
  39:      3132.40 cm**-1
  40:      3151.68 cm**-1
  41:      3219.51 cm**-1
  42:      3412.12 cm**-1
  43:      3500.64 cm**-1
  44:      3503.39 cm**-1

IR SPECTRUM
-----------

 Mode    freq (cm**-1)   T**2         TX         TY         TZ
-------------------------------------------------------------------
   7:        92.43   14.195467  (  0.986753  -3.008648   2.042014)
   8:       121.96    8.112084  (  0.822498   1.308857   2.392170)
   9:       219.52    5.415760  (  0.943238   0.636049  -2.030149)
  10:       221.55    2.031781  ( -0.154043  -0.839221   1.141823)
  11:       324.22   10.622867  (  3.138049   0.865034  -0.165019)
  12:       422.27   17.424305  ( -2.310501   1.981301   2.856631)
  13:       556.68    4.262653  (  0.102647  -1.196153   1.679683)
  14:       573.05    8.645833  (  0.796347  -0.754542  -2.728064)
  15:       719.33    7.668281  ( -0.961391   1.201550   2.302235)
  16:       856.45    8.847376  (  2.251441   0.970781   1.684035)
  17:       863.92   30.656500  ( -3.151008  -1.406026   4.330213)
  18:       902.80   10.441023  ( -2.816356   1.103481  -1.136438)
  19:       926.78   66.242122  ( -1.377540  -4.215884  -6.824282)
  20:      1000.19   14.024777  (  0.839058  -0.230321   3.642487)
  21:      1075.60    1.772292  (  0.813642  -1.007260  -0.309364)
  22:      1092.33   10.873909  ( -0.206116   2.804433  -1.722377)
  23:      1103.16    8.281371  (  2.149715  -0.247944   1.897002)
  24:      1157.09    6.272004  ( -1.684365  -1.140443   1.460927)
  25:      1167.40    0.837111  ( -0.157373  -0.752014   0.496810)
  26:      1212.63   20.225335  ( -2.606291  -2.649346   2.532498)
  27:      1287.96   16.136729  (  1.828812   3.344716  -1.266905)
  28:      1325.82    8.175250  ( -2.397277  -1.372130  -0.738628)
  29:      1398.51   48.686643  (  2.066081   3.174486  -5.860084)
  30:      1421.58   61.647404  ( -1.920553   0.163772   7.611311)
  31:      1476.26    8.989447  ( -0.004654   2.363957  -1.844216)
  32:      1502.61  150.158945  (  6.527356  -7.453523  -7.210933)
  33:      1520.60    1.424189  ( -0.988379  -0.661958  -0.095429)
  34:      1646.49   52.481690  ( -6.022933  -2.404571  -3.228622)
  35:      1661.14   37.007649  (  1.156249   3.421385  -4.895392)
  36:      2362.51  142.339990  ( -2.653965  -3.179842  11.188613)
  37:      3082.02    2.787606  (  0.634103  -0.067465  -1.543039)
  38:      3120.40   10.444453  (  0.685104  -3.157051  -0.090084)
  39:      3132.40    2.175131  ( -1.222910  -0.464078  -0.681363)
  40:      3151.68    1.208941  (  0.289542   0.800510   0.695910)
  41:      3219.51    4.385596  (  1.768129  -0.250929  -1.093778)
  42:      3412.12   46.138992  (  3.575581  -3.544291  -4.559848)
  43:      3500.64  107.728901  ( -8.722734  -3.685665  -4.249550)
  44:      3503.39   90.075073  (  0.812864   6.496597  -6.870848)

--------------------------
THERMOCHEMISTRY AT 298.15K
--------------------------

Temperature         ... 298.15 K
Pressure            ... 1.00 atm
Total Mass          ... 98.12 AMU

Throughout the following assumptions are being made:
  (1) The electronic state is orbitally nondegenerate
  (2) There are no thermally accessible electronically excited states
  (3) Hindered rotations indicated by low frequency modes) are not
      treated as such but are treated as vibrations and this may
      case some error
  (4) All equations used are the standard statistical mechanics
      equations for an ideal gas
  (5) All vibrations are strinctly harmonic

------------
INNER ENERGY
------------

The inner energy is: U= E(el) + E(ZPE) + E(vib) + E(rot) + E(trans)
    E(el)   - is the total energy from the electronic structure calculation
              = E(kin-el) + E(nuc-el) + E(el-el) + E(nuc-nuc)
    E(ZPE)  - the the zero temperature vibrational energy from the frequency calculation
    E(vib)  - the the finite temperature correction to E(ZPE) due to population
              of excietd vibrational states
    E(rot)  - is the rotational thermal energy
    E(trans)- is the translational thermal energy

Summary of contributions to the inner energy U:
Electronic energy                ...   -324.70126299 Eh
Zero point energy                ...      0.12834060 Eh      80.53 kcal/mol
Thermal vibrational correction   ...      0.00409975 Eh       2.57 kcal/mol
Thermal rotational correction    ...      0.00141627 Eh       0.89 kcal/mol
Thermal translational correction ...      0.00141627 Eh       0.89 kcal/mol
-----------------------------------------------------------------------
Total thermal energy                   -324.56599010 Eh

Summary of corrections to the electronic energy:
(perhaps to be used in another calculation)
Total thermal correction                  0.00693229 Eh       4.35 kcal/mol
Non-thermal (ZPE) correction              0.12834060 Eh      80.53 kcal/mol
-----------------------------------------------------------------------
Total correction                          0.13527289 Eh      84.88 kcal/mol

--------
ENTHALPY
--------

The enthalpy is H = U + kB*T
                kB is Boltzmann's constant
Total free energy                 ...   -324.56599010 Eh
Thermal Enthalpy correction       ...      0.00094421 Eh       0.59 kcal/mol
-----------------------------------------------------------------------
Total Enthalpy                    ...   -324.56504589 Eh

-------
ENTROPY
-------

The entropy contributions are T*S = T*(S(el)+S(vib)+S(rot)+S(trans)
     S(el)   - electronic entropy
     S(vib)  - vibrational entropy
     S(rot)  - rotational entropy
     S(trans)- translational entropy
The entropies will be listed as mutliplied by the temperature to get
units of energy

Electronic entropy                ...      0.00000000 Eh      0.00 kcal/mol
Vibrational entropy               ...      0.00723308 Eh      4.54 kcal/mol
Rotational entropy                ...      0.01225598 Eh      7.69 kcal/mol
Translational entropy             ...      0.01884443 Eh     11.83 kcal/mol
-----------------------------------------------------------------------
Final entropy term                ...      0.03833350 Eh     24.05 kcal/mol

CAUTION: The rotational entropy is not quite correctly treated here
         because it includes a symmetry number that is not yet correctly
         implemented in ORCA!
For a nonlinear molecule the correct rotational entropy is:
    S(rot) = R*(ln(qrot/sn)+1.5)
    R    = 8.31441 J/mol/K = 1.987191683e-3 kcal/mol/K
    qrot = 290441.1194997
    sn is the rotational symmetry number. We have assumed 3 here
       if it is different for your molecule then you should correct
       the printed rotational entropy by manually evaluating the equation
       as given above

For convenience we print out the resulting values for sn=1 - 12:
 sn= 1  qrot/sn=  290441.1195 T*S(rot)=     8.34 kcal/mol T*S(tot)=    24.71 kcal/mol
 sn= 2  qrot/sn=  145220.5597 T*S(rot)=     7.93 kcal/mol T*S(tot)=    24.29 kcal/mol
 sn= 3  qrot/sn=   96813.7065 T*S(rot)=     7.69 kcal/mol T*S(tot)=    24.05 kcal/mol
 sn= 4  qrot/sn=   72610.2799 T*S(rot)=     7.52 kcal/mol T*S(tot)=    23.88 kcal/mol
 sn= 5  qrot/sn=   58088.2239 T*S(rot)=     7.39 kcal/mol T*S(tot)=    23.75 kcal/mol
 sn= 6  qrot/sn=   48406.8532 T*S(rot)=     7.28 kcal/mol T*S(tot)=    23.64 kcal/mol
 sn= 7  qrot/sn=   41491.5885 T*S(rot)=     7.19 kcal/mol T*S(tot)=    23.55 kcal/mol
 sn= 8  qrot/sn=   36305.1399 T*S(rot)=     7.11 kcal/mol T*S(tot)=    23.47 kcal/mol
 sn= 9  qrot/sn=   32271.2355 T*S(rot)=     7.04 kcal/mol T*S(tot)=    23.40 kcal/mol
 sn=10  qrot/sn=   29044.1119 T*S(rot)=     6.98 kcal/mol T*S(tot)=    23.34 kcal/mol
 sn=11  qrot/sn=   26403.7381 T*S(rot)=     6.92 kcal/mol T*S(tot)=    23.28 kcal/mol
 sn=12  qrot/sn=   24203.4266 T*S(rot)=     6.87 kcal/mol T*S(tot)=    23.23 kcal/mol

-------------------
GIBBS FREE ENTHALPY
-------------------

The Gibbs free enthalpy is G = H - T*S

Total enthalpy                    ...   -324.56504589 Eh
Total entropy correction          ...     -0.03833350 Eh    -24.05 kcal/mol
-----------------------------------------------------------------------
Final Gibbs free enthalpy         ...   -324.60337939 Eh

For completeness - the Gibbs free enthalpy minus the electronic energy
G-E(el)                           ...      0.09788360 Eh     61.42 kcal/mol

                             ****ORCA TERMINATED NORMALLY****
TOTAL RUN TIME: 0 days 0 hours 25 minutes 26 seconds 45 msec
