                         Program Version 3.0.3 - RELEASE   -
|  1> ! NORI PBE0 def2-TZVP UseSym TightOPT Freq TightSCF Grid3 FinalGrid5 XYZFile
|  2> % pal
|  3>     nprocs 8
|  4> end
|  5> %method
|  6>     SymThresh 5.0e-2
|  7> end
|  8> % geom
|  9>     MaxIter 10
| 10> end
| 11> % maxcore 2000
| 12> % output
| 13>     printlevel mini
| 14>     print[ P_Basis ] 0
| 15>     print[ P_SCFInfo ] 1
| 16>     print[ P_SCFIterInfo ] 1
| 17>     print[ P_OrbEn ] 0
| 18>     print[ P_Cartesian ] 0
| 19> end
| 20> % elprop
| 21>     Dipole false
| 22> end
| 23> *xyz 1 1
| 24>  N        0.4970243671     0.4896621480     0.7205783563
| 25>  C        1.9784975438     0.2314485845     0.8511936270
| 26>  C        2.5519613155     0.9843204974     2.0284666186
| 27>  C        4.0450953451     0.7176679083     2.1814616948
| 28>  C        4.6419157411     1.4429448380     3.3773137820
| 29>  C        6.1224980868     1.1400167080     3.5568397206
| 30>  O        6.6437681912     1.6964270233     4.7352627580
| 31>  H        0.0868630803    -0.0158155628    -0.0672960897
| 32>  H        0.3128648852     1.4860411252     0.5844374659
| 33>  H        0.0034005365     0.2030109215     1.5689484035
| 34>  H        2.4274963567     0.5377155581    -0.0949298360
| 35>  H        2.0927770509    -0.8484423984     0.9570942723
| 36>  H        2.0351133788     0.6835620442     2.9480667416
| 37>  H        2.3838506192     2.0605652545     1.9007308422
| 38>  H        4.5646163647     1.0205634285     1.2648431197
| 39>  H        4.2100875415    -0.3606113720     2.2899715888
| 40>  H        4.1215291936     1.1490233446     4.2949126154
| 41>  H        4.5009330606     2.5246807845     3.2660593410
| 42>  H        6.6856910056     1.4656132123     2.6710743084
| 43>  H        6.2649224676     0.0585414355     3.6450144757
| 44>  H        6.8013738681     2.6347645168     4.6059161940
| 45> *
| 46>
| 47>                          ****END OF INPUT****
 Total Charge           Charge          ....    1
 Multiplicity           Mult            ....    1
 Number of Electrons    NEL             ....   58
FINAL SINGLE POINT ENERGY      -328.427482818552

CARTESIAN COORDINATES (ANGSTROEM)
---------------------------------
  N      0.657004   -0.000547   -3.693657
  C     -0.278961    0.155758   -2.519453
  C      0.446777   -0.096370   -1.218702
  C     -0.483721    0.075159   -0.023218
  C      0.230381   -0.147006    1.300931
  C     -0.686898    0.068966    2.495998
  O      0.000775   -0.000724    3.717504
  H      0.187242    0.171203   -4.584969
  H      1.049286   -0.944242   -3.722140
  H      1.441004    0.651782   -3.620971
  H     -1.095107   -0.549708   -2.682103
  H     -0.678196    1.169328   -2.579198
  H      1.289416    0.599262   -1.123398
  H      0.863645   -1.110783   -1.215112
  H     -1.325407   -0.621136   -0.114332
  H     -0.912195    1.083956   -0.040863
  H      1.076424    0.541791    1.393635
  H      0.643425   -1.162168    1.336012
  H     -1.526013   -0.639881    2.462127
  H     -1.116969    1.073976    2.448629
  H      0.162647   -0.919781    3.943694

FINAL SINGLE POINT ENERGY      -328.427483638869
                    ***********************HURRAY********************
 Multiplicity           Mult            ....    1
 Number of Electrons    NEL             ....   58
 Basis Dimension        Dim             ....  301
FINAL SINGLE POINT ENERGY      -328.427484202989

VIBRATIONAL FREQUENCIES
-----------------------

   0:         0.00 cm**-1
   1:         0.00 cm**-1
   2:         0.00 cm**-1
   3:         0.00 cm**-1
   4:         0.00 cm**-1
   5:         0.00 cm**-1
   6:        61.14 cm**-1
   7:        77.02 cm**-1
   8:        98.09 cm**-1
   9:       137.11 cm**-1
  10:       148.68 cm**-1
  11:       225.45 cm**-1
  12:       239.74 cm**-1
  13:       249.58 cm**-1
  14:       302.50 cm**-1
  15:       432.20 cm**-1
  16:       503.78 cm**-1
  17:       741.89 cm**-1
  18:       764.07 cm**-1
  19:       822.82 cm**-1
  20:       896.75 cm**-1
  21:       913.83 cm**-1
  22:       972.66 cm**-1
  23:      1005.66 cm**-1
  24:      1040.04 cm**-1
  25:      1058.31 cm**-1
  26:      1078.95 cm**-1
  27:      1103.25 cm**-1
  28:      1130.56 cm**-1
  29:      1162.81 cm**-1
  30:      1227.89 cm**-1
  31:      1260.59 cm**-1
  32:      1293.33 cm**-1
  33:      1325.55 cm**-1
  34:      1335.34 cm**-1
  35:      1338.24 cm**-1
  36:      1353.12 cm**-1
  37:      1390.79 cm**-1
  38:      1402.29 cm**-1
  39:      1410.40 cm**-1
  40:      1423.45 cm**-1
  41:      1478.75 cm**-1
  42:      1479.61 cm**-1
  43:      1490.21 cm**-1
  44:      1502.16 cm**-1
  45:      1506.36 cm**-1
  46:      1510.40 cm**-1
  47:      1657.35 cm**-1
  48:      1664.34 cm**-1
  49:      3009.22 cm**-1
  50:      3026.84 cm**-1
  51:      3033.05 cm**-1
  52:      3042.24 cm**-1
  53:      3061.17 cm**-1
  54:      3073.82 cm**-1
  55:      3084.43 cm**-1
  56:      3098.29 cm**-1
  57:      3101.86 cm**-1
  58:      3157.80 cm**-1
  59:      3421.38 cm**-1
  60:      3502.86 cm**-1
  61:      3508.28 cm**-1
  62:      3869.44 cm**-1

IR SPECTRUM
-----------

 Mode    freq (cm**-1)   T**2         TX         TY         TZ
-------------------------------------------------------------------
   6:        61.14    4.708074  (  0.085643  -1.793844  -1.217728)
   7:        77.02    3.386804  ( -1.376864   1.215238  -0.119353)
   8:        98.09    4.973151  (  1.779304  -0.733118   1.126839)
   9:       137.11    6.067698  ( -1.425350  -1.638335   1.162727)
  10:       148.68    1.460025  ( -0.987629   0.113463  -0.686833)
  11:       225.45    0.073420  ( -0.183617  -0.095146   0.175077)
  12:       239.74   78.187298  ( -6.096320  -1.657043   6.186791)
  13:       249.58   48.571672  ( -6.493405  -0.559473   2.468673)
  14:       302.50   15.399070  ( -1.255078  -0.105026   3.716560)
  15:       432.20    5.218407  ( -0.939384   0.025199   2.082146)
  16:       503.78    0.629310  (  0.766554  -0.202434   0.026930)
  17:       741.89    6.553074  ( -0.764159  -2.442816  -0.042221)
  18:       764.07    1.176814  ( -0.149709   1.062144  -0.162024)
  19:       822.82    4.866916  ( -0.989836  -1.676459  -1.037606)
  20:       896.75   21.722847  (  0.882932  -0.465903   4.552605)
  21:       913.83    7.173091  (  0.067635  -2.341714   1.298033)
  22:       972.66    7.940395  ( -2.701155   0.518171  -0.612905)
  23:      1005.66    9.908935  (  1.241861   1.586591   2.418563)
  24:      1040.04    4.204150  (  1.222738  -0.200940   1.633611)
  25:      1058.31   14.294175  (  0.668830   0.131038  -3.718826)
  26:      1078.95    4.032139  ( -1.412073   0.087085   1.424993)
  27:      1103.25  130.186857  ( -2.978478   0.690795 -10.992649)
  28:      1130.56    9.197791  ( -0.263446  -0.196163  -3.014947)
  29:      1162.81   19.190059  (  3.020814  -0.555275   3.123526)
  30:      1227.89    5.435037  (  0.932505   1.187553   1.776285)
  31:      1260.59    0.718072  ( -0.341260   0.348421   0.692976)
  32:      1293.33    6.363053  ( -0.970124   0.535047  -2.266194)
  33:      1325.55    8.191480  (  1.304521   1.590043   1.990344)
  34:      1335.34    0.891950  ( -0.639668   0.692396   0.057976)
  35:      1338.24    0.791995  (  0.039723   0.068219   0.886433)
  36:      1353.12    2.497159  (  0.489131   1.489235   0.200224)
  37:      1390.79    3.678210  ( -0.632022  -0.285821  -1.788034)
  38:      1402.29   16.278619  ( -2.203442   0.186990  -3.374684)
  39:      1410.40   21.610500  ( -1.317925   0.097513   4.456912)
  40:      1423.45   17.007865  (  1.493511  -0.422624   3.820822)
  41:      1478.75    2.939285  (  1.256858  -0.235373  -1.142012)
  42:      1479.61    1.196947  (  1.017803  -0.267538   0.299079)
  43:      1490.21    0.301241  (  0.393975  -0.096017  -0.369872)
  44:      1502.16   29.156288  (  0.789286   0.118581  -5.340342)
  45:      1506.36   51.904895  (  3.093411  -0.325378  -6.498449)
  46:      1510.40   87.775613  ( -7.483091   1.484253   5.438377)
  47:      1657.35   52.987001  (  1.710723   7.063594   0.407514)
  48:      1664.34   36.621886  ( -4.234668   1.244731  -4.140063)
  49:      3009.22   38.324885  (  5.833844   1.591046   1.326547)
  50:      3026.84    6.222381  ( -1.126209   0.471692   2.175211)
  51:      3033.05    0.672322  (  0.175089   0.698585  -0.391975)
  52:      3042.24   43.403682  (  6.294133  -1.883514   0.489846)
  53:      3061.17    1.188856  ( -1.086638  -0.026865  -0.085739)
  54:      3073.82   10.955605  ( -2.125718   2.495582  -0.457160)
  55:      3084.43    2.579905  ( -1.445246  -0.221251  -0.664993)
  56:      3098.29    2.868037  ( -1.451459   0.361531  -0.794102)
  57:      3101.86   52.864702  (  1.278746   7.146767  -0.391454)
  58:      3157.80    1.311757  ( -0.286897  -1.107240  -0.058885)
  59:      3421.38   47.364904  ( -3.456173   0.426789   5.936128)
  60:      3502.86   91.628249  (  2.683424   9.133052   1.007394)
  61:      3508.28   97.631534  (  7.069880  -2.719995   6.344286)
  62:      3869.44   48.129792  (  1.408509  -5.019417   4.577264)

--------------------------
THERMOCHEMISTRY AT 298.15K
--------------------------

Temperature         ... 298.15 K
Pressure            ... 1.00 atm
Total Mass          ... 104.17 AMU

Throughout the following assumptions are being made:
  (1) The electronic state is orbitally nondegenerate
  (2) There are no thermally accessible electronically excited states
  (3) Hindered rotations indicated by low frequency modes) are not
      treated as such but are treated as vibrations and this may
      case some error
  (4) All equations used are the standard statistical mechanics
      equations for an ideal gas
  (5) All vibrations are strinctly harmonic

------------
INNER ENERGY
------------

The inner energy is: U= E(el) + E(ZPE) + E(vib) + E(rot) + E(trans)
    E(el)   - is the total energy from the electronic structure calculation
              = E(kin-el) + E(nuc-el) + E(el-el) + E(nuc-nuc)
    E(ZPE)  - the the zero temperature vibrational energy from the frequency calculation
    E(vib)  - the the finite temperature correction to E(ZPE) due to population
              of excietd vibrational states
    E(rot)  - is the rotational thermal energy
    E(trans)- is the translational thermal energy

Summary of contributions to the inner energy U:
Electronic energy                ...   -328.42748420 Eh
Zero point energy                ...      0.19867383 Eh     124.67 kcal/mol
Thermal vibrational correction   ...      0.00680692 Eh       4.27 kcal/mol
Thermal rotational correction    ...      0.00141627 Eh       0.89 kcal/mol
Thermal translational correction ...      0.00141627 Eh       0.89 kcal/mol
-----------------------------------------------------------------------
Total thermal energy                   -328.21917091 Eh

Summary of corrections to the electronic energy:
(perhaps to be used in another calculation)
Total thermal correction                  0.00963946 Eh       6.05 kcal/mol
Non-thermal (ZPE) correction              0.19867383 Eh     124.67 kcal/mol
-----------------------------------------------------------------------
Total correction                          0.20831329 Eh     130.72 kcal/mol

--------
ENTHALPY
--------

The enthalpy is H = U + kB*T
                kB is Boltzmann's constant
Total free energy                 ...   -328.21917091 Eh
Thermal Enthalpy correction       ...      0.00094421 Eh       0.59 kcal/mol
-----------------------------------------------------------------------
Total Enthalpy                    ...   -328.21822670 Eh

-------
ENTROPY
-------

The entropy contributions are T*S = T*(S(el)+S(vib)+S(rot)+S(trans)
     S(el)   - electronic entropy
     S(vib)  - vibrational entropy
     S(rot)  - rotational entropy
     S(trans)- translational entropy
The entropies will be listed as mutliplied by the temperature to get
units of energy

Electronic entropy                ...      0.00000000 Eh      0.00 kcal/mol
Vibrational entropy               ...      0.01314017 Eh      8.25 kcal/mol
Rotational entropy                ...      0.01242236 Eh      7.80 kcal/mol
Translational entropy             ...      0.01892914 Eh     11.88 kcal/mol
-----------------------------------------------------------------------
Final entropy term                ...      0.04449168 Eh     27.92 kcal/mol

CAUTION: The rotational entropy is not quite correctly treated here
         because it includes a symmetry number that is not yet correctly
         implemented in ORCA!
For a nonlinear molecule the correct rotational entropy is:
    S(rot) = R*(ln(qrot/sn)+1.5)
    R    = 8.31441 J/mol/K = 1.987191683e-3 kcal/mol/K
    qrot = 346407.4868322
    sn is the rotational symmetry number. We have assumed 3 here
       if it is different for your molecule then you should correct
       the printed rotational entropy by manually evaluating the equation
       as given above

For convenience we print out the resulting values for sn=1 - 12:
 sn= 1  qrot/sn=  346407.4868 T*S(rot)=     8.45 kcal/mol T*S(tot)=    28.57 kcal/mol
 sn= 2  qrot/sn=  173203.7434 T*S(rot)=     8.04 kcal/mol T*S(tot)=    28.16 kcal/mol
 sn= 3  qrot/sn=  115469.1623 T*S(rot)=     7.80 kcal/mol T*S(tot)=    27.92 kcal/mol
 sn= 4  qrot/sn=   86601.8717 T*S(rot)=     7.62 kcal/mol T*S(tot)=    27.75 kcal/mol
 sn= 5  qrot/sn=   69281.4974 T*S(rot)=     7.49 kcal/mol T*S(tot)=    27.62 kcal/mol
 sn= 6  qrot/sn=   57734.5811 T*S(rot)=     7.38 kcal/mol T*S(tot)=    27.51 kcal/mol
 sn= 7  qrot/sn=   49486.7838 T*S(rot)=     7.29 kcal/mol T*S(tot)=    27.42 kcal/mol
 sn= 8  qrot/sn=   43300.9359 T*S(rot)=     7.21 kcal/mol T*S(tot)=    27.34 kcal/mol
 sn= 9  qrot/sn=   38489.7208 T*S(rot)=     7.14 kcal/mol T*S(tot)=    27.27 kcal/mol
 sn=10  qrot/sn=   34640.7487 T*S(rot)=     7.08 kcal/mol T*S(tot)=    27.21 kcal/mol
 sn=11  qrot/sn=   31491.5897 T*S(rot)=     7.03 kcal/mol T*S(tot)=    27.15 kcal/mol
 sn=12  qrot/sn=   28867.2906 T*S(rot)=     6.97 kcal/mol T*S(tot)=    27.10 kcal/mol

-------------------
GIBBS FREE ENTHALPY
-------------------

The Gibbs free enthalpy is G = H - T*S

Total enthalpy                    ...   -328.21822670 Eh
Total entropy correction          ...     -0.04449168 Eh    -27.92 kcal/mol
-----------------------------------------------------------------------
Final Gibbs free enthalpy         ...   -328.26271838 Eh

For completeness - the Gibbs free enthalpy minus the electronic energy
G-E(el)                           ...      0.16476582 Eh    103.39 kcal/mol

                             ****ORCA TERMINATED NORMALLY****
TOTAL RUN TIME: 0 days 0 hours 38 minutes 17 seconds 201 msec
