                         Program Version 3.0.3 - RELEASE   -
|  1> ! NORI PBE0 def2-TZVP UseSym TightOPT Freq TightSCF Grid3 FinalGrid5 XYZFile
|  2> % pal
|  3>     nprocs 8
|  4> end
|  5> %method
|  6>     SymThresh 5.0e-2
|  7> end
|  8> % geom
|  9>     MaxIter 10
| 10> end
| 11> % maxcore 2000
| 12> % output
| 13>     printlevel mini
| 14>     print[ P_Basis ] 0
| 15>     print[ P_SCFInfo ] 1
| 16>     print[ P_SCFIterInfo ] 1
| 17>     print[ P_OrbEn ] 0
| 18>     print[ P_Cartesian ] 0
| 19> end
| 20> % elprop
| 21>     Dipole false
| 22> end
| 23> *xyz 1 1
| 24>  N        2.9135329271    -0.0003107142    -1.5776543751
| 25>  C        3.5722075274    -0.4730001925    -0.2853749302
| 26>  C        3.2303977007     0.4912102363     0.7878468406
| 27>  C        4.0595468204     1.4646853457     1.1527928535
| 28>  C        3.7138357389     2.5676899879     2.0837637178
| 29>  C        3.7387323558     3.9008919186     1.3486185435
| 30>  O        2.8709000220     3.8043198630     0.2334662038
| 31>  H        3.1649577500    -0.5749923329    -2.3847696522
| 32>  H        3.1873268422     0.9699121316    -1.7547315515
| 33>  H        1.8958547370    -0.0071395302    -1.4837149323
| 34>  H        4.6425165256    -0.5078108002    -0.4893517095
| 35>  H        3.2043779812    -1.4855025806    -0.1137230094
| 36>  H        2.2384234550     0.4205115445     1.2268297424
| 37>  H        5.0544013058     1.5052196849     0.7066886548
| 38>  H        4.4400273208     2.6161863266     2.9019441057
| 39>  H        2.7250590691     2.4045895649     2.5180441014
| 40>  H        3.4183037345     4.6899170143     2.0363969082
| 41>  H        4.7630043879     4.1310130028     1.0254609317
| 42>  H        2.6995037987     4.6890395297    -0.0988724433
| 43> *
| 44>
| 45>                          ****END OF INPUT****
 Total Charge           Charge          ....    1
 Multiplicity           Mult            ....    1
 Number of Electrons    NEL             ....   56
FINAL SINGLE POINT ENERGY      -327.208083282337
FINAL SINGLE POINT ENERGY      -327.208084582201

CARTESIAN COORDINATES (ANGSTROEM)
---------------------------------
  N      2.368470    0.004236   -1.318039
  C      1.041595   -0.011520   -2.070234
  C     -0.006757    0.523439   -1.168928
  C     -0.815653   -0.272327   -0.475876
  C     -1.757630    0.186701    0.575071
  C     -1.346538   -0.375218    1.929387
  O      0.001286   -0.009720    2.166074
  H      3.131445   -0.420523   -1.849404
  H      2.254840   -0.494757   -0.431581
  H      2.635567    0.962567   -1.084574
  H      0.863929   -1.051137   -2.345127
  H      1.201893    0.578380   -2.973612
  H     -0.050068    1.601577   -1.036077
  H     -0.761646   -1.350008   -0.637909
  H     -2.771774   -0.162486    0.355015
  H     -1.777100    1.277916    0.618980
  H     -2.011131    0.032208    2.697986
  H     -1.458929   -1.467632    1.931007
  H      0.198632   -0.152577    3.095186

FINAL SINGLE POINT ENERGY      -327.208085157221
                    ***********************HURRAY********************
 Multiplicity           Mult            ....    1
 Number of Electrons    NEL             ....   56
 Basis Dimension        Dim             ....  289
FINAL SINGLE POINT ENERGY      -327.208085214305

VIBRATIONAL FREQUENCIES
-----------------------

   0:         0.00 cm**-1
   1:         0.00 cm**-1
   2:         0.00 cm**-1
   3:         0.00 cm**-1
   4:         0.00 cm**-1
   5:         0.00 cm**-1
   6:        36.89 cm**-1
   7:        76.83 cm**-1
   8:       127.13 cm**-1
   9:       168.14 cm**-1
  10:       206.85 cm**-1
  11:       253.93 cm**-1
  12:       299.18 cm**-1
  13:       359.07 cm**-1
  14:       414.41 cm**-1
  15:       471.81 cm**-1
  16:       528.82 cm**-1
  17:       810.91 cm**-1
  18:       838.26 cm**-1
  19:       854.18 cm**-1
  20:       906.59 cm**-1
  21:       923.77 cm**-1
  22:       965.97 cm**-1
  23:      1014.92 cm**-1
  24:      1026.79 cm**-1
  25:      1077.87 cm**-1
  26:      1105.88 cm**-1
  27:      1139.56 cm**-1
  28:      1176.80 cm**-1
  29:      1205.12 cm**-1
  30:      1246.47 cm**-1
  31:      1305.10 cm**-1
  32:      1313.21 cm**-1
  33:      1329.73 cm**-1
  34:      1342.12 cm**-1
  35:      1375.92 cm**-1
  36:      1397.63 cm**-1
  37:      1444.07 cm**-1
  38:      1467.11 cm**-1
  39:      1490.83 cm**-1
  40:      1493.10 cm**-1
  41:      1516.08 cm**-1
  42:      1644.20 cm**-1
  43:      1662.69 cm**-1
  44:      1740.76 cm**-1
  45:      3015.43 cm**-1
  46:      3061.23 cm**-1
  47:      3077.65 cm**-1
  48:      3100.64 cm**-1
  49:      3116.28 cm**-1
  50:      3133.93 cm**-1
  51:      3158.73 cm**-1
  52:      3174.97 cm**-1
  53:      3409.90 cm**-1
  54:      3496.63 cm**-1
  55:      3511.93 cm**-1
  56:      3870.85 cm**-1

IR SPECTRUM
-----------

 Mode    freq (cm**-1)   T**2         TX         TY         TZ
-------------------------------------------------------------------
   6:        36.89   17.542718  (  1.030358   0.623599  -4.011509)
   7:        76.83    9.499784  (  0.613744  -2.387875  -1.849637)
   8:       127.13    5.643976  ( -1.945149  -1.225731   0.598293)
   9:       168.14    1.370229  ( -0.059800  -1.169038  -0.001588)
  10:       206.85    0.171254  (  0.234955   0.282943  -0.189719)
  11:       253.93    3.645386  (  0.928459  -1.586444   0.516280)
  12:       299.18  119.052736  (  3.229456 -10.055566  -2.740244)
  13:       359.07    5.465591  ( -0.299175  -2.130464  -0.914992)
  14:       414.41    7.595519  (  2.622922  -0.840707  -0.094915)
  15:       471.81    8.356449  (  2.190317   0.523466   1.812441)
  16:       528.82    9.775275  (  2.918466  -0.259697   1.091048)
  17:       810.91    4.735269  ( -0.111142   0.953131  -1.953063)
  18:       838.26   10.533570  ( -2.364094  -1.940756   1.085403)
  19:       854.18   41.012146  (  6.238103  -1.417704  -0.297197)
  20:       906.59    1.364206  ( -0.493502  -0.145743   1.048533)
  21:       923.77    9.319984  (  2.026824   2.242136   0.429875)
  22:       965.97   10.658717  (  2.846789   1.437180   0.699299)
  23:      1014.92   38.628139  (  5.334980  -0.193827   3.182539)
  24:      1026.79   20.138849  (  0.561791  -0.800568   4.379764)
  25:      1077.87   12.984579  (  0.560229   0.119699   3.557583)
  26:      1105.88   53.828955  ( -6.163351  -1.324120  -3.753500)
  27:      1139.56   24.007632  ( -4.313025   0.792901   2.185579)
  28:      1176.80    6.287490  (  0.644536  -1.599657  -1.820209)
  29:      1205.12   13.111656  ( -2.460631  -1.418651  -2.245970)
  30:      1246.47    7.231730  (  2.500692   0.755220  -0.638678)
  31:      1305.10   47.843063  ( -6.456731  -2.282738   0.970979)
  32:      1313.21    7.429195  (  0.901745   2.363013  -1.015982)
  33:      1329.73    1.614493  (  0.340437  -0.037021  -1.223612)
  34:      1342.12    1.582940  ( -0.671249  -1.064126   0.000922)
  35:      1375.92    9.341980  ( -1.454130  -0.602660   2.619979)
  36:      1397.63   33.981597  ( -5.160275  -0.675700   2.626135)
  37:      1444.07    9.720138  (  1.232849   0.741735  -2.765872)
  38:      1467.11   10.198834  (  0.664783  -2.790822   1.402929)
  39:      1490.83   13.483692  (  1.701360  -2.207861  -2.390484)
  40:      1493.10  147.512983  (-11.057156   0.159788  -5.022623)
  41:      1516.08    2.405614  (  0.483702  -0.806720   1.233227)
  42:      1644.20   45.743400  (  0.364450   6.618218  -1.345276)
  43:      1662.69   42.932287  (  3.704095  -0.921414  -5.325689)
  44:      1740.76   42.113592  ( -4.672235  -1.099719   4.367428)
  45:      3015.43   44.386239  ( -3.804490  -5.206311   1.675238)
  46:      3061.23    1.286652  ( -0.373680   0.213827  -1.049425)
  47:      3077.65   22.618307  (  3.076585  -2.558209  -2.570700)
  48:      3100.64    4.827585  (  1.304617  -0.453577  -1.708750)
  49:      3116.28    2.149685  ( -0.258104  -1.345968   0.520996)
  50:      3133.93   13.318001  (  0.726046  -3.363169  -1.216533)
  51:      3158.73    0.677597  ( -0.573398   0.232657   0.542846)
  52:      3174.97    1.148700  ( -0.150034   0.991079   0.379411)
  53:      3409.90   28.966890  ( -4.522720   0.568329  -2.861625)
  54:      3496.63   94.881984  (  4.760813   5.501124  -6.477212)
  55:      3511.93   84.011606  ( -1.842644   7.665806   4.674578)
  56:      3870.85   68.596545  ( -3.086593   0.417805  -7.674303)

--------------------------
THERMOCHEMISTRY AT 298.15K
--------------------------

Temperature         ... 298.15 K
Pressure            ... 1.00 atm
Total Mass          ... 102.16 AMU

Throughout the following assumptions are being made:
  (1) The electronic state is orbitally nondegenerate
  (2) There are no thermally accessible electronically excited states
  (3) Hindered rotations indicated by low frequency modes) are not
      treated as such but are treated as vibrations and this may
      case some error
  (4) All equations used are the standard statistical mechanics
      equations for an ideal gas
  (5) All vibrations are strinctly harmonic

------------
INNER ENERGY
------------

The inner energy is: U= E(el) + E(ZPE) + E(vib) + E(rot) + E(trans)
    E(el)   - is the total energy from the electronic structure calculation
              = E(kin-el) + E(nuc-el) + E(el-el) + E(nuc-nuc)
    E(ZPE)  - the the zero temperature vibrational energy from the frequency calculation
    E(vib)  - the the finite temperature correction to E(ZPE) due to population
              of excietd vibrational states
    E(rot)  - is the rotational thermal energy
    E(trans)- is the translational thermal energy

Summary of contributions to the inner energy U:
Electronic energy                ...   -327.20808521 Eh
Zero point energy                ...      0.17516123 Eh     109.92 kcal/mol
Thermal vibrational correction   ...      0.00611920 Eh       3.84 kcal/mol
Thermal rotational correction    ...      0.00141627 Eh       0.89 kcal/mol
Thermal translational correction ...      0.00141627 Eh       0.89 kcal/mol
-----------------------------------------------------------------------
Total thermal energy                   -327.02397224 Eh

Summary of corrections to the electronic energy:
(perhaps to be used in another calculation)
Total thermal correction                  0.00895174 Eh       5.62 kcal/mol
Non-thermal (ZPE) correction              0.17516123 Eh     109.92 kcal/mol
-----------------------------------------------------------------------
Total correction                          0.18411297 Eh     115.53 kcal/mol

--------
ENTHALPY
--------

The enthalpy is H = U + kB*T
                kB is Boltzmann's constant
Total free energy                 ...   -327.02397224 Eh
Thermal Enthalpy correction       ...      0.00094421 Eh       0.59 kcal/mol
-----------------------------------------------------------------------
Total Enthalpy                    ...   -327.02302804 Eh

-------
ENTROPY
-------

The entropy contributions are T*S = T*(S(el)+S(vib)+S(rot)+S(trans)
     S(el)   - electronic entropy
     S(vib)  - vibrational entropy
     S(rot)  - rotational entropy
     S(trans)- translational entropy
The entropies will be listed as mutliplied by the temperature to get
units of energy

Electronic entropy                ...      0.00000000 Eh      0.00 kcal/mol
Vibrational entropy               ...      0.01187732 Eh      7.45 kcal/mol
Rotational entropy                ...      0.01240254 Eh      7.78 kcal/mol
Translational entropy             ...      0.01890147 Eh     11.86 kcal/mol
-----------------------------------------------------------------------
Final entropy term                ...      0.04318133 Eh     27.10 kcal/mol

CAUTION: The rotational entropy is not quite correctly treated here
         because it includes a symmetry number that is not yet correctly
         implemented in ORCA!
For a nonlinear molecule the correct rotational entropy is:
    S(rot) = R*(ln(qrot/sn)+1.5)
    R    = 8.31441 J/mol/K = 1.987191683e-3 kcal/mol/K
    qrot = 339212.0180786
    sn is the rotational symmetry number. We have assumed 3 here
       if it is different for your molecule then you should correct
       the printed rotational entropy by manually evaluating the equation
       as given above

For convenience we print out the resulting values for sn=1 - 12:
 sn= 1  qrot/sn=  339212.0181 T*S(rot)=     8.43 kcal/mol T*S(tot)=    27.75 kcal/mol
 sn= 2  qrot/sn=  169606.0090 T*S(rot)=     8.02 kcal/mol T*S(tot)=    27.34 kcal/mol
 sn= 3  qrot/sn=  113070.6727 T*S(rot)=     7.78 kcal/mol T*S(tot)=    27.10 kcal/mol
 sn= 4  qrot/sn=   84803.0045 T*S(rot)=     7.61 kcal/mol T*S(tot)=    26.93 kcal/mol
 sn= 5  qrot/sn=   67842.4036 T*S(rot)=     7.48 kcal/mol T*S(tot)=    26.79 kcal/mol
 sn= 6  qrot/sn=   56535.3363 T*S(rot)=     7.37 kcal/mol T*S(tot)=    26.69 kcal/mol
 sn= 7  qrot/sn=   48458.8597 T*S(rot)=     7.28 kcal/mol T*S(tot)=    26.59 kcal/mol
 sn= 8  qrot/sn=   42401.5023 T*S(rot)=     7.20 kcal/mol T*S(tot)=    26.52 kcal/mol
 sn= 9  qrot/sn=   37690.2242 T*S(rot)=     7.13 kcal/mol T*S(tot)=    26.45 kcal/mol
 sn=10  qrot/sn=   33921.2018 T*S(rot)=     7.07 kcal/mol T*S(tot)=    26.38 kcal/mol
 sn=11  qrot/sn=   30837.4562 T*S(rot)=     7.01 kcal/mol T*S(tot)=    26.33 kcal/mol
 sn=12  qrot/sn=   28267.6682 T*S(rot)=     6.96 kcal/mol T*S(tot)=    26.28 kcal/mol

-------------------
GIBBS FREE ENTHALPY
-------------------

The Gibbs free enthalpy is G = H - T*S

Total enthalpy                    ...   -327.02302804 Eh
Total entropy correction          ...     -0.04318133 Eh    -27.10 kcal/mol
-----------------------------------------------------------------------
Final Gibbs free enthalpy         ...   -327.06620937 Eh

For completeness - the Gibbs free enthalpy minus the electronic energy
G-E(el)                           ...      0.14187585 Eh     89.03 kcal/mol

                             ****ORCA TERMINATED NORMALLY****
TOTAL RUN TIME: 0 days 0 hours 38 minutes 27 seconds 739 msec
