                         Program Version 3.0.3 - RELEASE   -
|  1> ! NORI PBE0 def2-TZVP UseSym TightOPT Freq TightSCF Grid3 FinalGrid5 XYZFile
|  2> % pal
|  3>     nprocs 8
|  4> end
|  5> %method
|  6>     SymThresh 5.0e-2
|  7> end
|  8> % geom
|  9>     MaxIter 10
| 10> end
| 11> % maxcore 2000
| 12> % output
| 13>     printlevel mini
| 14>     print[ P_Basis ] 0
| 15>     print[ P_SCFInfo ] 1
| 16>     print[ P_SCFIterInfo ] 1
| 17>     print[ P_OrbEn ] 0
| 18>     print[ P_Cartesian ] 0
| 19> end
| 20> % elprop
| 21>     Dipole false
| 22> end
| 23> *xyz 1 1
| 24>  N        0.8306450784     0.1689040890     0.6521900004
| 25>  C        2.3218495098     0.1214509818     0.5245434678
| 26>  C        2.7867197117    -1.0385397936    -0.3030511532
| 27>  C        1.9595453513    -1.9635000634    -0.7761128556
| 28>  C        4.2727083232    -1.0182148494    -0.5281942994
| 29>  C        4.8555064067    -2.2558361861    -1.1950835507
| 30>  O        4.3624444915    -2.4617348661    -2.4976987198
| 31>  H        0.5222029249     0.9786632591     1.1922236224
| 32>  H        0.4839871287    -0.6763053146     1.1115963155
| 33>  H        0.3972996801     0.2085993905    -0.2736985013
| 34>  H        2.6290514645     1.0724282594     0.0818724602
| 35>  H        2.7230978793     0.0836495542     1.5405620351
| 36>  H        2.3237337777    -2.7645515634    -1.4052876616
| 37>  H        0.8882567430    -1.9758651559    -0.5957034827
| 38>  H        4.5274810557    -0.1297040866    -1.1215184592
| 39>  H        4.7762656000    -0.8812765976     0.4383205078
| 40>  H        5.9472973114    -2.1783364822    -1.1844941397
| 41>  H        4.5949320741    -3.1432630155    -0.6107406488
| 42>  H        4.9300354879    -2.0212175597    -3.1338149370
| 43> *
| 44>
| 45>                          ****END OF INPUT****
 Total Charge           Charge          ....    1
 Multiplicity           Mult            ....    1
 Number of Electrons    NEL             ....   56
FINAL SINGLE POINT ENERGY      -327.197984334608
FINAL SINGLE POINT ENERGY      -327.197986800439
FINAL SINGLE POINT ENERGY      -327.197989279686
FINAL SINGLE POINT ENERGY      -327.197990344173
FINAL SINGLE POINT ENERGY      -327.197991595848

CARTESIAN COORDINATES (ANGSTROEM)
---------------------------------
  N      1.088146   -0.011692   -2.681928
  C     -0.010883    0.516767   -1.812577
  C      0.039946   -0.044868   -0.423727
  C      0.919598   -0.967321   -0.051022
  C     -1.003416    0.560588    0.473559
  C     -1.165707   -0.103088    1.833485
  O     -0.009784   -0.006928    2.631695
  H      1.061754    0.397734   -3.616904
  H      1.015334   -1.027733   -2.772232
  H      1.999072    0.190182   -2.262016
  H      0.092217    1.604912   -1.804378
  H     -0.951601    0.275736   -2.314279
  H      0.954493   -1.320565    0.970731
  H      1.662084   -1.406093   -0.711768
  H     -0.775945    1.626164    0.611421
  H     -1.973679    0.530932   -0.040187
  H     -2.037991    0.329447    2.333228
  H     -1.373785   -1.168469    1.697172
  H     -0.060238    0.774811    3.185809

FINAL SINGLE POINT ENERGY      -327.197992175805
                    ***********************HURRAY********************
 Multiplicity           Mult            ....    1
 Number of Electrons    NEL             ....   56
 Basis Dimension        Dim             ....  289
FINAL SINGLE POINT ENERGY      -327.197993166013

VIBRATIONAL FREQUENCIES
-----------------------

   0:         0.00 cm**-1
   1:         0.00 cm**-1
   2:         0.00 cm**-1
   3:         0.00 cm**-1
   4:         0.00 cm**-1
   5:         0.00 cm**-1
   6:        40.52 cm**-1
   7:        80.34 cm**-1
   8:        99.80 cm**-1
   9:       157.32 cm**-1
  10:       219.04 cm**-1
  11:       223.25 cm**-1
  12:       296.08 cm**-1
  13:       355.44 cm**-1
  14:       427.93 cm**-1
  15:       464.11 cm**-1
  16:       567.41 cm**-1
  17:       668.96 cm**-1
  18:       795.80 cm**-1
  19:       869.39 cm**-1
  20:       881.22 cm**-1
  21:       910.03 cm**-1
  22:       952.68 cm**-1
  23:       990.29 cm**-1
  24:      1001.36 cm**-1
  25:      1045.13 cm**-1
  26:      1088.08 cm**-1
  27:      1106.44 cm**-1
  28:      1123.13 cm**-1
  29:      1188.61 cm**-1
  30:      1218.54 cm**-1
  31:      1285.71 cm**-1
  32:      1344.44 cm**-1
  33:      1386.69 cm**-1
  34:      1395.70 cm**-1
  35:      1413.23 cm**-1
  36:      1416.95 cm**-1
  37:      1444.66 cm**-1
  38:      1469.16 cm**-1
  39:      1486.76 cm**-1
  40:      1499.03 cm**-1
  41:      1503.40 cm**-1
  42:      1641.26 cm**-1
  43:      1665.38 cm**-1
  44:      1734.56 cm**-1
  45:      3020.93 cm**-1
  46:      3048.05 cm**-1
  47:      3060.82 cm**-1
  48:      3077.40 cm**-1
  49:      3099.28 cm**-1
  50:      3124.68 cm**-1
  51:      3153.99 cm**-1
  52:      3256.77 cm**-1
  53:      3419.77 cm**-1
  54:      3492.73 cm**-1
  55:      3516.95 cm**-1
  56:      3883.07 cm**-1

IR SPECTRUM
-----------

 Mode    freq (cm**-1)   T**2         TX         TY         TZ
-------------------------------------------------------------------
   6:        40.52   12.124919  ( -0.643179  -0.566305   3.374987)
   7:        80.34   13.961396  (  2.478024   2.763239  -0.430469)
   8:        99.80  114.289547  ( -4.455007  -4.439211   8.644991)
   9:       157.32    7.996185  ( -1.444416  -0.062514  -2.430214)
  10:       219.04    0.364190  (  0.445208   0.383544  -0.137384)
  11:       223.25    2.464173  ( -0.087678   1.554298   0.201600)
  12:       296.08    1.045693  ( -0.708151   0.371947  -0.637081)
  13:       355.44   18.255536  (  1.012898   0.371713  -4.134175)
  14:       427.93   11.654600  (  2.317621   2.472159   0.414321)
  15:       464.11    1.429166  ( -0.017045   1.068326   0.536242)
  16:       567.41    2.820996  (  0.833902   0.985756  -1.074193)
  17:       668.96    1.261262  ( -0.158400  -0.222531   1.089335)
  18:       795.80   12.268792  ( -1.215493   1.273445  -3.028153)
  19:       869.39   10.047027  (  2.324498   1.933264   0.951961)
  20:       881.22    1.251542  ( -0.893404   0.315570  -0.594800)
  21:       910.03    5.912730  ( -2.200931  -0.856131  -0.579371)
  22:       952.68   31.187264  ( -2.484199  -4.699457  -1.712054)
  23:       990.29   11.113966  (  0.775608  -0.113777  -3.240286)
  24:      1001.36    5.713710  (  2.187515   0.393318   0.879652)
  25:      1045.13   27.716867  ( -4.645139  -1.838548  -1.661111)
  26:      1088.08   56.285239  (  2.446360  -1.774479   6.866716)
  27:      1106.44    2.814020  ( -0.355104   1.616010  -0.276463)
  28:      1123.13   38.588642  ( -3.643149  -0.418322  -5.014092)
  29:      1188.61   29.370421  (  4.501768   0.714624   2.931521)
  30:      1218.54   20.740689  (  2.521467   0.495988   3.759905)
  31:      1285.71    7.247656  (  0.734752   1.224225  -2.282338)
  32:      1344.44    2.849812  (  0.720582   0.991501   1.160819)
  33:      1386.69   19.239244  ( -4.085067  -0.076834  -1.595484)
  34:      1395.70    7.366058  (  0.863411  -1.351380   2.189601)
  35:      1413.23    8.106388  (  1.269936   0.806298   2.417340)
  36:      1416.95    7.109789  (  0.048089  -0.263293  -2.652952)
  37:      1444.66    3.638390  ( -0.794086   1.663384  -0.490888)
  38:      1469.16    3.740054  ( -0.450421   1.393058  -1.263552)
  39:      1486.76   25.547368  (  1.366659  -2.930661   3.884693)
  40:      1499.03   41.156707  ( -3.957069  -0.161313   5.047008)
  41:      1503.40  139.434658  (  8.595788  -4.616739  -6.650775)
  42:      1641.26   59.349381  ( -4.540846  -5.923803  -1.907526)
  43:      1665.38   42.592089  ( -0.135671   1.752806  -6.285010)
  44:      1734.56   11.350303  (  2.430229  -2.307659  -0.344965)
  45:      3020.93    9.070362  (  1.232005  -2.212943   1.629543)
  46:      3048.05    7.179967  (  2.373968   0.492653  -1.140849)
  47:      3060.82   26.502481  (  4.721487   2.010858   0.408027)
  48:      3077.40    3.209207  ( -1.013950   1.175398  -0.894177)
  49:      3099.28   17.459473  (  1.171465  -3.526785  -1.910218)
  50:      3124.68    0.007241  (  0.039551  -0.005580   0.075139)
  51:      3153.99   26.040888  (  2.130048  -0.599300  -4.598328)
  52:      3256.77    5.845571  ( -1.352671   1.110246  -1.668295)
  53:      3419.77   36.975263  ( -4.569878   1.713072   3.627239)
  54:      3492.73   90.204066  ( -5.565355  -6.841872  -3.524158)
  55:      3516.95  110.976304  ( -1.702720   5.520532  -8.809130)
  56:      3883.07   71.794035  ( -1.108203  -5.290122  -6.525376)

--------------------------
THERMOCHEMISTRY AT 298.15K
--------------------------

Temperature         ... 298.15 K
Pressure            ... 1.00 atm
Total Mass          ... 102.16 AMU

Throughout the following assumptions are being made:
  (1) The electronic state is orbitally nondegenerate
  (2) There are no thermally accessible electronically excited states
  (3) Hindered rotations indicated by low frequency modes) are not
      treated as such but are treated as vibrations and this may
      case some error
  (4) All equations used are the standard statistical mechanics
      equations for an ideal gas
  (5) All vibrations are strinctly harmonic

------------
INNER ENERGY
------------

The inner energy is: U= E(el) + E(ZPE) + E(vib) + E(rot) + E(trans)
    E(el)   - is the total energy from the electronic structure calculation
              = E(kin-el) + E(nuc-el) + E(el-el) + E(nuc-nuc)
    E(ZPE)  - the the zero temperature vibrational energy from the frequency calculation
    E(vib)  - the the finite temperature correction to E(ZPE) due to population
              of excietd vibrational states
    E(rot)  - is the rotational thermal energy
    E(trans)- is the translational thermal energy

Summary of contributions to the inner energy U:
Electronic energy                ...   -327.19799317 Eh
Zero point energy                ...      0.17453562 Eh     109.52 kcal/mol
Thermal vibrational correction   ...      0.00626154 Eh       3.93 kcal/mol
Thermal rotational correction    ...      0.00141627 Eh       0.89 kcal/mol
Thermal translational correction ...      0.00141627 Eh       0.89 kcal/mol
-----------------------------------------------------------------------
Total thermal energy                   -327.01436346 Eh

Summary of corrections to the electronic energy:
(perhaps to be used in another calculation)
Total thermal correction                  0.00909409 Eh       5.71 kcal/mol
Non-thermal (ZPE) correction              0.17453562 Eh     109.52 kcal/mol
-----------------------------------------------------------------------
Total correction                          0.18362971 Eh     115.23 kcal/mol

--------
ENTHALPY
--------

The enthalpy is H = U + kB*T
                kB is Boltzmann's constant
Total free energy                 ...   -327.01436346 Eh
Thermal Enthalpy correction       ...      0.00094421 Eh       0.59 kcal/mol
-----------------------------------------------------------------------
Total Enthalpy                    ...   -327.01341925 Eh

-------
ENTROPY
-------

The entropy contributions are T*S = T*(S(el)+S(vib)+S(rot)+S(trans)
     S(el)   - electronic entropy
     S(vib)  - vibrational entropy
     S(rot)  - rotational entropy
     S(trans)- translational entropy
The entropies will be listed as mutliplied by the temperature to get
units of energy

Electronic entropy                ...      0.00000000 Eh      0.00 kcal/mol
Vibrational entropy               ...      0.01216984 Eh      7.64 kcal/mol
Rotational entropy                ...      0.01224413 Eh      7.68 kcal/mol
Translational entropy             ...      0.01890147 Eh     11.86 kcal/mol
-----------------------------------------------------------------------
Final entropy term                ...      0.04331543 Eh     27.18 kcal/mol

CAUTION: The rotational entropy is not quite correctly treated here
         because it includes a symmetry number that is not yet correctly
         implemented in ORCA!
For a nonlinear molecule the correct rotational entropy is:
    S(rot) = R*(ln(qrot/sn)+1.5)
    R    = 8.31441 J/mol/K = 1.987191683e-3 kcal/mol/K
    qrot = 286817.3913861
    sn is the rotational symmetry number. We have assumed 3 here
       if it is different for your molecule then you should correct
       the printed rotational entropy by manually evaluating the equation
       as given above

For convenience we print out the resulting values for sn=1 - 12:
 sn= 1  qrot/sn=  286817.3914 T*S(rot)=     8.33 kcal/mol T*S(tot)=    27.83 kcal/mol
 sn= 2  qrot/sn=  143408.6957 T*S(rot)=     7.92 kcal/mol T*S(tot)=    27.42 kcal/mol
 sn= 3  qrot/sn=   95605.7971 T*S(rot)=     7.68 kcal/mol T*S(tot)=    27.18 kcal/mol
 sn= 4  qrot/sn=   71704.3478 T*S(rot)=     7.51 kcal/mol T*S(tot)=    27.01 kcal/mol
 sn= 5  qrot/sn=   57363.4783 T*S(rot)=     7.38 kcal/mol T*S(tot)=    26.88 kcal/mol
 sn= 6  qrot/sn=   47802.8986 T*S(rot)=     7.27 kcal/mol T*S(tot)=    26.77 kcal/mol
 sn= 7  qrot/sn=   40973.9131 T*S(rot)=     7.18 kcal/mol T*S(tot)=    26.68 kcal/mol
 sn= 8  qrot/sn=   35852.1739 T*S(rot)=     7.10 kcal/mol T*S(tot)=    26.60 kcal/mol
 sn= 9  qrot/sn=   31868.5990 T*S(rot)=     7.03 kcal/mol T*S(tot)=    26.53 kcal/mol
 sn=10  qrot/sn=   28681.7391 T*S(rot)=     6.97 kcal/mol T*S(tot)=    26.47 kcal/mol
 sn=11  qrot/sn=   26074.3083 T*S(rot)=     6.91 kcal/mol T*S(tot)=    26.41 kcal/mol
 sn=12  qrot/sn=   23901.4493 T*S(rot)=     6.86 kcal/mol T*S(tot)=    26.36 kcal/mol

-------------------
GIBBS FREE ENTHALPY
-------------------

The Gibbs free enthalpy is G = H - T*S

Total enthalpy                    ...   -327.01341925 Eh
Total entropy correction          ...     -0.04331543 Eh    -27.18 kcal/mol
-----------------------------------------------------------------------
Final Gibbs free enthalpy         ...   -327.05673468 Eh

For completeness - the Gibbs free enthalpy minus the electronic energy
G-E(el)                           ...      0.14125848 Eh     88.64 kcal/mol

                             ****ORCA TERMINATED NORMALLY****
TOTAL RUN TIME: 0 days 0 hours 47 minutes 4 seconds 234 msec
