                         Program Version 3.0.3 - RELEASE   -
|  1> ! NORI PBE0 def2-TZVP UseSym TightOPT Freq TightSCF Grid3 FinalGrid5 XYZFile
|  2> % pal
|  3>     nprocs 8
|  4> end
|  5> %method
|  6>     SymThresh 5.0e-2
|  7> end
|  8> % geom
|  9>     MaxIter 10
| 10> end
| 11> % maxcore 2000
| 12> % output
| 13>     printlevel mini
| 14>     print[ P_Basis ] 0
| 15>     print[ P_SCFInfo ] 1
| 16>     print[ P_SCFIterInfo ] 1
| 17>     print[ P_OrbEn ] 0
| 18>     print[ P_Cartesian ] 0
| 19> end
| 20> % elprop
| 21>     Dipole false
| 22> end
| 23> *xyz 1 1
| 24>  N        0.9150353280    -0.0454723911     0.1344653949
| 25>  C        2.4342776391    -0.0303908147     0.1244823066
| 26>  C        2.9178882325    -0.8647706161    -0.9421046084
| 27>  C        3.3268026523    -1.5550646824    -1.8402714920
| 28>  C        3.8407803893    -2.4141668771    -2.8837504452
| 29>  C        4.4949796862    -3.6937762899    -2.3327384622
| 30>  O        4.8458103303    -4.5600986674    -3.3704315217
| 31>  H        0.5285372647     0.5389140304     0.8794402103
| 32>  H        0.5755191798    -1.0019474976     0.2593486422
| 33>  H        0.5563381032     0.2884862044    -0.7631136220
| 34>  H        2.7308736162     1.0152390535     0.0119166152
| 35>  H        2.7518045615    -0.3776307535     1.1105001473
| 36>  H        3.0229561868    -2.7026434923    -3.5521029589
| 37>  H        4.5590240914    -1.8506264710    -3.4890178562
| 38>  H        5.3495851414    -3.4299047266    -1.6996013229
| 39>  H        3.7718790919    -4.2224402778    -1.7071267593
| 40>  H        5.7090285056    -4.3243857309    -3.7193342676
| 41> *
| 42>
| 43>                          ****END OF INPUT****
 Total Charge           Charge          ....    1
 Multiplicity           Mult            ....    1
 Number of Electrons    NEL             ....   54
FINAL SINGLE POINT ENERGY      -325.949947887140
FINAL SINGLE POINT ENERGY      -325.949949418984
FINAL SINGLE POINT ENERGY      -325.949951521043
FINAL SINGLE POINT ENERGY      -325.949952070275
FINAL SINGLE POINT ENERGY      -325.949952499370
FINAL SINGLE POINT ENERGY      -325.949952793100
FINAL SINGLE POINT ENERGY      -325.949952938236

CARTESIAN COORDINATES (ANGSTROEM)
---------------------------------
  N      1.006490    0.015997   -3.308037
  C     -0.243239   -0.506539   -2.618867
  C     -0.259820   -0.065819   -1.250078
  C     -0.282532    0.312267   -0.106961
  C     -0.310612    0.720540    1.279945
  C     -0.125291   -0.457520    2.252900
  O     -0.006394   -0.004466    3.568432
  H      1.058016   -0.277225   -4.286475
  H      1.840598   -0.319949   -2.820973
  H      1.024792    1.037805   -3.270898
  H     -1.092127   -0.130497   -3.194898
  H     -0.213993   -1.594686   -2.712822
  H      0.488519    1.447119    1.459560
  H     -1.256353    1.234698    1.481496
  H     -0.945824   -1.173330    2.128410
  H      0.804952   -0.976405    2.011030
  H     -0.876944    0.141563    3.947178

FINAL SINGLE POINT ENERGY      -325.949953053848
                    ***********************HURRAY********************
 Multiplicity           Mult            ....    1
 Number of Electrons    NEL             ....   54
 Basis Dimension        Dim             ....  277
FINAL SINGLE POINT ENERGY      -325.949953083721

VIBRATIONAL FREQUENCIES
-----------------------

   0:         0.00 cm**-1
   1:         0.00 cm**-1
   2:         0.00 cm**-1
   3:         0.00 cm**-1
   4:         0.00 cm**-1
   5:         0.00 cm**-1
   6:        16.42 cm**-1
   7:        77.28 cm**-1
   8:        94.58 cm**-1
   9:       136.26 cm**-1
  10:       200.73 cm**-1
  11:       252.21 cm**-1
  12:       282.05 cm**-1
  13:       345.72 cm**-1
  14:       386.33 cm**-1
  15:       503.45 cm**-1
  16:       521.95 cm**-1
  17:       765.82 cm**-1
  18:       778.41 cm**-1
  19:       857.01 cm**-1
  20:       884.61 cm**-1
  21:      1019.58 cm**-1
  22:      1034.95 cm**-1
  23:      1078.28 cm**-1
  24:      1103.18 cm**-1
  25:      1123.40 cm**-1
  26:      1168.54 cm**-1
  27:      1200.66 cm**-1
  28:      1285.49 cm**-1
  29:      1310.84 cm**-1
  30:      1324.87 cm**-1
  31:      1394.91 cm**-1
  32:      1402.80 cm**-1
  33:      1410.00 cm**-1
  34:      1447.75 cm**-1
  35:      1481.25 cm**-1
  36:      1500.32 cm**-1
  37:      1503.41 cm**-1
  38:      1644.56 cm**-1
  39:      1661.57 cm**-1
  40:      2360.01 cm**-1
  41:      3040.87 cm**-1
  42:      3056.33 cm**-1
  43:      3079.97 cm**-1
  44:      3092.27 cm**-1
  45:      3115.19 cm**-1
  46:      3128.66 cm**-1
  47:      3413.46 cm**-1
  48:      3501.42 cm**-1
  49:      3506.24 cm**-1
  50:      3867.94 cm**-1

IR SPECTRUM
-----------

 Mode    freq (cm**-1)   T**2         TX         TY         TZ
-------------------------------------------------------------------
   7:        77.28   14.857424  ( -0.982643  -2.509472  -2.755791)
   8:        94.58    2.575433  (  0.165961   1.407297  -0.753263)
   9:       136.26    8.483199  ( -2.103870  -1.082588  -1.698509)
  10:       200.73    3.734149  ( -1.233517   1.438791   0.377448)
  11:       252.21  126.120197  ( -1.470628  -9.825992   5.235200)
  12:       282.05   16.900900  ( -2.263837   3.418596  -0.298573)
  13:       345.72   20.302058  (  1.852336   2.204758  -3.465538)
  14:       386.33    0.497611  ( -0.414151   0.500103  -0.275657)
  15:       503.45    1.285056  (  0.944473  -0.502269  -0.375170)
  16:       521.95   15.679303  ( -2.633425  -0.697637   2.873617)
  17:       765.82    2.671190  ( -0.922413  -0.354473  -1.301804)
  18:       778.41    1.849984  ( -1.160765  -0.466542   0.533805)
  19:       857.01    8.793117  ( -1.433144   2.417083  -0.947060)
  20:       884.61   45.893326  ( -2.792605   0.391264   6.159675)
  21:      1019.58   10.079915  ( -0.350306  -1.979651   2.457271)
  22:      1034.95   57.663109  (  0.164848  -0.383862  -7.582123)
  23:      1078.28   37.691809  ( -2.346150  -2.711530  -4.983472)
  24:      1103.18    8.057538  ( -1.466129   1.797253  -1.636424)
  25:      1123.40  125.486815  (  0.401397   1.644815  11.073404)
  26:      1168.54    3.092292  ( -0.680431  -0.761831  -1.431404)
  27:      1200.66    9.555203  (  0.325482   0.614379   3.011943)
  28:      1285.49    9.820915  (  1.113255  -0.031196   2.929267)
  29:      1310.84   10.500501  (  0.542786   0.947762   3.050841)
  30:      1324.87    7.252783  ( -1.333839   2.290947  -0.474570)
  31:      1394.91   14.230801  (  0.805073   1.785786   3.223915)
  32:      1402.80  116.904602  (  0.776396  -1.406331 -10.692242)
  33:      1410.00    3.092661  ( -0.551292   1.558971   0.598622)
  34:      1447.75    9.757782  ( -0.123778   3.080609   0.502301)
  35:      1481.25    8.181741  (  1.017164   1.456377   2.241893)
  36:      1500.32  154.525197  (  9.737082   3.549759  -6.863939)
  37:      1503.41    4.293008  ( -0.795700  -1.798933   0.650931)
  38:      1644.56   52.079372  ( -3.600299   5.947833  -1.934037)
  39:      1661.57   36.921908  (  1.164262   2.365428   5.474591)
  40:      2360.01  202.817602  (  1.618750  -2.593560 -13.909374)
  41:      3040.87   24.837410  ( -1.699014  -4.385688  -1.648181)
  42:      3056.33    2.766139  (  0.220579   1.642255  -0.143115)
  43:      3079.97    5.567931  (  0.360098  -0.457098  -2.286771)
  44:      3092.27    3.327236  ( -1.762589   0.427901  -0.193435)
  45:      3115.19   12.638267  ( -3.300570   0.671714   1.137236)
  46:      3128.66    1.164393  (  0.540188  -0.887654   0.290966)
  47:      3413.46   44.563673  ( -4.931946  -1.765788   4.137822)
  48:      3501.42  104.592467  (  5.082075  -8.387063   2.902096)
  49:      3506.24   89.451528  ( -3.064409  -4.581855  -7.685540)
  50:      3867.94   72.706971  (  5.247570  -1.086812  -6.632407)

--------------------------
THERMOCHEMISTRY AT 298.15K
--------------------------

Temperature         ... 298.15 K
Pressure            ... 1.00 atm
Total Mass          ... 100.14 AMU

Throughout the following assumptions are being made:
  (1) The electronic state is orbitally nondegenerate
  (2) There are no thermally accessible electronically excited states
  (3) Hindered rotations indicated by low frequency modes) are not
      treated as such but are treated as vibrations and this may
      case some error
  (4) All equations used are the standard statistical mechanics
      equations for an ideal gas
  (5) All vibrations are strinctly harmonic

------------
INNER ENERGY
------------

The inner energy is: U= E(el) + E(ZPE) + E(vib) + E(rot) + E(trans)
    E(el)   - is the total energy from the electronic structure calculation
              = E(kin-el) + E(nuc-el) + E(el-el) + E(nuc-nuc)
    E(ZPE)  - the the zero temperature vibrational energy from the frequency calculation
    E(vib)  - the the finite temperature correction to E(ZPE) due to population
              of excietd vibrational states
    E(rot)  - is the rotational thermal energy
    E(trans)- is the translational thermal energy

Summary of contributions to the inner energy U:
Electronic energy                ...   -325.94995308 Eh
Zero point energy                ...      0.15114541 Eh      94.84 kcal/mol
Thermal vibrational correction   ...      0.00534905 Eh       3.36 kcal/mol
Thermal rotational correction    ...      0.00141627 Eh       0.89 kcal/mol
Thermal translational correction ...      0.00141627 Eh       0.89 kcal/mol
-----------------------------------------------------------------------
Total thermal energy                   -325.79062608 Eh

Summary of corrections to the electronic energy:
(perhaps to be used in another calculation)
Total thermal correction                  0.00818159 Eh       5.13 kcal/mol
Non-thermal (ZPE) correction              0.15114541 Eh      94.84 kcal/mol
-----------------------------------------------------------------------
Total correction                          0.15932700 Eh      99.98 kcal/mol

--------
ENTHALPY
--------

The enthalpy is H = U + kB*T
                kB is Boltzmann's constant
Total free energy                 ...   -325.79062608 Eh
Thermal Enthalpy correction       ...      0.00094421 Eh       0.59 kcal/mol
-----------------------------------------------------------------------
Total Enthalpy                    ...   -325.78968187 Eh

-------
ENTROPY
-------

The entropy contributions are T*S = T*(S(el)+S(vib)+S(rot)+S(trans)
     S(el)   - electronic entropy
     S(vib)  - vibrational entropy
     S(rot)  - rotational entropy
     S(trans)- translational entropy
The entropies will be listed as mutliplied by the temperature to get
units of energy

Electronic entropy                ...      0.00000000 Eh      0.00 kcal/mol
Vibrational entropy               ...      0.00979297 Eh      6.15 kcal/mol
Rotational entropy                ...      0.01239704 Eh      7.78 kcal/mol
Translational entropy             ...      0.01887324 Eh     11.84 kcal/mol
-----------------------------------------------------------------------
Final entropy term                ...      0.04106325 Eh     25.77 kcal/mol

CAUTION: The rotational entropy is not quite correctly treated here
         because it includes a symmetry number that is not yet correctly
         implemented in ORCA!
For a nonlinear molecule the correct rotational entropy is:
    S(rot) = R*(ln(qrot/sn)+1.5)
    R    = 8.31441 J/mol/K = 1.987191683e-3 kcal/mol/K
    qrot = 337240.9581873
    sn is the rotational symmetry number. We have assumed 3 here
       if it is different for your molecule then you should correct
       the printed rotational entropy by manually evaluating the equation
       as given above

For convenience we print out the resulting values for sn=1 - 12:
 sn= 1  qrot/sn=  337240.9582 T*S(rot)=     8.43 kcal/mol T*S(tot)=    26.42 kcal/mol
 sn= 2  qrot/sn=  168620.4791 T*S(rot)=     8.02 kcal/mol T*S(tot)=    26.01 kcal/mol
 sn= 3  qrot/sn=  112413.6527 T*S(rot)=     7.78 kcal/mol T*S(tot)=    25.77 kcal/mol
 sn= 4  qrot/sn=   84310.2395 T*S(rot)=     7.61 kcal/mol T*S(tot)=    25.60 kcal/mol
 sn= 5  qrot/sn=   67448.1916 T*S(rot)=     7.48 kcal/mol T*S(tot)=    25.46 kcal/mol
 sn= 6  qrot/sn=   56206.8264 T*S(rot)=     7.37 kcal/mol T*S(tot)=    25.36 kcal/mol
 sn= 7  qrot/sn=   48177.2797 T*S(rot)=     7.28 kcal/mol T*S(tot)=    25.27 kcal/mol
 sn= 8  qrot/sn=   42155.1198 T*S(rot)=     7.20 kcal/mol T*S(tot)=    25.19 kcal/mol
 sn= 9  qrot/sn=   37471.2176 T*S(rot)=     7.13 kcal/mol T*S(tot)=    25.12 kcal/mol
 sn=10  qrot/sn=   33724.0958 T*S(rot)=     7.07 kcal/mol T*S(tot)=    25.05 kcal/mol
 sn=11  qrot/sn=   30658.2689 T*S(rot)=     7.01 kcal/mol T*S(tot)=    25.00 kcal/mol
 sn=12  qrot/sn=   28103.4132 T*S(rot)=     6.96 kcal/mol T*S(tot)=    24.95 kcal/mol

-------------------
GIBBS FREE ENTHALPY
-------------------

The Gibbs free enthalpy is G = H - T*S

Total enthalpy                    ...   -325.78968187 Eh
Total entropy correction          ...     -0.04106325 Eh    -25.77 kcal/mol
-----------------------------------------------------------------------
Final Gibbs free enthalpy         ...   -325.83074512 Eh

For completeness - the Gibbs free enthalpy minus the electronic energy
G-E(el)                           ...      0.11920796 Eh     74.80 kcal/mol

                             ****ORCA TERMINATED NORMALLY****
TOTAL RUN TIME: 0 days 0 hours 35 minutes 10 seconds 872 msec
