                         Program Version 3.0.3 - RELEASE   -
|  1> ! NORI PBE0 def2-TZVP UseSym TightOPT Freq TightSCF Grid3 FinalGrid5 XYZFile
|  2> % pal
|  3>     nprocs 8
|  4> end
|  5> %method
|  6>     SymThresh 5.0e-2
|  7> end
|  8> % geom
|  9>     MaxIter 10
| 10> end
| 11> % maxcore 2000
| 12> % output
| 13>     printlevel mini
| 14>     print[ P_Basis ] 0
| 15>     print[ P_SCFInfo ] 1
| 16>     print[ P_SCFIterInfo ] 1
| 17>     print[ P_OrbEn ] 0
| 18>     print[ P_Cartesian ] 0
| 19> end
| 20> % elprop
| 21>     Dipole false
| 22> end
| 23> *xyz 1 1
| 24>  N        0.8463904506     0.0105846841    -0.1522789844
| 25>  C        2.3534554693     0.0980916775    -0.1054514321
| 26>  C        2.9578360779    -1.2431784918     0.2608676531
| 27>  C        4.4542678405    -1.1729822659     0.2373068080
| 28>  C        5.2182253716    -1.3407139390     1.3097116495
| 29>  C        6.7126790397    -1.3243919581     1.3055900329
| 30>  O        7.2288777402    -0.4744058960     2.3011865996
| 31>  H        0.4186326000     0.9054753135    -0.3986491725
| 32>  H        0.4707797101    -0.2766634281     0.7542602358
| 33>  H        0.5432919656    -0.6823725393    -0.8402614758
| 34>  H        2.5979696219     0.8678477811     0.6269213682
| 35>  H        2.6719109059     0.4386060608    -1.0915028424
| 36>  H        2.6117859895    -2.0047351982    -0.4508925211
| 37>  H        2.6202084327    -1.5464916960     1.2572059459
| 38>  H        4.9166823218    -1.0005206076    -0.7333078727
| 39>  H        4.7628658028    -1.5174943594     2.2834169351
| 40>  H        7.0927604251    -1.0748556229     0.3069527944
| 41>  H        7.0797687545    -2.3260929190     1.5498591996
| 42>  H        7.0914914804     0.4387534041     2.0362850790
| 43> *
| 44>
| 45>                          ****END OF INPUT****
 Total Charge           Charge          ....    1
 Multiplicity           Mult            ....    1
 Number of Electrons    NEL             ....   56
FINAL SINGLE POINT ENERGY      -327.197208710844

CARTESIAN COORDINATES (ANGSTROEM)
---------------------------------
  N      1.257232   -0.000581   -3.343337
  C      0.852607   -0.510905   -1.980466
  C     -0.231253    0.363045   -1.380567
  C     -0.682281   -0.185469   -0.061248
  C     -0.528323    0.449821    1.093957
  C     -1.009852   -0.052964    2.416496
  O     -0.000244    0.001344    3.395581
  H      1.987353   -0.577107   -3.766534
  H      1.610494    0.956982   -3.282420
  H      0.457198    0.010513   -3.980017
  H      1.755438   -0.516042   -1.369219
  H      0.520368   -1.539963   -2.124041
  H     -1.083274    0.411879   -2.072241
  H      0.142125    1.383515   -1.245700
  H     -1.186366   -1.150287   -0.083722
  H     -0.028661    1.417333    1.123838
  H     -1.437472   -1.058408    2.314217
  H     -1.808733    0.602745    2.776380
  H      0.642087   -0.691838    3.223018

FINAL SINGLE POINT ENERGY      -327.197209542509
                    ***********************HURRAY********************
 Multiplicity           Mult            ....    1
 Number of Electrons    NEL             ....   56
 Basis Dimension        Dim             ....  289
FINAL SINGLE POINT ENERGY      -327.197209875620

VIBRATIONAL FREQUENCIES
-----------------------

   0:         0.00 cm**-1
   1:         0.00 cm**-1
   2:         0.00 cm**-1
   3:         0.00 cm**-1
   4:         0.00 cm**-1
   5:         0.00 cm**-1
   6:        51.84 cm**-1
   7:        81.83 cm**-1
   8:       129.68 cm**-1
   9:       133.31 cm**-1
  10:       213.85 cm**-1
  11:       222.62 cm**-1
  12:       293.83 cm**-1
  13:       321.81 cm**-1
  14:       368.04 cm**-1
  15:       469.32 cm**-1
  16:       535.35 cm**-1
  17:       776.65 cm**-1
  18:       819.59 cm**-1
  19:       896.82 cm**-1
  20:       902.56 cm**-1
  21:       948.45 cm**-1
  22:       974.64 cm**-1
  23:      1015.57 cm**-1
  24:      1041.28 cm**-1
  25:      1078.41 cm**-1
  26:      1110.20 cm**-1
  27:      1134.48 cm**-1
  28:      1153.04 cm**-1
  29:      1214.77 cm**-1
  30:      1278.20 cm**-1
  31:      1310.40 cm**-1
  32:      1325.06 cm**-1
  33:      1343.14 cm**-1
  34:      1350.13 cm**-1
  35:      1387.37 cm**-1
  36:      1403.95 cm**-1
  37:      1409.34 cm**-1
  38:      1472.45 cm**-1
  39:      1483.56 cm**-1
  40:      1498.09 cm**-1
  41:      1506.02 cm**-1
  42:      1657.39 cm**-1
  43:      1663.70 cm**-1
  44:      1745.56 cm**-1
  45:      3018.72 cm**-1
  46:      3028.11 cm**-1
  47:      3081.10 cm**-1
  48:      3087.01 cm**-1
  49:      3101.87 cm**-1
  50:      3147.91 cm**-1
  51:      3153.72 cm**-1
  52:      3163.70 cm**-1
  53:      3421.11 cm**-1
  54:      3502.06 cm**-1
  55:      3508.48 cm**-1
  56:      3863.36 cm**-1

IR SPECTRUM
-----------

 Mode    freq (cm**-1)   T**2         TX         TY         TZ
-------------------------------------------------------------------
   6:        51.84    3.236033  ( -0.265405   0.231332  -1.764109)
   7:        81.83    6.634465  ( -1.519752  -1.036566  -1.802873)
   8:       129.68    9.885724  ( -1.957464   2.051117  -1.359036)
   9:       133.31    2.210293  (  1.084686   0.124502  -1.009083)
  10:       213.85   13.275483  ( -2.284658  -1.497215   2.411259)
  11:       222.62    0.143873  (  0.105843   0.180552  -0.316340)
  12:       293.83   47.152349  ( -2.333303  -5.527134   3.340484)
  13:       321.81   83.509481  ( -3.845342  -4.742847   6.799135)
  14:       368.04    3.822271  ( -1.406881   1.053116   0.856681)
  15:       469.32    4.738397  (  1.297740   0.989068  -1.440838)
  16:       535.35    5.664337  ( -2.050525   0.545055   1.078238)
  17:       776.65    7.658682  (  1.357202   1.666983   1.742944)
  18:       819.59    4.764498  (  1.558985   0.166661   1.518646)
  19:       896.82   28.657714  ( -3.846559   1.871311   3.218679)
  20:       902.56   12.710586  (  3.493273   0.707638  -0.082930)
  21:       948.45    6.287117  (  0.346403  -0.352093  -2.458282)
  22:       974.64    6.476383  ( -0.048753   2.524252  -0.319620)
  23:      1015.57   54.696795  ( -6.506943   2.173999  -2.762286)
  24:      1041.28   33.986537  (  0.136386   1.800442   5.543135)
  25:      1078.41   47.592822  (  4.311000  -0.170075   5.383231)
  26:      1110.20   54.168305  ( -3.732120   0.943564  -6.272900)
  27:      1134.48    8.289981  ( -2.584022   1.191389   0.439776)
  28:      1153.04    5.087012  ( -0.938342   1.882287   0.814569)
  29:      1214.77   10.455699  (  2.378953   1.415673   1.670973)
  30:      1278.20    1.313573  (  0.953383   0.052309   0.633953)
  31:      1310.40    6.120489  ( -1.416709   0.395524   1.989217)
  32:      1325.06    4.410785  (  0.152989   1.115167   1.773071)
  33:      1343.14    1.711793  ( -0.323735  -1.263578  -0.101780)
  34:      1350.13    4.660574  ( -1.618260  -1.248095  -0.695751)
  35:      1387.37    8.702749  ( -1.384212   0.220614  -2.595773)
  36:      1403.95   46.571036  ( -1.535746  -0.562501  -6.625414)
  37:      1409.34    8.761727  (  2.516872   1.105087   1.098118)
  38:      1472.45    1.267360  ( -0.212379  -1.051062  -0.342818)
  39:      1483.56    4.351837  (  1.692271   0.999647  -0.699115)
  40:      1498.09   16.965039  (  2.809175  -2.384700  -1.840321)
  41:      1506.02  156.089299  (  3.120954   4.278434 -11.315650)
  42:      1657.39   52.747460  (  4.598028   4.616315   3.208618)
  43:      1663.70   38.360900  (  4.665411  -4.023086  -0.640019)
  44:      1745.56    2.271751  (  1.036551  -0.388937  -1.022761)
  45:      3018.72   20.972258  (  0.459904  -1.460724   4.315904)
  46:      3028.11   30.808418  ( -4.407981  -3.266805  -0.840303)
  47:      3081.10    4.393799  (  1.287226   1.625384   0.308181)
  48:      3087.01    6.626856  ( -0.922279   2.402662  -0.058941)
  49:      3101.87    1.629247  (  0.616728  -1.116034  -0.057979)
  50:      3147.91    0.045980  ( -0.101395   0.093011  -0.164462)
  51:      3153.72   12.357544  ( -1.623526  -2.977546   0.925163)
  52:      3163.70    0.784030  ( -0.552711  -0.673664  -0.157216)
  53:      3421.11   53.759315  (  2.264169   1.545160  -6.800392)
  54:      3502.06   91.333402  ( -6.959781  -5.291657  -3.859172)
  55:      3508.48  101.606367  (  6.586816  -7.493095  -1.440054)
  56:      3863.36   37.397128  (  4.559900  -3.582436   1.941801)

--------------------------
THERMOCHEMISTRY AT 298.15K
--------------------------

Temperature         ... 298.15 K
Pressure            ... 1.00 atm
Total Mass          ... 102.16 AMU

Throughout the following assumptions are being made:
  (1) The electronic state is orbitally nondegenerate
  (2) There are no thermally accessible electronically excited states
  (3) Hindered rotations indicated by low frequency modes) are not
      treated as such but are treated as vibrations and this may
      case some error
  (4) All equations used are the standard statistical mechanics
      equations for an ideal gas
  (5) All vibrations are strinctly harmonic

------------
INNER ENERGY
------------

The inner energy is: U= E(el) + E(ZPE) + E(vib) + E(rot) + E(trans)
    E(el)   - is the total energy from the electronic structure calculation
              = E(kin-el) + E(nuc-el) + E(el-el) + E(nuc-nuc)
    E(ZPE)  - the the zero temperature vibrational energy from the frequency calculation
    E(vib)  - the the finite temperature correction to E(ZPE) due to population
              of excietd vibrational states
    E(rot)  - is the rotational thermal energy
    E(trans)- is the translational thermal energy

Summary of contributions to the inner energy U:
Electronic energy                ...   -327.19720988 Eh
Zero point energy                ...      0.17496205 Eh     109.79 kcal/mol
Thermal vibrational correction   ...      0.00625742 Eh       3.93 kcal/mol
Thermal rotational correction    ...      0.00141627 Eh       0.89 kcal/mol
Thermal translational correction ...      0.00141627 Eh       0.89 kcal/mol
-----------------------------------------------------------------------
Total thermal energy                   -327.01315786 Eh

Summary of corrections to the electronic energy:
(perhaps to be used in another calculation)
Total thermal correction                  0.00908997 Eh       5.70 kcal/mol
Non-thermal (ZPE) correction              0.17496205 Eh     109.79 kcal/mol
-----------------------------------------------------------------------
Total correction                          0.18405202 Eh     115.49 kcal/mol

--------
ENTHALPY
--------

The enthalpy is H = U + kB*T
                kB is Boltzmann's constant
Total free energy                 ...   -327.01315786 Eh
Thermal Enthalpy correction       ...      0.00094421 Eh       0.59 kcal/mol
-----------------------------------------------------------------------
Total Enthalpy                    ...   -327.01221365 Eh

-------
ENTROPY
-------

The entropy contributions are T*S = T*(S(el)+S(vib)+S(rot)+S(trans)
     S(el)   - electronic entropy
     S(vib)  - vibrational entropy
     S(rot)  - rotational entropy
     S(trans)- translational entropy
The entropies will be listed as mutliplied by the temperature to get
units of energy

Electronic entropy                ...      0.00000000 Eh      0.00 kcal/mol
Vibrational entropy               ...      0.01194732 Eh      7.50 kcal/mol
Rotational entropy                ...      0.01247402 Eh      7.83 kcal/mol
Translational entropy             ...      0.01890147 Eh     11.86 kcal/mol
-----------------------------------------------------------------------
Final entropy term                ...      0.04332281 Eh     27.19 kcal/mol

CAUTION: The rotational entropy is not quite correctly treated here
         because it includes a symmetry number that is not yet correctly
         implemented in ORCA!
For a nonlinear molecule the correct rotational entropy is:
    S(rot) = R*(ln(qrot/sn)+1.5)
    R    = 8.31441 J/mol/K = 1.987191683e-3 kcal/mol/K
    qrot = 365888.5829140
    sn is the rotational symmetry number. We have assumed 3 here
       if it is different for your molecule then you should correct
       the printed rotational entropy by manually evaluating the equation
       as given above

For convenience we print out the resulting values for sn=1 - 12:
 sn= 1  qrot/sn=  365888.5829 T*S(rot)=     8.48 kcal/mol T*S(tot)=    27.84 kcal/mol
 sn= 2  qrot/sn=  182944.2915 T*S(rot)=     8.07 kcal/mol T*S(tot)=    27.43 kcal/mol
 sn= 3  qrot/sn=  121962.8610 T*S(rot)=     7.83 kcal/mol T*S(tot)=    27.19 kcal/mol
 sn= 4  qrot/sn=   91472.1457 T*S(rot)=     7.66 kcal/mol T*S(tot)=    27.01 kcal/mol
 sn= 5  qrot/sn=   73177.7166 T*S(rot)=     7.52 kcal/mol T*S(tot)=    26.88 kcal/mol
 sn= 6  qrot/sn=   60981.4305 T*S(rot)=     7.42 kcal/mol T*S(tot)=    26.77 kcal/mol
 sn= 7  qrot/sn=   52269.7976 T*S(rot)=     7.33 kcal/mol T*S(tot)=    26.68 kcal/mol
 sn= 8  qrot/sn=   45736.0729 T*S(rot)=     7.25 kcal/mol T*S(tot)=    26.60 kcal/mol
 sn= 9  qrot/sn=   40654.2870 T*S(rot)=     7.18 kcal/mol T*S(tot)=    26.53 kcal/mol
 sn=10  qrot/sn=   36588.8583 T*S(rot)=     7.11 kcal/mol T*S(tot)=    26.47 kcal/mol
 sn=11  qrot/sn=   33262.5984 T*S(rot)=     7.06 kcal/mol T*S(tot)=    26.42 kcal/mol
 sn=12  qrot/sn=   30490.7152 T*S(rot)=     7.01 kcal/mol T*S(tot)=    26.36 kcal/mol

-------------------
GIBBS FREE ENTHALPY
-------------------

The Gibbs free enthalpy is G = H - T*S

Total enthalpy                    ...   -327.01221365 Eh
Total entropy correction          ...     -0.04332281 Eh    -27.19 kcal/mol
-----------------------------------------------------------------------
Final Gibbs free enthalpy         ...   -327.05553646 Eh

For completeness - the Gibbs free enthalpy minus the electronic energy
G-E(el)                           ...      0.14167342 Eh     88.90 kcal/mol

                             ****ORCA TERMINATED NORMALLY****
TOTAL RUN TIME: 0 days 0 hours 33 minutes 50 seconds 453 msec
