                         Program Version 3.0.3 - RELEASE   -
|  1> ! NORI PBE0 def2-TZVP UseSym TightOPT Freq TightSCF Grid3 FinalGrid5 XYZFile
|  2> % pal
|  3>     nprocs 8
|  4> end
|  5> %method
|  6>     SymThresh 5.0e-2
|  7> end
|  8> % geom
|  9>     MaxIter 10
| 10> end
| 11> % maxcore 2000
| 12> % output
| 13>     printlevel mini
| 14>     print[ P_Basis ] 0
| 15>     print[ P_SCFInfo ] 1
| 16>     print[ P_SCFIterInfo ] 1
| 17>     print[ P_OrbEn ] 0
| 18>     print[ P_Cartesian ] 0
| 19> end
| 20> % elprop
| 21>     Dipole false
| 22> end
| 23> *xyz 1 1
| 24>  N        0.6901155552     0.1313099486    -0.0343146540
| 25>  C        2.0821020755    -0.3792986975     0.2613008722
| 26>  C        2.9720111528    -0.2444357118    -0.9592668835
| 27>  C        4.3432821835    -0.8111533198    -0.6865357561
| 28>  C        5.3403881433    -0.0459574039    -0.2643513448
| 29>  C        4.4963621266    -2.2859816056    -0.9556158504
| 30>  O        5.7438760641    -2.8118146841    -0.6317010870
| 31>  H        0.0789353618     0.0679515124     0.7826803475
| 32>  H        0.2582370096    -0.4023054926    -0.7920039829
| 33>  H        0.7190532718     1.1099662403    -0.3296692269
| 34>  H        2.4564909377     0.2091617106     1.0989481848
| 35>  H        1.9658622064    -1.4142774781     0.5832910388
| 36>  H        2.5173266723    -0.7715660438    -1.8081119625
| 37>  H        3.0591032120     0.8107693051    -1.2366306106
| 38>  H        5.2200163589     1.0209769684    -0.1088117178
| 39>  H        6.3232868395    -0.4657014001    -0.0899075822
| 40>  H        3.6801638019    -2.8412329356    -0.4627330796
| 41>  H        4.3627648443    -2.4540524063    -2.0314077683
| 42>  H        5.8334021828    -2.8770985062     0.3231010633
| 43> *
| 44>
| 45>                          ****END OF INPUT****
 Total Charge           Charge          ....    1
 Multiplicity           Mult            ....    1
 Number of Electrons    NEL             ....   56
FINAL SINGLE POINT ENERGY      -327.195033889090
FINAL SINGLE POINT ENERGY      -327.195035608047

CARTESIAN COORDINATES (ANGSTROEM)
---------------------------------
  N      1.143614   -0.002674   -2.927994
  C      0.695297   -0.483182   -1.566851
  C     -0.212055    0.538762   -0.910337
  C     -0.609828    0.087611    0.473358
  C     -1.730069   -0.588215    0.688461
  C      0.335449    0.485499    1.577330
  O      0.003082   -0.006099    2.836619
  H      1.742017   -0.686118   -3.396439
  H      1.666198    0.872823   -2.852849
  H      0.338138    0.175198   -3.532283
  H      0.183300   -1.432241   -1.726298
  H      1.603920   -0.666220   -0.992510
  H      0.304233    1.505967   -0.849081
  H     -1.108260    0.682692   -1.521729
  H     -2.415809   -0.833963   -0.115107
  H     -2.009844   -0.889712    1.690319
  H      1.369371    0.219428    1.296819
  H      0.323742    1.579060    1.661580
  H      0.192972   -0.947367    2.880296

FINAL SINGLE POINT ENERGY      -327.195036555010
                    ***********************HURRAY********************
 Multiplicity           Mult            ....    1
 Number of Electrons    NEL             ....   56
 Basis Dimension        Dim             ....  289
FINAL SINGLE POINT ENERGY      -327.195036857662

VIBRATIONAL FREQUENCIES
-----------------------

   0:         0.00 cm**-1
   1:         0.00 cm**-1
   2:         0.00 cm**-1
   3:         0.00 cm**-1
   4:         0.00 cm**-1
   5:         0.00 cm**-1
   6:        56.06 cm**-1
   7:        79.68 cm**-1
   8:        97.15 cm**-1
   9:       198.49 cm**-1
  10:       221.57 cm**-1
  11:       258.15 cm**-1
  12:       275.41 cm**-1
  13:       330.59 cm**-1
  14:       376.15 cm**-1
  15:       490.80 cm**-1
  16:       592.70 cm**-1
  17:       736.35 cm**-1
  18:       769.19 cm**-1
  19:       856.23 cm**-1
  20:       892.90 cm**-1
  21:       917.72 cm**-1
  22:       950.25 cm**-1
  23:       968.63 cm**-1
  24:       988.78 cm**-1
  25:      1003.93 cm**-1
  26:      1076.69 cm**-1
  27:      1139.68 cm**-1
  28:      1151.43 cm**-1
  29:      1217.27 cm**-1
  30:      1252.72 cm**-1
  31:      1300.30 cm**-1
  32:      1338.77 cm**-1
  33:      1347.52 cm**-1
  34:      1388.17 cm**-1
  35:      1404.56 cm**-1
  36:      1410.69 cm**-1
  37:      1436.12 cm**-1
  38:      1474.07 cm**-1
  39:      1479.23 cm**-1
  40:      1498.16 cm**-1
  41:      1505.97 cm**-1
  42:      1657.15 cm**-1
  43:      1663.44 cm**-1
  44:      1737.03 cm**-1
  45:      2957.32 cm**-1
  46:      3026.85 cm**-1
  47:      3052.99 cm**-1
  48:      3087.07 cm**-1
  49:      3105.76 cm**-1
  50:      3164.30 cm**-1
  51:      3167.32 cm**-1
  52:      3257.13 cm**-1
  53:      3420.86 cm**-1
  54:      3502.12 cm**-1
  55:      3508.12 cm**-1
  56:      3857.25 cm**-1

IR SPECTRUM
-----------

 Mode    freq (cm**-1)   T**2         TX         TY         TZ
-------------------------------------------------------------------
   6:        56.06    0.246694  ( -0.159321   0.095051   0.460734)
   7:        79.68    2.707709  ( -1.123816  -0.675009  -0.994540)
   8:        97.15    2.805537  (  0.943040   0.544163   1.272831)
   9:       198.49    8.593894  (  0.776339  -2.259034   1.699399)
  10:       221.57    0.434061  (  0.237892   0.531932  -0.307436)
  11:       258.15   40.529877  ( -6.188617  -0.276291  -1.467840)
  12:       275.41   86.818387  (  7.844433   0.186300   5.024794)
  13:       330.59   16.104893  ( -0.603033  -1.007227  -3.837543)
  14:       376.15    0.373729  (  0.078834  -0.042598   0.604731)
  15:       490.80   12.130752  (  2.366087  -2.205745  -1.291151)
  16:       592.70    7.752935  ( -2.685537   0.698879  -0.228897)
  17:       736.35    0.494566  ( -0.364071  -0.595022   0.089260)
  18:       769.19    7.505844  ( -1.878747  -1.193518  -1.597394)
  19:       856.23    3.859835  ( -1.589073   0.899430   0.725058)
  20:       892.90   31.756716  ( -3.267684   1.805462   4.221287)
  21:       917.72    6.050882  (  1.494392   1.719191   0.928471)
  22:       950.25    2.830254  (  0.346490  -1.296988  -1.013913)
  23:       968.63   47.471719  ( -2.486347   6.032624  -2.212973)
  24:       988.78   14.052824  (  0.509317  -0.955102  -3.589039)
  25:      1003.93    4.955208  ( -0.014982   1.263302   1.832772)
  26:      1076.69   12.415933  ( -2.219287  -0.752781   2.631353)
  27:      1139.68   48.328264  ( -2.350150   1.011644   6.463871)
  28:      1151.43   73.783243  (  0.208808  -2.694079   8.153624)
  29:      1217.27   15.072630  (  1.901855   0.327302  -3.368746)
  30:      1252.72    2.169008  (  0.502190   1.204486   0.682662)
  31:      1300.30    0.118809  (  0.282341  -0.133579  -0.145771)
  32:      1338.77    1.098211  (  0.682758  -0.787976   0.105576)
  33:      1347.52    4.959115  ( -1.664120  -0.708043  -1.299421)
  34:      1388.17    7.931990  (  0.227391   1.034891  -2.609460)
  35:      1404.56   26.815011  ( -1.341637  -1.172498   4.862126)
  36:      1410.69    8.585375  (  0.352379  -0.997922   2.732280)
  37:      1436.12    9.358390  ( -2.727410  -1.295726  -0.490629)
  38:      1474.07    0.868508  (  0.726135   0.548788   0.200170)
  39:      1479.23    7.755506  (  2.247795   0.758704   1.458524)
  40:      1498.16   18.686875  ( -2.948290   2.440621   2.009436)
  41:      1505.97  153.561997  ( -3.285098  -4.143882  11.207068)
  42:      1657.15   51.750028  ( -5.809548  -2.959884  -3.039451)
  43:      1663.44   37.982839  ( -3.197002   5.135816   1.177032)
  44:      1737.03    7.388628  ( -2.203999  -1.589161  -0.074739)
  45:      2957.32   59.009415  (  6.569017   0.385906  -3.963397)
  46:      3026.85   17.722435  (  1.627293   2.771871  -2.718655)
  47:      3052.99   10.178218  ( -0.327020   3.002105  -1.028903)
  48:      3087.07    5.622617  ( -1.474624  -0.712368  -1.714828)
  49:      3105.76    1.620464  (  0.939221  -0.851752   0.113348)
  50:      3164.30    3.503635  ( -0.515170  -0.097406  -1.796871)
  51:      3167.32    0.472414  (  0.595202   0.086023   0.332789)
  52:      3257.13    0.480337  ( -0.644782  -0.174872  -0.184428)
  53:      3420.86   51.423087  (  2.565181   1.538518  -6.517353)
  54:      3502.12   90.492675  ( -8.366992  -2.804240  -3.552795)
  55:      3508.12  100.665894  (  4.152811  -8.851348  -2.252486)
  56:      3857.25   49.027153  (  1.254573  -5.828846   3.671206)

--------------------------
THERMOCHEMISTRY AT 298.15K
--------------------------

Temperature         ... 298.15 K
Pressure            ... 1.00 atm
Total Mass          ... 102.16 AMU

Throughout the following assumptions are being made:
  (1) The electronic state is orbitally nondegenerate
  (2) There are no thermally accessible electronically excited states
  (3) Hindered rotations indicated by low frequency modes) are not
      treated as such but are treated as vibrations and this may
      case some error
  (4) All equations used are the standard statistical mechanics
      equations for an ideal gas
  (5) All vibrations are strinctly harmonic

------------
INNER ENERGY
------------

The inner energy is: U= E(el) + E(ZPE) + E(vib) + E(rot) + E(trans)
    E(el)   - is the total energy from the electronic structure calculation
              = E(kin-el) + E(nuc-el) + E(el-el) + E(nuc-nuc)
    E(ZPE)  - the the zero temperature vibrational energy from the frequency calculation
    E(vib)  - the the finite temperature correction to E(ZPE) due to population
              of excietd vibrational states
    E(rot)  - is the rotational thermal energy
    E(trans)- is the translational thermal energy

Summary of contributions to the inner energy U:
Electronic energy                ...   -327.19503686 Eh
Zero point energy                ...      0.17461424 Eh     109.57 kcal/mol
Thermal vibrational correction   ...      0.00616759 Eh       3.87 kcal/mol
Thermal rotational correction    ...      0.00141627 Eh       0.89 kcal/mol
Thermal translational correction ...      0.00141627 Eh       0.89 kcal/mol
-----------------------------------------------------------------------
Total thermal energy                   -327.01142249 Eh

Summary of corrections to the electronic energy:
(perhaps to be used in another calculation)
Total thermal correction                  0.00900013 Eh       5.65 kcal/mol
Non-thermal (ZPE) correction              0.17461424 Eh     109.57 kcal/mol
-----------------------------------------------------------------------
Total correction                          0.18361437 Eh     115.22 kcal/mol

--------
ENTHALPY
--------

The enthalpy is H = U + kB*T
                kB is Boltzmann's constant
Total free energy                 ...   -327.01142249 Eh
Thermal Enthalpy correction       ...      0.00094421 Eh       0.59 kcal/mol
-----------------------------------------------------------------------
Total Enthalpy                    ...   -327.01047828 Eh

-------
ENTROPY
-------

The entropy contributions are T*S = T*(S(el)+S(vib)+S(rot)+S(trans)
     S(el)   - electronic entropy
     S(vib)  - vibrational entropy
     S(rot)  - rotational entropy
     S(trans)- translational entropy
The entropies will be listed as mutliplied by the temperature to get
units of energy

Electronic entropy                ...      0.00000000 Eh      0.00 kcal/mol
Vibrational entropy               ...      0.01168237 Eh      7.33 kcal/mol
Rotational entropy                ...      0.01237212 Eh      7.76 kcal/mol
Translational entropy             ...      0.01890147 Eh     11.86 kcal/mol
-----------------------------------------------------------------------
Final entropy term                ...      0.04295595 Eh     26.96 kcal/mol

CAUTION: The rotational entropy is not quite correctly treated here
         because it includes a symmetry number that is not yet correctly
         implemented in ORCA!
For a nonlinear molecule the correct rotational entropy is:
    S(rot) = R*(ln(qrot/sn)+1.5)
    R    = 8.31441 J/mol/K = 1.987191683e-3 kcal/mol/K
    qrot = 328454.9500626
    sn is the rotational symmetry number. We have assumed 3 here
       if it is different for your molecule then you should correct
       the printed rotational entropy by manually evaluating the equation
       as given above

For convenience we print out the resulting values for sn=1 - 12:
 sn= 1  qrot/sn=  328454.9501 T*S(rot)=     8.41 kcal/mol T*S(tot)=    27.61 kcal/mol
 sn= 2  qrot/sn=  164227.4750 T*S(rot)=     8.00 kcal/mol T*S(tot)=    27.20 kcal/mol
 sn= 3  qrot/sn=  109484.9834 T*S(rot)=     7.76 kcal/mol T*S(tot)=    26.96 kcal/mol
 sn= 4  qrot/sn=   82113.7375 T*S(rot)=     7.59 kcal/mol T*S(tot)=    26.78 kcal/mol
 sn= 5  qrot/sn=   65690.9900 T*S(rot)=     7.46 kcal/mol T*S(tot)=    26.65 kcal/mol
 sn= 6  qrot/sn=   54742.4917 T*S(rot)=     7.35 kcal/mol T*S(tot)=    26.54 kcal/mol
 sn= 7  qrot/sn=   46922.1357 T*S(rot)=     7.26 kcal/mol T*S(tot)=    26.45 kcal/mol
 sn= 8  qrot/sn=   41056.8688 T*S(rot)=     7.18 kcal/mol T*S(tot)=    26.37 kcal/mol
 sn= 9  qrot/sn=   36494.9945 T*S(rot)=     7.11 kcal/mol T*S(tot)=    26.30 kcal/mol
 sn=10  qrot/sn=   32845.4950 T*S(rot)=     7.05 kcal/mol T*S(tot)=    26.24 kcal/mol
 sn=11  qrot/sn=   29859.5409 T*S(rot)=     6.99 kcal/mol T*S(tot)=    26.19 kcal/mol
 sn=12  qrot/sn=   27371.2458 T*S(rot)=     6.94 kcal/mol T*S(tot)=    26.13 kcal/mol

-------------------
GIBBS FREE ENTHALPY
-------------------

The Gibbs free enthalpy is G = H - T*S

Total enthalpy                    ...   -327.01047828 Eh
Total entropy correction          ...     -0.04295595 Eh    -26.96 kcal/mol
-----------------------------------------------------------------------
Final Gibbs free enthalpy         ...   -327.05343423 Eh

For completeness - the Gibbs free enthalpy minus the electronic energy
G-E(el)                           ...      0.14160263 Eh     88.86 kcal/mol

                             ****ORCA TERMINATED NORMALLY****
TOTAL RUN TIME: 0 days 0 hours 40 minutes 4 seconds 294 msec
