                         Program Version 3.0.3 - RELEASE   -
|  1> ! NORI PBE0 def2-TZVP UseSym TightOPT Freq TightSCF Grid3 FinalGrid5 XYZFile
|  2> % pal
|  3>     nprocs 8
|  4> end
|  5> %method
|  6>     SymThresh 5.0e-2
|  7> end
|  8> % geom
|  9>     MaxIter 10
| 10> end
| 11> % maxcore 2000
| 12> % output
| 13>     printlevel mini
| 14>     print[ P_Basis ] 0
| 15>     print[ P_SCFInfo ] 1
| 16>     print[ P_SCFIterInfo ] 1
| 17>     print[ P_OrbEn ] 0
| 18>     print[ P_Cartesian ] 0
| 19> end
| 20> % elprop
| 21>     Dipole false
| 22> end
| 23> *xyz 1 1
| 24>  N        0.9686461486    -0.2085560926     0.0122837982
| 25>  C        2.4756962219    -0.2050608118     0.0863001862
| 26>  C        2.9474786828     0.1100125907     1.4970745375
| 27>  C        4.3970177421     0.0987537763     1.5320777624
| 28>  C        5.5983816490     0.0693964075     1.5030497187
| 29>  C        7.0607946748     0.0067744169     1.4914298130
| 30>  O        7.5562187855    -1.3051385836     1.5335650132
| 31>  H        0.6411783356    -0.4202970882    -0.9324706989
| 32>  H        0.5838639655     0.7007600385     0.2783514173
| 33>  H        0.5698155706    -0.9072064906     0.6434253845
| 34>  H        2.8248261921     0.5390918283    -0.6289901926
| 35>  H        2.8105312880    -1.1902315309    -0.2370394830
| 36>  H        2.5508161487    -0.6297890449     2.2039815334
| 37>  H        2.5722619902     1.0914116196     1.8135132615
| 38>  H        7.4470084839     0.6266352506     2.3109611318
| 39>  H        7.4263770938     0.4497506817     0.5612863595
| 40>  H        7.4173270269    -1.6662669675     2.4134904573
| 41> *
| 42>
| 43>                          ****END OF INPUT****
 Total Charge           Charge          ....    1
 Multiplicity           Mult            ....    1
 Number of Electrons    NEL             ....   54
FINAL SINGLE POINT ENERGY      -325.945882589192
FINAL SINGLE POINT ENERGY      -325.945885190998
FINAL SINGLE POINT ENERGY      -325.945891881790
FINAL SINGLE POINT ENERGY      -325.945894182826
FINAL SINGLE POINT ENERGY      -325.945895717961
FINAL SINGLE POINT ENERGY      -325.945896334599

CARTESIAN COORDINATES (ANGSTROEM)
---------------------------------
  N      1.222334   -0.007153   -3.359320
  C      0.862854    0.330281   -1.933046
  C     -0.227609   -0.595828   -1.417446
  C     -0.541287   -0.250636   -0.044556
  C     -0.758410    0.073374    1.092388
  C     -1.009590    0.438279    2.487586
  O      0.039520    0.078571    3.347570
  H      1.955329    0.609085   -3.716732
  H      0.411259    0.083882   -3.975485
  H      1.559800   -0.969407   -3.436412
  H      0.541381    1.371387   -1.926187
  H      1.776504    0.238627   -1.346330
  H      0.103212   -1.640656   -1.475632
  H     -1.126980   -0.507201   -2.039917
  H     -1.970888    0.008336    2.796969
  H     -1.112218    1.524365    2.556253
  H      0.034388   -0.874911    3.469047

FINAL SINGLE POINT ENERGY      -325.945896473427
                    ***********************HURRAY********************
 Multiplicity           Mult            ....    1
 Number of Electrons    NEL             ....   54
 Basis Dimension        Dim             ....  277
FINAL SINGLE POINT ENERGY      -325.945896316507

VIBRATIONAL FREQUENCIES
-----------------------

   0:         0.00 cm**-1
   1:         0.00 cm**-1
   2:         0.00 cm**-1
   3:         0.00 cm**-1
   4:         0.00 cm**-1
   5:         0.00 cm**-1
   6:        25.73 cm**-1
   7:        72.96 cm**-1
   8:        90.70 cm**-1
   9:       152.54 cm**-1
  10:       217.29 cm**-1
  11:       251.56 cm**-1
  12:       292.78 cm**-1
  13:       345.74 cm**-1
  14:       346.66 cm**-1
  15:       468.24 cm**-1
  16:       586.80 cm**-1
  17:       772.46 cm**-1
  18:       792.48 cm**-1
  19:       890.82 cm**-1
  20:       912.75 cm**-1
  21:       966.32 cm**-1
  22:       977.87 cm**-1
  23:      1094.36 cm**-1
  24:      1114.18 cm**-1
  25:      1141.59 cm**-1
  26:      1172.69 cm**-1
  27:      1216.99 cm**-1
  28:      1292.44 cm**-1
  29:      1338.54 cm**-1
  30:      1346.30 cm**-1
  31:      1377.86 cm**-1
  32:      1402.14 cm**-1
  33:      1415.00 cm**-1
  34:      1467.25 cm**-1
  35:      1470.41 cm**-1
  36:      1494.70 cm**-1
  37:      1508.26 cm**-1
  38:      1658.95 cm**-1
  39:      1663.26 cm**-1
  40:      2370.72 cm**-1
  41:      3023.21 cm**-1
  42:      3033.04 cm**-1
  43:      3061.60 cm**-1
  44:      3099.90 cm**-1
  45:      3113.17 cm**-1
  46:      3175.91 cm**-1
  47:      3420.74 cm**-1
  48:      3500.77 cm**-1
  49:      3506.89 cm**-1
  50:      3860.35 cm**-1

IR SPECTRUM
-----------

 Mode    freq (cm**-1)   T**2         TX         TY         TZ
-------------------------------------------------------------------
   7:        72.96    9.752572  (  1.992536  -0.647195   2.315925)
   8:        90.70   17.764801  ( -0.587380   3.793071   1.741379)
   9:       152.54    0.896947  (  0.078446  -0.943435   0.026900)
  10:       217.29    0.066027  (  0.158649  -0.165448   0.116120)
  11:       251.56   49.008578  ( -3.815100   0.828274   5.810985)
  12:       292.78   28.228793  ( -1.720617  -1.281023   4.860787)
  13:       345.74   30.561723  (  2.694909   1.742185  -4.501553)
  14:       346.66   68.257268  ( -5.853116   0.165803   5.828448)
  15:       468.24    2.782215  (  1.179342   1.062642  -0.512015)
  16:       586.80    2.350354  ( -0.550772   1.430538   0.023750)
  17:       772.46    5.700624  (  1.506717  -1.567516   0.986571)
  18:       792.48   13.118416  (  2.791840  -0.558980  -2.238657)
  19:       890.82   29.350180  (  3.356080   2.370267  -3.531110)
  20:       912.75    8.545941  ( -2.064445   1.838990  -0.949801)
  21:       966.32   26.819887  (  3.044294  -1.133913   4.033162)
  22:       977.87   15.468352  ( -0.051459   2.046257   3.358353)
  23:      1094.36   98.682037  ( -6.417635   2.034065  -7.304696)
  24:      1114.18    1.363506  ( -0.683667   0.946389   0.021310)
  25:      1141.59   11.611153  ( -2.611751  -1.885680   1.110910)
  26:      1172.69   13.275686  ( -1.107903   0.536699  -3.429314)
  27:      1216.99   19.428284  ( -2.900137   0.364227  -3.299216)
  28:      1292.44    0.561949  (  0.511922  -0.396615   0.377600)
  29:      1338.54   17.480750  (  1.061251  -0.056435  -4.043676)
  30:      1346.30    5.419519  (  1.661224  -1.516314   0.600536)
  31:      1377.86   10.224141  ( -2.189228   0.144546   2.326055)
  32:      1402.14   53.144695  ( -2.716099   0.241368  -6.760861)
  33:      1415.00    1.224463  (  1.020036   0.428827  -0.009806)
  34:      1467.25    1.390020  (  0.930774   0.644263  -0.329554)
  35:      1470.41    6.218166  ( -1.694495   1.338220   1.247405)
  36:      1494.70   14.842102  (  2.740609   2.631790  -0.636275)
  37:      1508.26  163.749463  (  3.106439  -2.780745 -12.098221)
  38:      1658.95   52.517305  (  5.108218  -4.579864   2.334151)
  39:      1663.26   39.246088  ( -4.274650  -4.551793   0.504620)
  40:      2370.72   16.004438  ( -1.307192   0.804936   3.694288)
  41:      3023.21   23.850635  ( -0.534056   1.632358   4.571742)
  42:      3033.04   15.323994  (  3.874172  -0.497915   0.258588)
  43:      3061.60    1.739849  (  0.928554  -0.855569   0.381624)
  44:      3099.90    2.416708  (  0.169413  -1.388786   0.677702)
  45:      3113.17    0.298155  ( -0.359030  -0.371156   0.177472)
  46:      3175.91    0.068508  (  0.200901  -0.113937   0.123144)
  47:      3420.74   62.167593  (  2.363262  -1.103807  -7.440712)
  48:      3500.77   95.603660  (  6.826091  -6.230383   3.192251)
  49:      3506.89  109.232169  ( -7.250568  -7.470260   0.925550)
  50:      3860.35   55.573491  (  1.381537  -6.186317   3.923560)

--------------------------
THERMOCHEMISTRY AT 298.15K
--------------------------

Temperature         ... 298.15 K
Pressure            ... 1.00 atm
Total Mass          ... 100.14 AMU

Throughout the following assumptions are being made:
  (1) The electronic state is orbitally nondegenerate
  (2) There are no thermally accessible electronically excited states
  (3) Hindered rotations indicated by low frequency modes) are not
      treated as such but are treated as vibrations and this may
      case some error
  (4) All equations used are the standard statistical mechanics
      equations for an ideal gas
  (5) All vibrations are strinctly harmonic

------------
INNER ENERGY
------------

The inner energy is: U= E(el) + E(ZPE) + E(vib) + E(rot) + E(trans)
    E(el)   - is the total energy from the electronic structure calculation
              = E(kin-el) + E(nuc-el) + E(el-el) + E(nuc-nuc)
    E(ZPE)  - the the zero temperature vibrational energy from the frequency calculation
    E(vib)  - the the finite temperature correction to E(ZPE) due to population
              of excietd vibrational states
    E(rot)  - is the rotational thermal energy
    E(trans)- is the translational thermal energy

Summary of contributions to the inner energy U:
Electronic energy                ...   -325.94589632 Eh
Zero point energy                ...      0.15145068 Eh      95.04 kcal/mol
Thermal vibrational correction   ...      0.00531454 Eh       3.33 kcal/mol
Thermal rotational correction    ...      0.00141627 Eh       0.89 kcal/mol
Thermal translational correction ...      0.00141627 Eh       0.89 kcal/mol
-----------------------------------------------------------------------
Total thermal energy                   -325.78629856 Eh

Summary of corrections to the electronic energy:
(perhaps to be used in another calculation)
Total thermal correction                  0.00814708 Eh       5.11 kcal/mol
Non-thermal (ZPE) correction              0.15145068 Eh      95.04 kcal/mol
-----------------------------------------------------------------------
Total correction                          0.15959776 Eh     100.15 kcal/mol

--------
ENTHALPY
--------

The enthalpy is H = U + kB*T
                kB is Boltzmann's constant
Total free energy                 ...   -325.78629856 Eh
Thermal Enthalpy correction       ...      0.00094421 Eh       0.59 kcal/mol
-----------------------------------------------------------------------
Total Enthalpy                    ...   -325.78535435 Eh

-------
ENTROPY
-------

The entropy contributions are T*S = T*(S(el)+S(vib)+S(rot)+S(trans)
     S(el)   - electronic entropy
     S(vib)  - vibrational entropy
     S(rot)  - rotational entropy
     S(trans)- translational entropy
The entropies will be listed as mutliplied by the temperature to get
units of energy

Electronic entropy                ...      0.00000000 Eh      0.00 kcal/mol
Vibrational entropy               ...      0.00973124 Eh      6.11 kcal/mol
Rotational entropy                ...      0.01244183 Eh      7.81 kcal/mol
Translational entropy             ...      0.01887324 Eh     11.84 kcal/mol
-----------------------------------------------------------------------
Final entropy term                ...      0.04104631 Eh     25.76 kcal/mol

CAUTION: The rotational entropy is not quite correctly treated here
         because it includes a symmetry number that is not yet correctly
         implemented in ORCA!
For a nonlinear molecule the correct rotational entropy is:
    S(rot) = R*(ln(qrot/sn)+1.5)
    R    = 8.31441 J/mol/K = 1.987191683e-3 kcal/mol/K
    qrot = 353626.1092152
    sn is the rotational symmetry number. We have assumed 3 here
       if it is different for your molecule then you should correct
       the printed rotational entropy by manually evaluating the equation
       as given above

For convenience we print out the resulting values for sn=1 - 12:
 sn= 1  qrot/sn=  353626.1092 T*S(rot)=     8.46 kcal/mol T*S(tot)=    26.41 kcal/mol
 sn= 2  qrot/sn=  176813.0546 T*S(rot)=     8.05 kcal/mol T*S(tot)=    26.00 kcal/mol
 sn= 3  qrot/sn=  117875.3697 T*S(rot)=     7.81 kcal/mol T*S(tot)=    25.76 kcal/mol
 sn= 4  qrot/sn=   88406.5273 T*S(rot)=     7.64 kcal/mol T*S(tot)=    25.59 kcal/mol
 sn= 5  qrot/sn=   70725.2218 T*S(rot)=     7.50 kcal/mol T*S(tot)=    25.45 kcal/mol
 sn= 6  qrot/sn=   58937.6849 T*S(rot)=     7.40 kcal/mol T*S(tot)=    25.35 kcal/mol
 sn= 7  qrot/sn=   50518.0156 T*S(rot)=     7.31 kcal/mol T*S(tot)=    25.25 kcal/mol
 sn= 8  qrot/sn=   44203.2637 T*S(rot)=     7.23 kcal/mol T*S(tot)=    25.18 kcal/mol
 sn= 9  qrot/sn=   39291.7899 T*S(rot)=     7.16 kcal/mol T*S(tot)=    25.11 kcal/mol
 sn=10  qrot/sn=   35362.6109 T*S(rot)=     7.09 kcal/mol T*S(tot)=    25.04 kcal/mol
 sn=11  qrot/sn=   32147.8281 T*S(rot)=     7.04 kcal/mol T*S(tot)=    24.99 kcal/mol
 sn=12  qrot/sn=   29468.8424 T*S(rot)=     6.99 kcal/mol T*S(tot)=    24.94 kcal/mol

-------------------
GIBBS FREE ENTHALPY
-------------------

The Gibbs free enthalpy is G = H - T*S

Total enthalpy                    ...   -325.78535435 Eh
Total entropy correction          ...     -0.04104631 Eh    -25.76 kcal/mol
-----------------------------------------------------------------------
Final Gibbs free enthalpy         ...   -325.82640066 Eh

For completeness - the Gibbs free enthalpy minus the electronic energy
G-E(el)                           ...      0.11949566 Eh     74.98 kcal/mol

                             ****ORCA TERMINATED NORMALLY****
TOTAL RUN TIME: 0 days 0 hours 33 minutes 44 seconds 578 msec
