                         Program Version 3.0.3 - RELEASE   -
|  1> ! NORI PBE0 def2-TZVP UseSym TightOPT Freq TightSCF Grid3 FinalGrid5 XYZFile
|  2> % pal
|  3>     nprocs 8
|  4> end
|  5> %method
|  6>     SymThresh 5.0e-2
|  7> end
|  8> % geom
|  9>     MaxIter 10
| 10> end
| 11> % maxcore 2000
| 12> % output
| 13>     printlevel mini
| 14>     print[ P_Basis ] 0
| 15>     print[ P_SCFInfo ] 1
| 16>     print[ P_SCFIterInfo ] 1
| 17>     print[ P_OrbEn ] 0
| 18>     print[ P_Cartesian ] 0
| 19> end
| 20> % elprop
| 21>     Dipole false
| 22> end
| 23> *xyz 1 1
| 24>  N        0.9535044799    -0.0453459932    -0.1925115713
| 25>  C        2.4355636306    -0.2239720264     0.0751661454
| 26>  C        2.6617411132    -0.5785721685     1.5126919517
| 27>  C        3.3477699049     0.1947393025     2.3414078254
| 28>  C        2.9080059062    -1.3012168787    -0.8600778826
| 29>  N        2.0259619158    -1.9641057574    -1.4780047854
| 30>  O        2.5110878166    -2.9520875466    -2.2584223139
| 31>  H        0.7747198457     0.7160137779    -0.8475182245
| 32>  H        0.4386025717     0.1329330804     0.6693166688
| 33>  H        0.6400295973    -0.9262704691    -0.6463218300
| 34>  H        2.9251637596     0.7258019818    -0.1522755208
| 35>  H        2.2685327697    -1.5390716722     1.8377831445
| 36>  H        3.7746798978     1.1413355067     2.0251886737
| 37>  H        3.5190563366    -0.1009133536     3.3694167361
| 38>  H        3.9746551851    -1.5002208293    -0.9381466903
| 39>  H        1.7378852693    -3.3556869542    -2.6705223268
| 40> *
| 41>
| 42>                          ****END OF INPUT****
 Total Charge           Charge          ....    1
 Multiplicity           Mult            ....    1
 Number of Electrons    NEL             ....   54
FINAL SINGLE POINT ENERGY      -341.980229313298

CARTESIAN COORDINATES (ANGSTROEM)
---------------------------------
  N      1.537940   -0.000054   -0.745079
  C      0.076037    0.403359   -0.737446
  C     -0.733887   -0.576294   -1.529845
  C     -1.397356   -0.236539   -2.625381
  C     -0.341724    0.455092    0.705242
  N      0.456395   -0.025934    1.560378
  O      0.000232   -0.000413    2.829969
  H      2.155368    0.810289   -0.797949
  H      1.747290   -0.625768   -1.522662
  H      1.708328   -0.462064    0.170211
  H      0.008237    1.393327   -1.194032
  H     -0.789062   -1.587093   -1.131531
  H     -1.379591    0.775005   -3.019009
  H     -1.996908   -0.960951   -3.163231
  H     -1.320556    0.858056    0.955837
  H      0.708527   -0.379445    3.364069

FINAL SINGLE POINT ENERGY      -341.980229642732
                    ***********************HURRAY********************
 Multiplicity           Mult            ....    1
 Number of Electrons    NEL             ....   54
 Basis Dimension        Dim             ....  271
FINAL SINGLE POINT ENERGY      -341.980229674486

VIBRATIONAL FREQUENCIES
-----------------------

   0:         0.00 cm**-1
   1:         0.00 cm**-1
   2:         0.00 cm**-1
   3:         0.00 cm**-1
   4:         0.00 cm**-1
   5:         0.00 cm**-1
   6:        65.09 cm**-1
   7:        90.31 cm**-1
   8:       145.70 cm**-1
   9:       234.24 cm**-1
  10:       262.40 cm**-1
  11:       324.39 cm**-1
  12:       373.78 cm**-1
  13:       437.63 cm**-1
  14:       475.59 cm**-1
  15:       481.47 cm**-1
  16:       677.94 cm**-1
  17:       731.98 cm**-1
  18:       840.22 cm**-1
  19:       948.11 cm**-1
  20:       958.32 cm**-1
  21:      1014.47 cm**-1
  22:      1025.74 cm**-1
  23:      1035.06 cm**-1
  24:      1073.39 cm**-1
  25:      1084.58 cm**-1
  26:      1161.69 cm**-1
  27:      1213.18 cm**-1
  28:      1278.72 cm**-1
  29:      1310.99 cm**-1
  30:      1328.95 cm**-1
  31:      1363.10 cm**-1
  32:      1444.22 cm**-1
  33:      1456.88 cm**-1
  34:      1473.03 cm**-1
  35:      1619.78 cm**-1
  36:      1657.50 cm**-1
  37:      1715.02 cm**-1
  38:      1749.27 cm**-1
  39:      3103.62 cm**-1
  40:      3160.82 cm**-1
  41:      3167.63 cm**-1
  42:      3174.77 cm**-1
  43:      3193.82 cm**-1
  44:      3258.19 cm**-1
  45:      3475.37 cm**-1
  46:      3536.81 cm**-1
  47:      3822.33 cm**-1

IR SPECTRUM
-----------

 Mode    freq (cm**-1)   T**2         TX         TY         TZ
-------------------------------------------------------------------
   6:        65.09    1.893537  (  0.997137   0.093374  -0.943682)
   7:        90.31    2.254449  (  0.639514   0.149253   1.350257)
   8:       145.70    2.172150  ( -0.863878  -0.389884   1.128651)
   9:       234.24   14.763176  (  1.108970   0.609959  -3.627852)
  10:       262.40   11.952859  (  0.294569   0.153701  -3.441288)
  11:       324.39    6.178533  ( -0.020369   1.178445   2.188466)
  12:       373.78    0.839279  ( -0.010157  -0.089259  -0.911706)
  13:       437.63    5.193136  ( -0.002487  -2.098421  -0.888685)
  14:       475.59   26.614972  (  1.911554  -2.690694  -3.964984)
  15:       481.47  141.786892  ( -5.219476 -10.664202  -0.904859)
  16:       677.94   19.065204  ( -3.678532   0.529465   2.292002)
  17:       731.98   10.632497  ( -1.898307   0.758664   2.540346)
  18:       840.22    7.807120  (  2.524523   1.054657  -0.567099)
  19:       948.11   10.214223  ( -1.402317   2.112315   1.945727)
  20:       958.32   12.315658  ( -2.137881  -2.760289   0.354860)
  21:      1014.47   35.387044  ( -5.902194  -0.722158   0.172148)
  22:      1025.74   33.747416  ( -3.620784   2.792258   3.583383)
  23:      1035.06    3.351458  (  1.431723   0.875507  -0.731516)
  24:      1073.39   51.176196  ( -2.597759   0.299942  -6.658669)
  25:      1084.58  119.537492  (  0.786611   0.972553 -10.861532)
  26:      1161.69   67.079903  (  3.053881  -1.874080   7.364885)
  27:      1213.18    9.817145  (  1.043907   2.897343   0.576894)
  28:      1278.72   29.433832  (  2.827438  -0.761243  -4.567268)
  29:      1310.99    4.501323  ( -1.704432   0.196673   1.248020)
  30:      1328.95    5.340922  (  0.016521   1.080687  -2.042735)
  31:      1363.10   10.464919  ( -2.246394   2.326291   0.083674)
  32:      1444.22  177.690849  ( -9.099476   2.248669   9.478073)
  33:      1456.88   23.797008  ( -2.816120   1.324420  -3.756646)
  34:      1473.03  128.733607  (-10.462975   4.047174  -1.697095)
  35:      1619.78   28.659809  (  3.063889   4.383549  -0.238530)
  36:      1657.50   24.456337  (  0.536967  -1.760926  -4.589896)
  37:      1715.02    1.986655  ( -1.031522  -0.518998  -0.808245)
  38:      1749.27    3.700618  ( -0.201827  -0.041561  -1.912631)
  39:      3103.62    1.844096  (  0.083972   0.582451  -1.223845)
  40:      3160.82    1.129295  (  0.492653   0.864137   0.373973)
  41:      3167.63    0.351596  ( -0.331617  -0.308605  -0.382609)
  42:      3174.77    6.316601  (  1.312596  -0.848505   1.968180)
  43:      3193.82  189.019667  ( -1.765527  -2.763832  13.351547)
  44:      3258.19    0.574268  (  0.457213   0.290490   0.529943)
  45:      3475.37  101.338404  (  6.856149   1.557961  -7.204470)
  46:      3536.81   97.517120  (  2.700683   8.578046   4.079283)
  47:      3822.33  198.009495  (  6.944002  -4.098871  11.532111)

--------------------------
THERMOCHEMISTRY AT 298.15K
--------------------------

Temperature         ... 298.15 K
Pressure            ... 1.00 atm
Total Mass          ... 101.13 AMU

Throughout the following assumptions are being made:
  (1) The electronic state is orbitally nondegenerate
  (2) There are no thermally accessible electronically excited states
  (3) Hindered rotations indicated by low frequency modes) are not
      treated as such but are treated as vibrations and this may
      case some error
  (4) All equations used are the standard statistical mechanics
      equations for an ideal gas
  (5) All vibrations are strinctly harmonic

------------
INNER ENERGY
------------

The inner energy is: U= E(el) + E(ZPE) + E(vib) + E(rot) + E(trans)
    E(el)   - is the total energy from the electronic structure calculation
              = E(kin-el) + E(nuc-el) + E(el-el) + E(nuc-nuc)
    E(ZPE)  - the the zero temperature vibrational energy from the frequency calculation
    E(vib)  - the the finite temperature correction to E(ZPE) due to population
              of excietd vibrational states
    E(rot)  - is the rotational thermal energy
    E(trans)- is the translational thermal energy

Summary of contributions to the inner energy U:
Electronic energy                ...   -341.98022967 Eh
Zero point energy                ...      0.13884539 Eh      87.13 kcal/mol
Thermal vibrational correction   ...      0.00530453 Eh       3.33 kcal/mol
Thermal rotational correction    ...      0.00141627 Eh       0.89 kcal/mol
Thermal translational correction ...      0.00141627 Eh       0.89 kcal/mol
-----------------------------------------------------------------------
Total thermal energy                   -341.83324721 Eh

Summary of corrections to the electronic energy:
(perhaps to be used in another calculation)
Total thermal correction                  0.00813707 Eh       5.11 kcal/mol
Non-thermal (ZPE) correction              0.13884539 Eh      87.13 kcal/mol
-----------------------------------------------------------------------
Total correction                          0.14698247 Eh      92.23 kcal/mol

--------
ENTHALPY
--------

The enthalpy is H = U + kB*T
                kB is Boltzmann's constant
Total free energy                 ...   -341.83324721 Eh
Thermal Enthalpy correction       ...      0.00094421 Eh       0.59 kcal/mol
-----------------------------------------------------------------------
Total Enthalpy                    ...   -341.83230300 Eh

-------
ENTROPY
-------

The entropy contributions are T*S = T*(S(el)+S(vib)+S(rot)+S(trans)
     S(el)   - electronic entropy
     S(vib)  - vibrational entropy
     S(rot)  - rotational entropy
     S(trans)- translational entropy
The entropies will be listed as mutliplied by the temperature to get
units of energy

Electronic entropy                ...      0.00000000 Eh      0.00 kcal/mol
Vibrational entropy               ...      0.00970855 Eh      6.09 kcal/mol
Rotational entropy                ...      0.01223028 Eh      7.67 kcal/mol
Translational entropy             ...      0.01888714 Eh     11.85 kcal/mol
-----------------------------------------------------------------------
Final entropy term                ...      0.04082597 Eh     25.62 kcal/mol

CAUTION: The rotational entropy is not quite correctly treated here
         because it includes a symmetry number that is not yet correctly
         implemented in ORCA!
For a nonlinear molecule the correct rotational entropy is:
    S(rot) = R*(ln(qrot/sn)+1.5)
    R    = 8.31441 J/mol/K = 1.987191683e-3 kcal/mol/K
    qrot = 282640.7623295
    sn is the rotational symmetry number. We have assumed 3 here
       if it is different for your molecule then you should correct
       the printed rotational entropy by manually evaluating the equation
       as given above

For convenience we print out the resulting values for sn=1 - 12:
 sn= 1  qrot/sn=  282640.7623 T*S(rot)=     8.33 kcal/mol T*S(tot)=    26.27 kcal/mol
 sn= 2  qrot/sn=  141320.3812 T*S(rot)=     7.91 kcal/mol T*S(tot)=    25.86 kcal/mol
 sn= 3  qrot/sn=   94213.5874 T*S(rot)=     7.67 kcal/mol T*S(tot)=    25.62 kcal/mol
 sn= 4  qrot/sn=   70660.1906 T*S(rot)=     7.50 kcal/mol T*S(tot)=    25.45 kcal/mol
 sn= 5  qrot/sn=   56528.1525 T*S(rot)=     7.37 kcal/mol T*S(tot)=    25.32 kcal/mol
 sn= 6  qrot/sn=   47106.7937 T*S(rot)=     7.26 kcal/mol T*S(tot)=    25.21 kcal/mol
 sn= 7  qrot/sn=   40377.2518 T*S(rot)=     7.17 kcal/mol T*S(tot)=    25.12 kcal/mol
 sn= 8  qrot/sn=   35330.0953 T*S(rot)=     7.09 kcal/mol T*S(tot)=    25.04 kcal/mol
 sn= 9  qrot/sn=   31404.5291 T*S(rot)=     7.02 kcal/mol T*S(tot)=    24.97 kcal/mol
 sn=10  qrot/sn=   28264.0762 T*S(rot)=     6.96 kcal/mol T*S(tot)=    24.91 kcal/mol
 sn=11  qrot/sn=   25694.6148 T*S(rot)=     6.90 kcal/mol T*S(tot)=    24.85 kcal/mol
 sn=12  qrot/sn=   23553.3969 T*S(rot)=     6.85 kcal/mol T*S(tot)=    24.80 kcal/mol

-------------------
GIBBS FREE ENTHALPY
-------------------

The Gibbs free enthalpy is G = H - T*S

Total enthalpy                    ...   -341.83230300 Eh
Total entropy correction          ...     -0.04082597 Eh    -25.62 kcal/mol
-----------------------------------------------------------------------
Final Gibbs free enthalpy         ...   -341.87312896 Eh

For completeness - the Gibbs free enthalpy minus the electronic energy
G-E(el)                           ...      0.10710071 Eh     67.21 kcal/mol

                             ****ORCA TERMINATED NORMALLY****
TOTAL RUN TIME: 0 days 0 hours 28 minutes 13 seconds 571 msec
