                         Program Version 3.0.3 - RELEASE   -
|  1> ! NORI PBE0 def2-TZVP UseSym TightOPT Freq TightSCF Grid3 FinalGrid5 XYZFile
|  2> % pal
|  3>     nprocs 8
|  4> end
|  5> %method
|  6>     SymThresh 5.0e-2
|  7> end
|  8> % geom
|  9>     MaxIter 10
| 10> end
| 11> % maxcore 2000
| 12> % output
| 13>     printlevel mini
| 14>     print[ P_Basis ] 0
| 15>     print[ P_SCFInfo ] 1
| 16>     print[ P_SCFIterInfo ] 1
| 17>     print[ P_OrbEn ] 0
| 18>     print[ P_Cartesian ] 0
| 19> end
| 20> % elprop
| 21>     Dipole false
| 22> end
| 23> *xyz 1 1
| 24>  N        2.1757894835     1.2954437927    -0.5828197185
| 25>  C        2.9449324530     0.0253293852    -0.2228802880
| 26>  C        2.8314417087    -0.2560559774     1.2255720716
| 27>  C        3.8636851894    -0.0960184974     2.0649024058
| 28>  C        3.8220286940    -0.3866199629     3.4716879877
| 29>  N        4.8947550746    -0.1787627016     4.1365957107
| 30>  O        4.7565885515    -0.4805992306     5.4405254029
| 31>  H        2.2343545718     1.5141819683    -1.5802915422
| 32>  H        2.5444409381     2.0879224942    -0.0527560921
| 33>  H        1.1884020332     1.1998213368    -0.3367722080
| 34>  H        3.9752697591     0.2024753135    -0.5314079219
| 35>  H        2.5147536354    -0.7578898647    -0.8503621926
| 36>  H        1.8837363501    -0.6466886882     1.5876499131
| 37>  H        4.8240338349     0.2591716473     1.6968126803
| 38>  H        2.9196986943    -0.7697800528     3.9477346024
| 39>  H        5.6197890284    -0.2915209623     5.8277491888
| 40> *
| 41>
| 42>                          ****END OF INPUT****
 Total Charge           Charge          ....    1
 Multiplicity           Mult            ....    1
 Number of Electrons    NEL             ....   54
FINAL SINGLE POINT ENERGY      -341.985693755541

CARTESIAN COORDINATES (ANGSTROEM)
---------------------------------
  N      0.899284    0.000382   -3.278822
  C     -0.416580   -0.017773   -2.502809
  C     -0.228162    0.552357   -1.150266
  C     -0.245295   -0.209299   -0.047834
  C     -0.102083    0.292899    1.290999
  N     -0.141581   -0.566065    2.237952
  O      0.001727    0.000258    3.449974
  H      0.799016   -0.386777   -4.220163
  H      1.607122   -0.540325   -2.777189
  H      1.252802    0.955336   -3.364868
  H     -0.731264   -1.060873   -2.472885
  H     -1.119433    0.549041   -3.116749
  H     -0.118998    1.631234   -1.071661
  H     -0.392755   -1.284888   -0.122421
  H      0.030453    1.356307    1.489265
  H     -0.053524   -0.735591    4.071448

FINAL SINGLE POINT ENERGY      -341.985694303221
                    ***********************HURRAY********************
 Multiplicity           Mult            ....    1
 Number of Electrons    NEL             ....   54
 Basis Dimension        Dim             ....  271
FINAL SINGLE POINT ENERGY      -341.985694406580

VIBRATIONAL FREQUENCIES
-----------------------

   0:         0.00 cm**-1
   1:         0.00 cm**-1
   2:         0.00 cm**-1
   3:         0.00 cm**-1
   4:         0.00 cm**-1
   5:         0.00 cm**-1
   6:        69.52 cm**-1
   7:       120.52 cm**-1
   8:       152.38 cm**-1
   9:       195.97 cm**-1
  10:       224.79 cm**-1
  11:       350.56 cm**-1
  12:       367.18 cm**-1
  13:       419.31 cm**-1
  14:       501.22 cm**-1
  15:       551.39 cm**-1
  16:       608.10 cm**-1
  17:       821.87 cm**-1
  18:       849.14 cm**-1
  19:       863.38 cm**-1
  20:       971.43 cm**-1
  21:       985.25 cm**-1
  22:      1020.75 cm**-1
  23:      1075.40 cm**-1
  24:      1111.38 cm**-1
  25:      1161.40 cm**-1
  26:      1215.04 cm**-1
  27:      1279.08 cm**-1
  28:      1303.89 cm**-1
  29:      1326.37 cm**-1
  30:      1345.84 cm**-1
  31:      1393.02 cm**-1
  32:      1467.97 cm**-1
  33:      1487.35 cm**-1
  34:      1491.84 cm**-1
  35:      1650.15 cm**-1
  36:      1660.50 cm**-1
  37:      1688.14 cm**-1
  38:      1711.48 cm**-1
  39:      3093.07 cm**-1
  40:      3142.34 cm**-1
  41:      3154.80 cm**-1
  42:      3166.24 cm**-1
  43:      3174.80 cm**-1
  44:      3413.88 cm**-1
  45:      3505.18 cm**-1
  46:      3508.97 cm**-1
  47:      3818.48 cm**-1

IR SPECTRUM
-----------

 Mode    freq (cm**-1)   T**2         TX         TY         TZ
-------------------------------------------------------------------
   6:        69.52   14.043047  ( -2.157629   1.360007  -2.745553)
   7:       120.52    5.477556  (  1.257587   1.747905  -0.916984)
   8:       152.38    0.690673  ( -0.614907   0.186797   0.526943)
   9:       195.97    5.421527  (  0.072636   0.632974   2.239552)
  10:       224.79    1.304124  ( -0.261253   0.080754  -1.108760)
  11:       350.56    3.009164  (  0.083736  -0.550409  -1.642925)
  12:       367.18    4.596393  (  0.810527  -0.863080  -1.787325)
  13:       419.31    9.438811  (  2.132108   0.134869  -2.207881)
  14:       501.22    6.009898  ( -2.082725   1.231398  -0.394732)
  15:       551.39  132.103494  ( 11.401493  -1.403349  -0.374237)
  16:       608.10   23.825784  ( -0.449975  -1.741541  -4.537658)
  17:       821.87   33.337223  (  0.185483  -1.017518   5.680447)
  18:       849.14    7.884673  (  0.970619  -2.569959  -0.581276)
  19:       863.38   65.765603  (  3.933165  -0.483070  -7.075483)
  20:       971.43    5.222437  (  2.109478  -0.448321  -0.756009)
  21:       985.25   10.979225  ( -3.033842  -1.165596  -0.645303)
  22:      1020.75   52.494509  (  6.985378  -0.961079  -1.665934)
  23:      1075.40   19.314546  (  2.618109  -0.882291   3.417837)
  24:      1111.38  194.768323  (  0.690391   2.945299 -13.624129)
  25:      1161.40  191.263291  (  0.879198   0.638356  13.787052)
  26:      1215.04    8.413282  ( -0.020101  -0.580710   2.841769)
  27:      1279.08   15.110188  (  0.419952   3.616442   1.362049)
  28:      1303.89   96.408215  ( -0.254559  -0.571666  -9.798807)
  29:      1326.37    0.836656  ( -0.477223  -0.483223  -0.612707)
  30:      1345.84   10.386614  ( -0.133847   2.339203   2.212878)
  31:      1393.02  111.637721  ( -0.493915  -0.459671  10.544310)
  32:      1467.97   27.131398  ( -1.386135  -1.165049  -4.883921)
  33:      1487.35   17.948341  (  1.785292   2.267352   3.101643)
  34:      1491.84  162.299282  ( 10.030777   0.120018  -7.852923)
  35:      1650.15   47.647800  ( -1.265491   6.702762  -1.057974)
  36:      1660.50   44.999135  ( -2.548959  -1.234061  -6.081039)
  37:      1688.14   45.981893  ( -0.304497   0.637303  -6.744110)
  38:      1711.48  155.916068  (  0.650088   1.789117 -12.340685)
  39:      3093.07    5.676801  ( -0.373803  -0.437394  -2.312090)
  40:      3142.34    2.342047  ( -0.125590  -1.150471  -1.001345)
  41:      3154.80    0.283131  (  0.011263   0.116920   0.518974)
  42:      3166.24    1.043507  (  0.009457   0.112835   1.015227)
  43:      3174.80    2.788771  ( -0.335435  -0.726189  -1.465914)
  44:      3413.88   38.926225  (  4.453716  -0.209233  -4.364271)
  45:      3505.18   74.797641  ( -5.239931  -0.182778  -6.878034)
  46:      3508.97   94.573066  ( -0.430160  -9.644946   1.167498)
  47:      3818.48  272.101098  (  0.319900   7.378334 -14.749879)

--------------------------
THERMOCHEMISTRY AT 298.15K
--------------------------

Temperature         ... 298.15 K
Pressure            ... 1.00 atm
Total Mass          ... 101.13 AMU

Throughout the following assumptions are being made:
  (1) The electronic state is orbitally nondegenerate
  (2) There are no thermally accessible electronically excited states
  (3) Hindered rotations indicated by low frequency modes) are not
      treated as such but are treated as vibrations and this may
      case some error
  (4) All equations used are the standard statistical mechanics
      equations for an ideal gas
  (5) All vibrations are strinctly harmonic

------------
INNER ENERGY
------------

The inner energy is: U= E(el) + E(ZPE) + E(vib) + E(rot) + E(trans)
    E(el)   - is the total energy from the electronic structure calculation
              = E(kin-el) + E(nuc-el) + E(el-el) + E(nuc-nuc)
    E(ZPE)  - the the zero temperature vibrational energy from the frequency calculation
    E(vib)  - the the finite temperature correction to E(ZPE) due to population
              of excietd vibrational states
    E(rot)  - is the rotational thermal energy
    E(trans)- is the translational thermal energy

Summary of contributions to the inner energy U:
Electronic energy                ...   -341.98569441 Eh
Zero point energy                ...      0.13992353 Eh      87.80 kcal/mol
Thermal vibrational correction   ...      0.00525797 Eh       3.30 kcal/mol
Thermal rotational correction    ...      0.00141627 Eh       0.89 kcal/mol
Thermal translational correction ...      0.00141627 Eh       0.89 kcal/mol
-----------------------------------------------------------------------
Total thermal energy                   -341.83768036 Eh

Summary of corrections to the electronic energy:
(perhaps to be used in another calculation)
Total thermal correction                  0.00809052 Eh       5.08 kcal/mol
Non-thermal (ZPE) correction              0.13992353 Eh      87.80 kcal/mol
-----------------------------------------------------------------------
Total correction                          0.14801405 Eh      92.88 kcal/mol

--------
ENTHALPY
--------

The enthalpy is H = U + kB*T
                kB is Boltzmann's constant
Total free energy                 ...   -341.83768036 Eh
Thermal Enthalpy correction       ...      0.00094421 Eh       0.59 kcal/mol
-----------------------------------------------------------------------
Total Enthalpy                    ...   -341.83673615 Eh

-------
ENTROPY
-------

The entropy contributions are T*S = T*(S(el)+S(vib)+S(rot)+S(trans)
     S(el)   - electronic entropy
     S(vib)  - vibrational entropy
     S(rot)  - rotational entropy
     S(trans)- translational entropy
The entropies will be listed as mutliplied by the temperature to get
units of energy

Electronic entropy                ...      0.00000000 Eh      0.00 kcal/mol
Vibrational entropy               ...      0.00949570 Eh      5.96 kcal/mol
Rotational entropy                ...      0.01225605 Eh      7.69 kcal/mol
Translational entropy             ...      0.01888714 Eh     11.85 kcal/mol
-----------------------------------------------------------------------
Final entropy term                ...      0.04063889 Eh     25.50 kcal/mol

CAUTION: The rotational entropy is not quite correctly treated here
         because it includes a symmetry number that is not yet correctly
         implemented in ORCA!
For a nonlinear molecule the correct rotational entropy is:
    S(rot) = R*(ln(qrot/sn)+1.5)
    R    = 8.31441 J/mol/K = 1.987191683e-3 kcal/mol/K
    qrot = 290461.1244503
    sn is the rotational symmetry number. We have assumed 3 here
       if it is different for your molecule then you should correct
       the printed rotational entropy by manually evaluating the equation
       as given above

For convenience we print out the resulting values for sn=1 - 12:
 sn= 1  qrot/sn=  290461.1245 T*S(rot)=     8.34 kcal/mol T*S(tot)=    26.15 kcal/mol
 sn= 2  qrot/sn=  145230.5622 T*S(rot)=     7.93 kcal/mol T*S(tot)=    25.74 kcal/mol
 sn= 3  qrot/sn=   96820.3748 T*S(rot)=     7.69 kcal/mol T*S(tot)=    25.50 kcal/mol
 sn= 4  qrot/sn=   72615.2811 T*S(rot)=     7.52 kcal/mol T*S(tot)=    25.33 kcal/mol
 sn= 5  qrot/sn=   58092.2249 T*S(rot)=     7.39 kcal/mol T*S(tot)=    25.20 kcal/mol
 sn= 6  qrot/sn=   48410.1874 T*S(rot)=     7.28 kcal/mol T*S(tot)=    25.09 kcal/mol
 sn= 7  qrot/sn=   41494.4464 T*S(rot)=     7.19 kcal/mol T*S(tot)=    25.00 kcal/mol
 sn= 8  qrot/sn=   36307.6406 T*S(rot)=     7.11 kcal/mol T*S(tot)=    24.92 kcal/mol
 sn= 9  qrot/sn=   32273.4583 T*S(rot)=     7.04 kcal/mol T*S(tot)=    24.85 kcal/mol
 sn=10  qrot/sn=   29046.1124 T*S(rot)=     6.98 kcal/mol T*S(tot)=    24.79 kcal/mol
 sn=11  qrot/sn=   26405.5568 T*S(rot)=     6.92 kcal/mol T*S(tot)=    24.73 kcal/mol
 sn=12  qrot/sn=   24205.0937 T*S(rot)=     6.87 kcal/mol T*S(tot)=    24.68 kcal/mol

-------------------
GIBBS FREE ENTHALPY
-------------------

The Gibbs free enthalpy is G = H - T*S

Total enthalpy                    ...   -341.83673615 Eh
Total entropy correction          ...     -0.04063889 Eh    -25.50 kcal/mol
-----------------------------------------------------------------------
Final Gibbs free enthalpy         ...   -341.87737504 Eh

For completeness - the Gibbs free enthalpy minus the electronic energy
G-E(el)                           ...      0.10831937 Eh     67.97 kcal/mol

                             ****ORCA TERMINATED NORMALLY****
TOTAL RUN TIME: 0 days 0 hours 22 minutes 30 seconds 556 msec
