                         Program Version 3.0.3 - RELEASE   -
|  1> ! NORI PBE0 def2-TZVP UseSym TightOPT Freq TightSCF Grid3 FinalGrid5 XYZFile
|  2> % pal
|  3>     nprocs 8
|  4> end
|  5> %method
|  6>     SymThresh 5.0e-2
|  7> end
|  8> % geom
|  9>     MaxIter 10
| 10> end
| 11> % maxcore 2000
| 12> % output
| 13>     printlevel mini
| 14>     print[ P_Basis ] 0
| 15>     print[ P_SCFInfo ] 1
| 16>     print[ P_SCFIterInfo ] 1
| 17>     print[ P_OrbEn ] 0
| 18>     print[ P_Cartesian ] 0
| 19> end
| 20> % elprop
| 21>     Dipole false
| 22> end
| 23> *xyz 1 1
| 24>  N        3.8528986104     1.1616493109     0.0251436837
| 25>  C        2.7494696289     0.1462184240     0.0746669121
| 26>  C        3.2587443899    -1.2448260648     0.0988293304
| 27>  C        4.5156595291    -1.6654798406     0.0768319610
| 28>  C        4.7470221536    -3.1538039108     0.1125710590
| 29>  N        6.0388355801    -3.5345569393     0.0866287452
| 30>  O        3.8132813701    -3.9206884081     0.1612463104
| 31>  H        3.4857827222     2.1151971894     0.0069141368
| 32>  H        4.4299942740     1.0259069842    -0.8087707094
| 33>  H        4.4631225719     1.0700277977     0.8412796649
| 34>  H        2.1160915601     0.3249292874    -0.7984462984
| 35>  H        2.1548125575     0.3690536688     0.9647865996
| 36>  H        2.4902649000    -2.0153209289     0.1404589578
| 37>  H        5.3821795837    -1.0071831492     0.0363019725
| 38>  H        6.2451021027    -4.5201046583     0.1112032202
| 39>  H        6.8032284659    -2.8859687622     0.0462744543
| 40> *
| 41>
| 42>                          ****END OF INPUT****
 Total Charge           Charge          ....    1
 Multiplicity           Mult            ....    1
 Number of Electrons    NEL             ....   54
FINAL SINGLE POINT ENERGY      -342.057744345878

CARTESIAN COORDINATES (ANGSTROEM)
---------------------------------
  N      0.750372    0.000623   -2.785656
  C      1.683474    0.018628   -1.610648
  C      0.964263    0.011873   -0.315488
  C     -0.343080   -0.002950   -0.096435
  C     -0.803291   -0.006859    1.338047
  N     -2.139008   -0.019989    1.512293
  O     -0.000026    0.002082    2.241842
  H      1.260653    0.007104   -3.670982
  H      0.132747    0.815890   -2.767375
  H      0.159951   -0.834476   -2.763562
  H      2.307990    0.909741   -1.716452
  H      2.334331   -0.854121   -1.710401
  H      1.603863    0.020123    0.566139
  H     -1.096577   -0.012841   -0.882783
  H     -2.496041   -0.024106    2.453994
  H     -2.793388   -0.027202    0.751737

FINAL SINGLE POINT ENERGY      -342.057745052604
                    ***********************HURRAY********************
 Multiplicity           Mult            ....    1
 Number of Electrons    NEL             ....   54
 Basis Dimension        Dim             ....  271
FINAL SINGLE POINT ENERGY      -342.057745258376

VIBRATIONAL FREQUENCIES
-----------------------

   0:         0.00 cm**-1
   1:         0.00 cm**-1
   2:         0.00 cm**-1
   3:         0.00 cm**-1
   4:         0.00 cm**-1
   5:         0.00 cm**-1
   6:        56.44 cm**-1
   7:       136.65 cm**-1
   8:       145.62 cm**-1
   9:       192.08 cm**-1
  10:       254.46 cm**-1
  11:       256.43 cm**-1
  12:       299.19 cm**-1
  13:       432.57 cm**-1
  14:       541.89 cm**-1
  15:       562.06 cm**-1
  16:       650.09 cm**-1
  17:       701.02 cm**-1
  18:       825.77 cm**-1
  19:       874.87 cm**-1
  20:       899.82 cm**-1
  21:       907.67 cm**-1
  22:      1009.60 cm**-1
  23:      1062.41 cm**-1
  24:      1072.58 cm**-1
  25:      1111.54 cm**-1
  26:      1112.34 cm**-1
  27:      1254.14 cm**-1
  28:      1306.74 cm**-1
  29:      1341.32 cm**-1
  30:      1406.89 cm**-1
  31:      1418.35 cm**-1
  32:      1478.23 cm**-1
  33:      1505.65 cm**-1
  34:      1631.52 cm**-1
  35:      1647.95 cm**-1
  36:      1663.45 cm**-1
  37:      1736.89 cm**-1
  38:      1820.86 cm**-1
  39:      3078.86 cm**-1
  40:      3124.34 cm**-1
  41:      3141.50 cm**-1
  42:      3161.46 cm**-1
  43:      3417.80 cm**-1
  44:      3494.33 cm**-1
  45:      3508.47 cm**-1
  46:      3612.73 cm**-1
  47:      3746.02 cm**-1

IR SPECTRUM
-----------

 Mode    freq (cm**-1)   T**2         TX         TY         TZ
-------------------------------------------------------------------
   6:        56.44    0.736485  (  0.006319  -0.858140  -0.006392)
   7:       136.65    1.698194  (  0.002329  -1.303115   0.008893)
   8:       145.62    2.179208  ( -1.474264  -0.005011  -0.075689)
   9:       192.08    1.526020  ( -0.013738   1.235150   0.015331)
  10:       254.46    5.771954  ( -0.098490   2.392528   0.195099)
  11:       256.43   43.744033  (  2.232830   0.107761  -6.224700)
  12:       299.19  173.025981  ( -0.168524  13.152844  -0.016830)
  13:       432.57    3.858912  (  1.452610   0.022413   1.322245)
  14:       541.89    1.227092  (  0.117306   0.021018   1.101313)
  15:       562.06   17.916565  (  0.053887  -4.232450   0.005018)
  16:       650.09   27.995271  ( -3.169286  -0.026898   4.236764)
  17:       701.02   17.161045  (  0.047343  -4.142313   0.006981)
  18:       825.77    0.295518  ( -0.018953   0.543280   0.002509)
  19:       874.87   14.545096  (  2.298611   0.006284  -3.043262)
  20:       899.82   19.266301  ( -0.050239   4.388981  -0.025041)
  21:       907.67    0.009653  (  0.003241  -0.022550  -0.095573)
  22:      1009.60   31.892344  ( -0.057887   5.647012  -0.015683)
  23:      1062.41   11.030468  (  2.251243   0.039427   2.441479)
  24:      1072.58   11.745574  ( -2.682459  -0.031025   2.132844)
  25:      1111.54   11.646641  (  0.060826   3.411441  -0.070771)
  26:      1112.34    9.274364  ( -2.633194   0.111537   1.525849)
  27:      1254.14    1.021563  ( -0.825622  -0.005688   0.582991)
  28:      1306.74   36.992209  (  5.123333   0.054380  -3.277303)
  29:      1341.32    5.340434  (  0.035659  -2.310655   0.006151)
  30:      1406.89  188.072780  (  9.307388   0.082560 -10.071668)
  31:      1418.35   22.439978  ( -4.065841  -0.044771   2.430413)
  32:      1478.23   31.797729  (  4.653973   0.054622  -3.183596)
  33:      1505.65  146.113423  (  6.564967   0.121341  10.148887)
  34:      1631.52  137.087019  (-10.418163  -0.113737   5.341906)
  35:      1647.95   58.614447  (  0.125895  -7.654964   0.011261)
  36:      1663.45   30.742494  ( -2.487910  -0.048026   4.954845)
  37:      1736.89   36.463261  ( -2.372017  -0.036984  -5.552966)
  38:      1820.86  276.131207  (-14.152461  -0.169166  -8.706919)
  39:      3078.86    0.199081  (  0.262306  -0.003785  -0.360918)
  40:      3124.34    1.063070  ( -0.012989   1.030967  -0.002735)
  41:      3141.50   22.507560  ( -1.702820  -0.028860  -4.427994)
  42:      3161.46   18.865480  (  0.984517   0.018719   4.230349)
  43:      3417.80   34.592280  (  2.783951   0.067365   5.180479)
  44:      3494.33   94.089766  ( -0.140930   9.698947  -0.017955)
  45:      3508.47  112.935859  ( -7.387665  -0.093628   7.638685)
  46:      3612.73  108.386134  ( -9.242373  -0.099854   4.791107)
  47:      3746.02   65.334179  (  1.376622   0.028898   7.964814)

--------------------------
THERMOCHEMISTRY AT 298.15K
--------------------------

Temperature         ... 298.15 K
Pressure            ... 1.00 atm
Total Mass          ... 101.13 AMU

Throughout the following assumptions are being made:
  (1) The electronic state is orbitally nondegenerate
  (2) There are no thermally accessible electronically excited states
  (3) Hindered rotations indicated by low frequency modes) are not
      treated as such but are treated as vibrations and this may
      case some error
  (4) All equations used are the standard statistical mechanics
      equations for an ideal gas
  (5) All vibrations are strinctly harmonic

------------
INNER ENERGY
------------

The inner energy is: U= E(el) + E(ZPE) + E(vib) + E(rot) + E(trans)
    E(el)   - is the total energy from the electronic structure calculation
              = E(kin-el) + E(nuc-el) + E(el-el) + E(nuc-nuc)
    E(ZPE)  - the the zero temperature vibrational energy from the frequency calculation
    E(vib)  - the the finite temperature correction to E(ZPE) due to population
              of excietd vibrational states
    E(rot)  - is the rotational thermal energy
    E(trans)- is the translational thermal energy

Summary of contributions to the inner energy U:
Electronic energy                ...   -342.05774526 Eh
Zero point energy                ...      0.14034099 Eh      88.07 kcal/mol
Thermal vibrational correction   ...      0.00544041 Eh       3.41 kcal/mol
Thermal rotational correction    ...      0.00141627 Eh       0.89 kcal/mol
Thermal translational correction ...      0.00141627 Eh       0.89 kcal/mol
-----------------------------------------------------------------------
Total thermal energy                   -341.90913132 Eh

Summary of corrections to the electronic energy:
(perhaps to be used in another calculation)
Total thermal correction                  0.00827295 Eh       5.19 kcal/mol
Non-thermal (ZPE) correction              0.14034099 Eh      88.07 kcal/mol
-----------------------------------------------------------------------
Total correction                          0.14861394 Eh      93.26 kcal/mol

--------
ENTHALPY
--------

The enthalpy is H = U + kB*T
                kB is Boltzmann's constant
Total free energy                 ...   -341.90913132 Eh
Thermal Enthalpy correction       ...      0.00094421 Eh       0.59 kcal/mol
-----------------------------------------------------------------------
Total Enthalpy                    ...   -341.90818711 Eh

-------
ENTROPY
-------

The entropy contributions are T*S = T*(S(el)+S(vib)+S(rot)+S(trans)
     S(el)   - electronic entropy
     S(vib)  - vibrational entropy
     S(rot)  - rotational entropy
     S(trans)- translational entropy
The entropies will be listed as mutliplied by the temperature to get
units of energy

Electronic entropy                ...      0.00000000 Eh      0.00 kcal/mol
Vibrational entropy               ...      0.00993703 Eh      6.24 kcal/mol
Rotational entropy                ...      0.01226002 Eh      7.69 kcal/mol
Translational entropy             ...      0.01888714 Eh     11.85 kcal/mol
-----------------------------------------------------------------------
Final entropy term                ...      0.04108419 Eh     25.78 kcal/mol

CAUTION: The rotational entropy is not quite correctly treated here
         because it includes a symmetry number that is not yet correctly
         implemented in ORCA!
For a nonlinear molecule the correct rotational entropy is:
    S(rot) = R*(ln(qrot/sn)+1.5)
    R    = 8.31441 J/mol/K = 1.987191683e-3 kcal/mol/K
    qrot = 291686.1426102
    sn is the rotational symmetry number. We have assumed 3 here
       if it is different for your molecule then you should correct
       the printed rotational entropy by manually evaluating the equation
       as given above

For convenience we print out the resulting values for sn=1 - 12:
 sn= 1  qrot/sn=  291686.1426 T*S(rot)=     8.34 kcal/mol T*S(tot)=    26.43 kcal/mol
 sn= 2  qrot/sn=  145843.0713 T*S(rot)=     7.93 kcal/mol T*S(tot)=    26.02 kcal/mol
 sn= 3  qrot/sn=   97228.7142 T*S(rot)=     7.69 kcal/mol T*S(tot)=    25.78 kcal/mol
 sn= 4  qrot/sn=   72921.5357 T*S(rot)=     7.52 kcal/mol T*S(tot)=    25.61 kcal/mol
 sn= 5  qrot/sn=   58337.2285 T*S(rot)=     7.39 kcal/mol T*S(tot)=    25.48 kcal/mol
 sn= 6  qrot/sn=   48614.3571 T*S(rot)=     7.28 kcal/mol T*S(tot)=    25.37 kcal/mol
 sn= 7  qrot/sn=   41669.4489 T*S(rot)=     7.19 kcal/mol T*S(tot)=    25.28 kcal/mol
 sn= 8  qrot/sn=   36460.7678 T*S(rot)=     7.11 kcal/mol T*S(tot)=    25.20 kcal/mol
 sn= 9  qrot/sn=   32409.5714 T*S(rot)=     7.04 kcal/mol T*S(tot)=    25.13 kcal/mol
 sn=10  qrot/sn=   29168.6143 T*S(rot)=     6.98 kcal/mol T*S(tot)=    25.07 kcal/mol
 sn=11  qrot/sn=   26516.9221 T*S(rot)=     6.92 kcal/mol T*S(tot)=    25.01 kcal/mol
 sn=12  qrot/sn=   24307.1786 T*S(rot)=     6.87 kcal/mol T*S(tot)=    24.96 kcal/mol

-------------------
GIBBS FREE ENTHALPY
-------------------

The Gibbs free enthalpy is G = H - T*S

Total enthalpy                    ...   -341.90818711 Eh
Total entropy correction          ...     -0.04108419 Eh    -25.78 kcal/mol
-----------------------------------------------------------------------
Final Gibbs free enthalpy         ...   -341.94927130 Eh

For completeness - the Gibbs free enthalpy minus the electronic energy
G-E(el)                           ...      0.10847396 Eh     68.07 kcal/mol

                             ****ORCA TERMINATED NORMALLY****
TOTAL RUN TIME: 0 days 0 hours 26 minutes 22 seconds 234 msec
