                         Program Version 3.0.3 - RELEASE   -
|  1> ! NORI PBE0 def2-TZVP UseSym TightOPT Freq TightSCF Grid3 FinalGrid5 XYZFile
|  2> % pal
|  3>     nprocs 8
|  4> end
|  5> %method
|  6>     SymThresh 5.0e-2
|  7> end
|  8> % geom
|  9>     MaxIter 10
| 10> end
| 11> % maxcore 2000
| 12> % output
| 13>     printlevel mini
| 14>     print[ P_Basis ] 0
| 15>     print[ P_SCFInfo ] 1
| 16>     print[ P_SCFIterInfo ] 1
| 17>     print[ P_OrbEn ] 0
| 18>     print[ P_Cartesian ] 0
| 19> end
| 20> % elprop
| 21>     Dipole false
| 22> end
| 23> *xyz 1 1
| 24>  N        1.6671290529    -0.6595134971    -0.0000371697
| 25>  C        3.0859195929    -0.3959682784    -0.4004494147
| 26>  C        3.1690776370     0.4942853519    -1.6039222549
| 27>  C        2.1121558540     1.0112425571    -2.2325774096
| 28>  C        4.5253340023     0.7623107623    -2.0515591011
| 29>  N        5.4852718098     0.2286236207    -1.4063450361
| 30>  O        6.6958235447     0.5489276229    -1.9142955654
| 31>  H        1.6233167988    -1.2757384821     0.8133331182
| 32>  H        1.1495677262    -1.1010761671    -0.7639639885
| 33>  H        1.1860629579     0.2119365038     0.2348177604
| 34>  H        3.5884245996     0.0492179276     0.4595741969
| 35>  H        3.5551201113    -1.3625541815    -0.5898970996
| 36>  H        2.2472274240     1.6466253869    -3.0991731823
| 37>  H        1.0800081069     0.8467857463    -1.9426422636
| 38>  H        4.6917122784     1.4034291159    -2.9161545450
| 39>  H        7.3297885032     0.0911360108    -1.3505280450
| 40> *
| 41>
| 42>                          ****END OF INPUT****
 Total Charge           Charge          ....    1
 Multiplicity           Mult            ....    1
 Number of Electrons    NEL             ....   54
FINAL SINGLE POINT ENERGY      -341.982772831516
FINAL SINGLE POINT ENERGY      -341.982774326469

CARTESIAN COORDINATES (ANGSTROEM)
---------------------------------
  N      1.102847   -0.002301   -2.479734
  C      0.944044   -0.019246   -0.990586
  C     -0.498245    0.005605   -0.582060
  C     -1.523638    0.022134   -1.435490
  C     -0.707561    0.008569    0.856049
  N      0.319043   -0.007487    1.610067
  O      0.000962   -0.003760    2.923389
  H      2.089354   -0.010459   -2.743755
  H      0.671540    0.833125   -2.882340
  H      0.652816   -0.816506   -2.904519
  H      1.446291   -0.914413   -0.621041
  H      1.482063    0.844036   -0.596774
  H     -2.541861    0.039095   -1.067480
  H     -1.428695    0.019280   -2.515896
  H     -1.721168    0.023127    1.254155
  H      0.847889   -0.016829    3.383777

FINAL SINGLE POINT ENERGY      -341.982775009678
                    ***********************HURRAY********************
 Multiplicity           Mult            ....    1
 Number of Electrons    NEL             ....   54
 Basis Dimension        Dim             ....  271
FINAL SINGLE POINT ENERGY      -341.982775650208

VIBRATIONAL FREQUENCIES
-----------------------

   0:         0.00 cm**-1
   1:         0.00 cm**-1
   2:         0.00 cm**-1
   3:         0.00 cm**-1
   4:         0.00 cm**-1
   5:         0.00 cm**-1
   6:        63.45 cm**-1
   7:       163.12 cm**-1
   8:       165.50 cm**-1
   9:       219.20 cm**-1
  10:       239.43 cm**-1
  11:       305.61 cm**-1
  12:       401.21 cm**-1
  13:       477.10 cm**-1
  14:       503.07 cm**-1
  15:       528.92 cm**-1
  16:       642.23 cm**-1
  17:       706.76 cm**-1
  18:       821.47 cm**-1
  19:       868.58 cm**-1
  20:       935.73 cm**-1
  21:       974.74 cm**-1
  22:       986.98 cm**-1
  23:      1001.43 cm**-1
  24:      1085.27 cm**-1
  25:      1109.48 cm**-1
  26:      1122.26 cm**-1
  27:      1280.04 cm**-1
  28:      1313.48 cm**-1
  29:      1330.01 cm**-1
  30:      1419.53 cm**-1
  31:      1443.44 cm**-1
  32:      1470.60 cm**-1
  33:      1483.85 cm**-1
  34:      1506.32 cm**-1
  35:      1648.55 cm**-1
  36:      1665.69 cm**-1
  37:      1699.84 cm**-1
  38:      1719.08 cm**-1
  39:      3104.77 cm**-1
  40:      3153.65 cm**-1
  41:      3153.98 cm**-1
  42:      3169.21 cm**-1
  43:      3252.50 cm**-1
  44:      3421.30 cm**-1
  45:      3496.13 cm**-1
  46:      3514.18 cm**-1
  47:      3828.32 cm**-1

IR SPECTRUM
-----------

 Mode    freq (cm**-1)   T**2         TX         TY         TZ
-------------------------------------------------------------------
   6:        63.45    4.826797  (  0.029123   2.196594   0.030370)
   7:       163.12   10.856203  ( -1.662000   0.029894  -2.844831)
   8:       165.50    0.552805  (  0.020351   0.743228   0.001908)
   9:       219.20    0.129938  ( -0.005626   0.360146   0.014207)
  10:       239.43    0.947126  ( -0.014742  -0.973039   0.010225)
  11:       305.61   20.679198  ( -2.936925   0.033176   3.471681)
  12:       401.21   17.327731  ( -2.401835   0.043643   3.399561)
  13:       477.10    4.283303  ( -1.567337  -0.037978   1.351042)
  14:       503.07  151.688762  ( -0.201618 -12.314525  -0.024120)
  15:       528.92    1.696262  ( -0.016505  -1.302027  -0.026727)
  16:       642.23   10.740555  ( -1.170970  -0.000791  -3.060945)
  17:       706.76    0.273078  ( -0.022984  -0.522053   0.003114)
  18:       821.47   13.540274  (  2.844868  -0.030410  -2.333683)
  19:       868.58    4.617713  ( -0.027077  -2.148543  -0.027219)
  20:       935.73   35.967876  (  0.071196   5.996886   0.012819)
  21:       974.74   23.914948  (  0.067291   4.889827  -0.003831)
  22:       986.98    1.782848  ( -0.692560  -0.014079   1.141495)
  23:      1001.43    3.920124  ( -1.365606   0.005136   1.433603)
  24:      1085.27   30.248669  (  2.611124  -0.045775  -4.840310)
  25:      1109.48    5.288394  (  0.060553   2.298021  -0.061857)
  26:      1122.26  225.267189  (  5.653514  -0.114018  13.902948)
  27:      1280.04   24.987980  (  2.800645  -0.031173  -4.140458)
  28:      1313.48   24.899251  (  0.455798  -0.008195  -4.969047)
  29:      1330.01    3.764378  (  0.012993  -1.940023  -0.022831)
  30:      1419.53   42.990568  (  0.549881   0.007100  -6.533617)
  31:      1443.44   24.193506  ( -2.584228   0.024798  -4.185052)
  32:      1470.60   14.399003  (  3.287691  -0.056425   1.893914)
  33:      1483.85   44.539634  ( -3.512988   0.022535   5.674332)
  34:      1506.32  152.476067  ( -1.280768  -0.116795  12.280963)
  35:      1648.55   58.994756  ( -0.149691  -7.679196  -0.047967)
  36:      1665.69   40.131952  ( -5.758772   0.127292   2.636720)
  37:      1699.84    0.453804  (  0.447980   0.007403  -0.503054)
  38:      1719.08   32.190561  ( -2.853236   0.042412  -4.903856)
  39:      3104.77    0.057510  (  0.229719   0.016713  -0.066786)
  40:      3153.65    1.058621  ( -0.223480   0.017526   1.004177)
  41:      3153.98    1.260307  (  0.019157   1.122425   0.010044)
  42:      3169.21    6.961179  (  2.298256  -0.033567  -1.295404)
  43:      3252.50    2.441953  (  0.581260  -0.012015   1.450499)
  44:      3421.30   40.685417  (  1.067833   0.084404  -6.287927)
  45:      3496.13   92.855631  (  0.013001  -9.634940  -0.152972)
  46:      3514.18  110.329700  ( 10.458646  -0.017212  -0.972694)
  47:      3828.32  214.341448  ( -9.146318   0.169773 -11.430551)

--------------------------
THERMOCHEMISTRY AT 298.15K
--------------------------

Temperature         ... 298.15 K
Pressure            ... 1.00 atm
Total Mass          ... 101.13 AMU

Throughout the following assumptions are being made:
  (1) The electronic state is orbitally nondegenerate
  (2) There are no thermally accessible electronically excited states
  (3) Hindered rotations indicated by low frequency modes) are not
      treated as such but are treated as vibrations and this may
      case some error
  (4) All equations used are the standard statistical mechanics
      equations for an ideal gas
  (5) All vibrations are strinctly harmonic

------------
INNER ENERGY
------------

The inner energy is: U= E(el) + E(ZPE) + E(vib) + E(rot) + E(trans)
    E(el)   - is the total energy from the electronic structure calculation
              = E(kin-el) + E(nuc-el) + E(el-el) + E(nuc-nuc)
    E(ZPE)  - the the zero temperature vibrational energy from the frequency calculation
    E(vib)  - the the finite temperature correction to E(ZPE) due to population
              of excietd vibrational states
    E(rot)  - is the rotational thermal energy
    E(trans)- is the translational thermal energy

Summary of contributions to the inner energy U:
Electronic energy                ...   -341.98277565 Eh
Zero point energy                ...      0.13987042 Eh      87.77 kcal/mol
Thermal vibrational correction   ...      0.00515430 Eh       3.23 kcal/mol
Thermal rotational correction    ...      0.00141627 Eh       0.89 kcal/mol
Thermal translational correction ...      0.00141627 Eh       0.89 kcal/mol
-----------------------------------------------------------------------
Total thermal energy                   -341.83491839 Eh

Summary of corrections to the electronic energy:
(perhaps to be used in another calculation)
Total thermal correction                  0.00798684 Eh       5.01 kcal/mol
Non-thermal (ZPE) correction              0.13987042 Eh      87.77 kcal/mol
-----------------------------------------------------------------------
Total correction                          0.14785726 Eh      92.78 kcal/mol

--------
ENTHALPY
--------

The enthalpy is H = U + kB*T
                kB is Boltzmann's constant
Total free energy                 ...   -341.83491839 Eh
Thermal Enthalpy correction       ...      0.00094421 Eh       0.59 kcal/mol
-----------------------------------------------------------------------
Total Enthalpy                    ...   -341.83397418 Eh

-------
ENTROPY
-------

The entropy contributions are T*S = T*(S(el)+S(vib)+S(rot)+S(trans)
     S(el)   - electronic entropy
     S(vib)  - vibrational entropy
     S(rot)  - rotational entropy
     S(trans)- translational entropy
The entropies will be listed as mutliplied by the temperature to get
units of energy

Electronic entropy                ...      0.00000000 Eh      0.00 kcal/mol
Vibrational entropy               ...      0.00913237 Eh      5.73 kcal/mol
Rotational entropy                ...      0.01224453 Eh      7.68 kcal/mol
Translational entropy             ...      0.01888714 Eh     11.85 kcal/mol
-----------------------------------------------------------------------
Final entropy term                ...      0.04026404 Eh     25.27 kcal/mol

CAUTION: The rotational entropy is not quite correctly treated here
         because it includes a symmetry number that is not yet correctly
         implemented in ORCA!
For a nonlinear molecule the correct rotational entropy is:
    S(rot) = R*(ln(qrot/sn)+1.5)
    R    = 8.31441 J/mol/K = 1.987191683e-3 kcal/mol/K
    qrot = 286939.4682609
    sn is the rotational symmetry number. We have assumed 3 here
       if it is different for your molecule then you should correct
       the printed rotational entropy by manually evaluating the equation
       as given above

For convenience we print out the resulting values for sn=1 - 12:
 sn= 1  qrot/sn=  286939.4683 T*S(rot)=     8.33 kcal/mol T*S(tot)=    25.92 kcal/mol
 sn= 2  qrot/sn=  143469.7341 T*S(rot)=     7.92 kcal/mol T*S(tot)=    25.51 kcal/mol
 sn= 3  qrot/sn=   95646.4894 T*S(rot)=     7.68 kcal/mol T*S(tot)=    25.27 kcal/mol
 sn= 4  qrot/sn=   71734.8671 T*S(rot)=     7.51 kcal/mol T*S(tot)=    25.10 kcal/mol
 sn= 5  qrot/sn=   57387.8937 T*S(rot)=     7.38 kcal/mol T*S(tot)=    24.96 kcal/mol
 sn= 6  qrot/sn=   47823.2447 T*S(rot)=     7.27 kcal/mol T*S(tot)=    24.86 kcal/mol
 sn= 7  qrot/sn=   40991.3526 T*S(rot)=     7.18 kcal/mol T*S(tot)=    24.76 kcal/mol
 sn= 8  qrot/sn=   35867.4335 T*S(rot)=     7.10 kcal/mol T*S(tot)=    24.68 kcal/mol
 sn= 9  qrot/sn=   31882.1631 T*S(rot)=     7.03 kcal/mol T*S(tot)=    24.62 kcal/mol
 sn=10  qrot/sn=   28693.9468 T*S(rot)=     6.97 kcal/mol T*S(tot)=    24.55 kcal/mol
 sn=11  qrot/sn=   26085.4062 T*S(rot)=     6.91 kcal/mol T*S(tot)=    24.50 kcal/mol
 sn=12  qrot/sn=   23911.6224 T*S(rot)=     6.86 kcal/mol T*S(tot)=    24.44 kcal/mol

-------------------
GIBBS FREE ENTHALPY
-------------------

The Gibbs free enthalpy is G = H - T*S

Total enthalpy                    ...   -341.83397418 Eh
Total entropy correction          ...     -0.04026404 Eh    -25.27 kcal/mol
-----------------------------------------------------------------------
Final Gibbs free enthalpy         ...   -341.87423822 Eh

For completeness - the Gibbs free enthalpy minus the electronic energy
G-E(el)                           ...      0.10853743 Eh     68.11 kcal/mol

                             ****ORCA TERMINATED NORMALLY****
TOTAL RUN TIME: 0 days 0 hours 29 minutes 34 seconds 101 msec
