                         Program Version 3.0.3 - RELEASE   -
|  1> ! NORI PBE0 def2-TZVP UseSym TightOPT Freq TightSCF Grid3 FinalGrid5 XYZFile
|  2> % pal
|  3>     nprocs 8
|  4> end
|  5> %method
|  6>     SymThresh 5.0e-2
|  7> end
|  8> % geom
|  9>     MaxIter 10
| 10> end
| 11> % maxcore 2000
| 12> % output
| 13>     printlevel mini
| 14>     print[ P_Basis ] 0
| 15>     print[ P_SCFInfo ] 1
| 16>     print[ P_SCFIterInfo ] 1
| 17>     print[ P_OrbEn ] 0
| 18>     print[ P_Cartesian ] 0
| 19> end
| 20> % elprop
| 21>     Dipole false
| 22> end
| 23> *xyz 1 1
| 24>  N        2.3771554630    -0.0441032001     0.8049396108
| 25>  C        2.7384303798     0.3350083281    -0.5974026505
| 26>  C        2.7522574519    -0.9004428456    -1.4549576247
| 27>  C        2.0476107715    -0.9877182631    -2.5776228526
| 28>  C        3.5681017863    -2.0263042957    -0.9029793942
| 29>  N        4.1079608623    -2.9033447450    -1.7387024854
| 30>  O        3.7127922660    -2.1175073910     0.3257261363
| 31>  H        2.6432245431     0.6662490764     1.4839454650
| 32>  H        2.9389782190    -0.9718874295     0.9327753596
| 33>  H        1.3813425951    -0.2343901805     0.9047297564
| 34>  H        2.0431449162     1.0824293951    -0.9763321599
| 35>  H        3.7351428453     0.7794839677    -0.5452793656
| 36>  H        2.0443495212    -1.8814289490    -3.1910972736
| 37>  H        1.4295119247    -0.1657900766    -2.9224369801
| 38>  H        4.0971166042    -2.7722151744    -2.7348760565
| 39>  H        4.6297298504    -3.6775782169    -1.3565194852
| 40> *
| 41>
| 42>                          ****END OF INPUT****
 Total Charge           Charge          ....    1
 Multiplicity           Mult            ....    1
 Number of Electrons    NEL             ....   54
FINAL SINGLE POINT ENERGY      -342.084709549160
FINAL SINGLE POINT ENERGY      -342.084708976579
FINAL SINGLE POINT ENERGY      -342.084709739612
FINAL SINGLE POINT ENERGY      -342.084707788692

CARTESIAN COORDINATES (ANGSTROEM)
---------------------------------
  N      2.114062    0.001110    0.228233
  C      1.252704   -0.591959   -0.842765
  C     -0.116568    0.025960   -0.772475
  C     -0.688009    0.596826   -1.826995
  C     -0.737781   -0.002500    0.588092
  N     -2.059752   -0.016274    0.695248
  O      0.000053   -0.003769    1.585428
  H      2.929966   -0.570707    0.436839
  H      1.416317    0.050482    1.067549
  H      2.426249    0.941203   -0.009707
  H      1.712086   -0.447181   -1.819139
  H      1.203476   -1.663488   -0.634939
  H     -1.668426    1.056028   -1.775811
  H     -0.186553    0.640262   -2.787638
  H     -2.661692   -0.135264   -0.100353
  H     -2.469974   -0.004359    1.616771

FINAL SINGLE POINT ENERGY      -342.084710355245
                    ***********************HURRAY********************
 Multiplicity           Mult            ....    1
 Number of Electrons    NEL             ....   54
 Basis Dimension        Dim             ....  271
FINAL SINGLE POINT ENERGY      -342.084710367380

VIBRATIONAL FREQUENCIES
-----------------------

   0:         0.00 cm**-1
   1:         0.00 cm**-1
   2:         0.00 cm**-1
   3:         0.00 cm**-1
   4:         0.00 cm**-1
   5:         0.00 cm**-1
   6:        91.93 cm**-1
   7:       143.81 cm**-1
   8:       293.15 cm**-1
   9:       315.80 cm**-1
  10:       349.98 cm**-1
  11:       385.77 cm**-1
  12:       452.35 cm**-1
  13:       483.39 cm**-1
  14:       552.85 cm**-1
  15:       614.70 cm**-1
  16:       663.83 cm**-1
  17:       692.79 cm**-1
  18:       765.33 cm**-1
  19:       834.38 cm**-1
  20:       894.66 cm**-1
  21:       930.08 cm**-1
  22:      1002.05 cm**-1
  23:      1026.33 cm**-1
  24:      1103.33 cm**-1
  25:      1116.71 cm**-1
  26:      1147.88 cm**-1
  27:      1264.56 cm**-1
  28:      1310.20 cm**-1
  29:      1377.84 cm**-1
  30:      1431.08 cm**-1
  31:      1454.14 cm**-1
  32:      1487.50 cm**-1
  33:      1491.71 cm**-1
  34:      1614.87 cm**-1
  35:      1632.08 cm**-1
  36:      1673.46 cm**-1
  37:      1713.59 cm**-1
  38:      1750.48 cm**-1
  39:      2426.80 cm**-1
  40:      3090.43 cm**-1
  41:      3161.40 cm**-1
  42:      3167.98 cm**-1
  43:      3256.12 cm**-1
  44:      3484.70 cm**-1
  45:      3555.28 cm**-1
  46:      3598.08 cm**-1
  47:      3730.54 cm**-1

IR SPECTRUM
-----------

 Mode    freq (cm**-1)   T**2         TX         TY         TZ
-------------------------------------------------------------------
   6:        91.93   16.103253  ( -0.004933  -4.009607   0.162120)
   7:       143.81   10.644727  ( -1.456275  -2.486622   1.529935)
   8:       293.15    2.918653  ( -1.412125  -0.223360   0.935236)
   9:       315.80   98.805666  ( -8.733329   1.975875   4.316312)
  10:       349.98   62.355242  (  7.799846   0.116082  -1.226446)
  11:       385.77    6.042293  (  0.814506  -0.985348   2.099515)
  12:       452.35    4.504844  (  2.007513  -0.577731   0.375447)
  13:       483.39  163.416735  ( -1.612550  12.655601  -0.807572)
  14:       552.85   34.596441  (  5.512032  -0.597895  -1.963790)
  15:       614.70   26.570822  ( -3.167280  -3.581455   1.926743)
  16:       663.83   36.956416  ( -5.566802   1.635563   1.814404)
  17:       692.79   14.097960  ( -1.557472  -3.415506   0.080974)
  18:       765.33   38.666149  (  5.561781   0.774625  -2.670711)
  19:       834.38   16.712742  ( -2.016572  -3.321125   1.271341)
  20:       894.66   19.371225  ( -2.563674  -0.623442   3.522800)
  21:       930.08   15.802481  (  3.868879   0.104678  -0.907357)
  22:      1002.05    6.060890  ( -2.334728  -0.775215  -0.094748)
  23:      1026.33   30.396006  (  1.792905   5.076578   1.187373)
  24:      1103.33   11.304342  ( -2.469480   0.725087   2.163391)
  25:      1116.71  105.551983  ( -9.729445   1.025582   3.136569)
  26:      1147.88   28.250328  ( -4.156494   2.496426   2.177554)
  27:      1264.56    9.169322  ( -2.893429   0.880458  -0.148944)
  28:      1310.20  129.911453  (-10.037486  -0.263101  -5.393618)
  29:      1377.84  142.135813  ( 11.686433   2.202206   0.844616)
  30:      1431.08  193.841105  (-13.625412  -1.989739  -2.056743)
  31:      1454.14  239.348834  ( 15.468369   0.264008  -0.093230)
  32:      1487.50   67.884257  (  4.194986  -2.579622   6.605445)
  33:      1491.71   46.120035  (  2.235469  -0.742799  -6.369534)
  34:      1614.87   56.236239  ( -4.708287  -4.023626   4.228321)
  35:      1632.08   56.938027  ( -5.715836   2.245802   4.384474)
  36:      1673.46   67.693262  ( -7.141191   3.967094  -0.979191)
  37:      1713.59   91.763961  (  9.471018   0.972855   1.057044)
  38:      1750.48  184.139167  ( 12.264624   1.234857   5.673913)
  39:      2426.80  923.058101  ( 25.022825  -1.098943 -17.196182)
  40:      3090.43    0.424706  ( -0.146618   0.471334   0.425504)
  41:      3161.40    0.373921  ( -0.109833  -0.421558  -0.429123)
  42:      3167.98    0.570705  (  0.203392  -0.530202   0.498219)
  43:      3256.12    0.068699  ( -0.082866   0.243586   0.049977)
  44:      3484.70   74.279632  (  8.327470   2.215638   0.154335)
  45:      3555.28   80.325112  ( -3.361601   7.963030  -2.369578)
  46:      3598.08  123.487255  ( 10.088871   0.845391  -4.581184)
  47:      3730.54   86.466816  (  1.939351   1.092258   9.028439)

--------------------------
THERMOCHEMISTRY AT 298.15K
--------------------------

Temperature         ... 298.15 K
Pressure            ... 1.00 atm
Total Mass          ... 101.13 AMU

Throughout the following assumptions are being made:
  (1) The electronic state is orbitally nondegenerate
  (2) There are no thermally accessible electronically excited states
  (3) Hindered rotations indicated by low frequency modes) are not
      treated as such but are treated as vibrations and this may
      case some error
  (4) All equations used are the standard statistical mechanics
      equations for an ideal gas
  (5) All vibrations are strinctly harmonic

------------
INNER ENERGY
------------

The inner energy is: U= E(el) + E(ZPE) + E(vib) + E(rot) + E(trans)
    E(el)   - is the total energy from the electronic structure calculation
              = E(kin-el) + E(nuc-el) + E(el-el) + E(nuc-nuc)
    E(ZPE)  - the the zero temperature vibrational energy from the frequency calculation
    E(vib)  - the the finite temperature correction to E(ZPE) due to population
              of excietd vibrational states
    E(rot)  - is the rotational thermal energy
    E(trans)- is the translational thermal energy

Summary of contributions to the inner energy U:
Electronic energy                ...   -342.08471037 Eh
Zero point energy                ...      0.14018465 Eh      87.97 kcal/mol
Thermal vibrational correction   ...      0.00446730 Eh       2.80 kcal/mol
Thermal rotational correction    ...      0.00141627 Eh       0.89 kcal/mol
Thermal translational correction ...      0.00141627 Eh       0.89 kcal/mol
-----------------------------------------------------------------------
Total thermal energy                   -341.93722587 Eh

Summary of corrections to the electronic energy:
(perhaps to be used in another calculation)
Total thermal correction                  0.00729984 Eh       4.58 kcal/mol
Non-thermal (ZPE) correction              0.14018465 Eh      87.97 kcal/mol
-----------------------------------------------------------------------
Total correction                          0.14748450 Eh      92.55 kcal/mol

--------
ENTHALPY
--------

The enthalpy is H = U + kB*T
                kB is Boltzmann's constant
Total free energy                 ...   -341.93722587 Eh
Thermal Enthalpy correction       ...      0.00094421 Eh       0.59 kcal/mol
-----------------------------------------------------------------------
Total Enthalpy                    ...   -341.93628166 Eh

-------
ENTROPY
-------

The entropy contributions are T*S = T*(S(el)+S(vib)+S(rot)+S(trans)
     S(el)   - electronic entropy
     S(vib)  - vibrational entropy
     S(rot)  - rotational entropy
     S(trans)- translational entropy
The entropies will be listed as mutliplied by the temperature to get
units of energy

Electronic entropy                ...      0.00000000 Eh      0.00 kcal/mol
Vibrational entropy               ...      0.00743817 Eh      4.67 kcal/mol
Rotational entropy                ...      0.01203070 Eh      7.55 kcal/mol
Translational entropy             ...      0.01888714 Eh     11.85 kcal/mol
-----------------------------------------------------------------------
Final entropy term                ...      0.03835601 Eh     24.07 kcal/mol

CAUTION: The rotational entropy is not quite correctly treated here
         because it includes a symmetry number that is not yet correctly
         implemented in ORCA!
For a nonlinear molecule the correct rotational entropy is:
    S(rot) = R*(ln(qrot/sn)+1.5)
    R    = 8.31441 J/mol/K = 1.987191683e-3 kcal/mol/K
    qrot = 228788.5902858
    sn is the rotational symmetry number. We have assumed 3 here
       if it is different for your molecule then you should correct
       the printed rotational entropy by manually evaluating the equation
       as given above

For convenience we print out the resulting values for sn=1 - 12:
 sn= 1  qrot/sn=  228788.5903 T*S(rot)=     8.20 kcal/mol T*S(tot)=    24.72 kcal/mol
 sn= 2  qrot/sn=  114394.2951 T*S(rot)=     7.79 kcal/mol T*S(tot)=    24.31 kcal/mol
 sn= 3  qrot/sn=   76262.8634 T*S(rot)=     7.55 kcal/mol T*S(tot)=    24.07 kcal/mol
 sn= 4  qrot/sn=   57197.1476 T*S(rot)=     7.38 kcal/mol T*S(tot)=    23.90 kcal/mol
 sn= 5  qrot/sn=   45757.7181 T*S(rot)=     7.25 kcal/mol T*S(tot)=    23.77 kcal/mol
 sn= 6  qrot/sn=   38131.4317 T*S(rot)=     7.14 kcal/mol T*S(tot)=    23.66 kcal/mol
 sn= 7  qrot/sn=   32684.0843 T*S(rot)=     7.05 kcal/mol T*S(tot)=    23.57 kcal/mol
 sn= 8  qrot/sn=   28598.5738 T*S(rot)=     6.97 kcal/mol T*S(tot)=    23.49 kcal/mol
 sn= 9  qrot/sn=   25420.9545 T*S(rot)=     6.90 kcal/mol T*S(tot)=    23.42 kcal/mol
 sn=10  qrot/sn=   22878.8590 T*S(rot)=     6.84 kcal/mol T*S(tot)=    23.36 kcal/mol
 sn=11  qrot/sn=   20798.9628 T*S(rot)=     6.78 kcal/mol T*S(tot)=    23.30 kcal/mol
 sn=12  qrot/sn=   19065.7159 T*S(rot)=     6.73 kcal/mol T*S(tot)=    23.25 kcal/mol

-------------------
GIBBS FREE ENTHALPY
-------------------

The Gibbs free enthalpy is G = H - T*S

Total enthalpy                    ...   -341.93628166 Eh
Total entropy correction          ...     -0.03835601 Eh    -24.07 kcal/mol
-----------------------------------------------------------------------
Final Gibbs free enthalpy         ...   -341.97463767 Eh

For completeness - the Gibbs free enthalpy minus the electronic energy
G-E(el)                           ...      0.11007270 Eh     69.07 kcal/mol

                             ****ORCA TERMINATED NORMALLY****
TOTAL RUN TIME: 0 days 0 hours 34 minutes 10 seconds 348 msec
