                         Program Version 3.0.3 - RELEASE   -
|  1> ! NORI PBE0 def2-TZVP UseSym TightOPT Freq TightSCF Grid3 FinalGrid5 XYZFile
|  2> % pal
|  3>     nprocs 8
|  4> end
|  5> %method
|  6>     SymThresh 5.0e-2
|  7> end
|  8> % geom
|  9>     MaxIter 10
| 10> end
| 11> % maxcore 2000
| 12> % output
| 13>     printlevel mini
| 14>     print[ P_Basis ] 0
| 15>     print[ P_SCFInfo ] 1
| 16>     print[ P_SCFIterInfo ] 1
| 17>     print[ P_OrbEn ] 0
| 18>     print[ P_Cartesian ] 0
| 19> end
| 20> % elprop
| 21>     Dipole false
| 22> end
| 23> *xyz 1 1
| 24>  N        1.4326414745     0.6811266047     0.1184697361
| 25>  C        1.9469986288    -0.7028041482     0.4544078930
| 26>  C        2.9109338788    -0.6049694488     1.5897538627
| 27>  C        2.4550897785    -0.2753966982     2.9330044482
| 28>  C        1.1787398900    -0.2754430531     3.3207381947
| 29>  N        4.1300437950    -0.7773923388     1.2245451170
| 30>  O        5.0145954789    -0.6884869469     2.2345993602
| 31>  H        0.7055241830     0.6623280428    -0.5994451229
| 32>  H        2.1999303060     1.2690071755    -0.2153173374
| 33>  H        1.0510629807     1.1205191754     0.9616369054
| 34>  H        2.4438281812    -1.0909959954    -0.4325944593
| 35>  H        1.0720085805    -1.3115797310     0.6832624412
| 36>  H        3.2334032164    -0.0143084485     3.6405930014
| 37>  H        0.3570720011    -0.5776904128     2.6768868292
| 38>  H        0.9067799295    -0.0113137732     4.3348514907
| 39>  H        5.8702676968    -0.8623800034     1.8239976399
| 40> *
| 41>
| 42>                          ****END OF INPUT****
 Total Charge           Charge          ....    1
 Multiplicity           Mult            ....    1
 Number of Electrons    NEL             ....   54
FINAL SINGLE POINT ENERGY      -341.982924785943
FINAL SINGLE POINT ENERGY      -341.982926401648

CARTESIAN COORDINATES (ANGSTROEM)
---------------------------------
  N      1.403738   -0.001002   -1.785193
  C      0.512817   -0.954049   -1.017127
  C     -0.046400   -0.248672    0.173440
  C     -1.044210    0.800799    0.020841
  C     -1.710908    1.053818   -1.106600
  N      0.490967   -0.628080    1.276483
  O      0.001552    0.001461    2.360316
  H      1.750013   -0.407843   -2.656230
  H      2.207414    0.265980   -1.212254
  H      0.883944    0.853934   -2.005455
  H      1.127135   -1.796353   -0.705449
  H     -0.252996   -1.293057   -1.714938
  H     -1.232120    1.400054    0.904203
  H     -1.608559    0.457809   -2.009632
  H     -2.435888    1.856680   -1.154509
  H      0.474196   -0.392335    3.103645

FINAL SINGLE POINT ENERGY      -341.982927190503
                    ***********************HURRAY********************
 Multiplicity           Mult            ....    1
 Number of Electrons    NEL             ....   54
 Basis Dimension        Dim             ....  271
FINAL SINGLE POINT ENERGY      -341.982927732237

VIBRATIONAL FREQUENCIES
-----------------------

   0:         0.00 cm**-1
   1:         0.00 cm**-1
   2:         0.00 cm**-1
   3:         0.00 cm**-1
   4:         0.00 cm**-1
   5:         0.00 cm**-1
   6:        63.86 cm**-1
   7:       131.43 cm**-1
   8:       178.87 cm**-1
   9:       226.55 cm**-1
  10:       249.76 cm**-1
  11:       338.98 cm**-1
  12:       364.91 cm**-1
  13:       469.82 cm**-1
  14:       479.82 cm**-1
  15:       563.25 cm**-1
  16:       647.12 cm**-1
  17:       779.96 cm**-1
  18:       791.68 cm**-1
  19:       855.10 cm**-1
  20:       905.60 cm**-1
  21:       987.32 cm**-1
  22:      1017.84 cm**-1
  23:      1049.42 cm**-1
  24:      1075.38 cm**-1
  25:      1095.30 cm**-1
  26:      1148.91 cm**-1
  27:      1310.32 cm**-1
  28:      1321.34 cm**-1
  29:      1333.96 cm**-1
  30:      1392.47 cm**-1
  31:      1434.92 cm**-1
  32:      1457.20 cm**-1
  33:      1486.23 cm**-1
  34:      1494.67 cm**-1
  35:      1648.01 cm**-1
  36:      1663.11 cm**-1
  37:      1676.42 cm**-1
  38:      1711.37 cm**-1
  39:      3114.55 cm**-1
  40:      3151.50 cm**-1
  41:      3183.92 cm**-1
  42:      3213.81 cm**-1
  43:      3251.20 cm**-1
  44:      3404.67 cm**-1
  45:      3483.59 cm**-1
  46:      3509.89 cm**-1
  47:      3817.98 cm**-1

IR SPECTRUM
-----------

 Mode    freq (cm**-1)   T**2         TX         TY         TZ
-------------------------------------------------------------------
   6:        63.86    8.367836  (  2.574101  -0.712367   1.111025)
   7:       131.43    3.149775  (  1.182824  -0.690299  -1.128800)
   8:       178.87   13.493702  ( -1.363124   2.358073   2.464769)
   9:       226.55    0.381464  (  0.136074   0.427564   0.424425)
  10:       249.76    0.794106  ( -0.383008  -0.804535   0.011565)
  11:       338.98    2.492969  (  1.102846  -0.327948   1.081272)
  12:       364.91    8.421482  (  1.433252   2.352030   0.913906)
  13:       469.82   45.390343  ( -5.168090  -2.612355   3.443369)
  14:       479.82   20.785408  (  3.622139   2.722225  -0.504988)
  15:       563.25   76.048431  ( -6.187563  -6.139881   0.253680)
  16:       647.12   12.229135  ( -0.616890   2.873410   1.895282)
  17:       779.96    4.109566  ( -0.308094  -1.999367  -0.131048)
  18:       791.68   10.705340  (  3.154860  -0.721946  -0.480619)
  19:       855.10    5.347743  (  2.301590   0.022565   0.223419)
  20:       905.60   40.996233  ( -2.501474   0.268855   5.887833)
  21:       987.32   49.804268  ( -4.462919  -4.532200   3.057088)
  22:      1017.84   18.406812  ( -2.953317   2.784903  -1.388900)
  23:      1049.42   17.095911  ( -3.543681  -2.030450   0.644603)
  24:      1075.38   54.504321  ( -2.073803   0.109617  -7.084606)
  25:      1095.30   39.056324  (  1.529197  -4.026927  -4.527885)
  26:      1148.91  169.681450  ( -1.829070   1.200553 -12.841130)
  27:      1310.32   12.025813  ( -1.317780   1.347458   2.910949)
  28:      1321.34    1.353500  ( -0.260501  -1.009497   0.516290)
  29:      1333.96   20.406150  (  1.936866  -0.906729   3.979013)
  30:      1392.47   27.198226  (  0.904487  -2.698779  -4.369979)
  31:      1434.92   98.323754  ( -1.661548   1.190433   9.702880)
  32:      1457.20   24.429682  (  3.967879  -2.869614  -0.671514)
  33:      1486.23   33.826616  (  2.684295   5.152573   0.268639)
  34:      1494.67  141.219394  ( -7.541362  -6.006132   6.947923)
  35:      1648.01   40.665119  (  5.026678  -2.197319   3.251065)
  36:      1663.11   29.300008  (  1.887427  -3.963978  -3.166151)
  37:      1676.42    2.921610  (  0.789274  -0.521012   1.423799)
  38:      1711.37    8.893092  (  0.294898  -0.495586  -2.925837)
  39:      3114.55    1.252792  (  0.218139  -0.250124   1.068946)
  40:      3151.50    8.820036  (  1.435061  -1.879219  -1.796989)
  41:      3183.92    1.402112  (  0.682874  -0.889959   0.379167)
  42:      3213.81    6.054724  (  0.084877   0.578482   2.390163)
  43:      3251.20    0.732247  (  0.273055  -0.213571   0.782353)
  44:      3404.67   26.019723  ( -1.559158  -4.241412   2.366257)
  45:      3483.59  107.318705  (  9.437691  -4.193566  -0.814061)
  46:      3509.89   96.405817  ( -1.251198  -4.916655  -8.406356)
  47:      3817.98  250.742576  ( -5.186574   3.904511 -14.442881)

--------------------------
THERMOCHEMISTRY AT 298.15K
--------------------------

Temperature         ... 298.15 K
Pressure            ... 1.00 atm
Total Mass          ... 101.13 AMU

Throughout the following assumptions are being made:
  (1) The electronic state is orbitally nondegenerate
  (2) There are no thermally accessible electronically excited states
  (3) Hindered rotations indicated by low frequency modes) are not
      treated as such but are treated as vibrations and this may
      case some error
  (4) All equations used are the standard statistical mechanics
      equations for an ideal gas
  (5) All vibrations are strinctly harmonic

------------
INNER ENERGY
------------

The inner energy is: U= E(el) + E(ZPE) + E(vib) + E(rot) + E(trans)
    E(el)   - is the total energy from the electronic structure calculation
              = E(kin-el) + E(nuc-el) + E(el-el) + E(nuc-nuc)
    E(ZPE)  - the the zero temperature vibrational energy from the frequency calculation
    E(vib)  - the the finite temperature correction to E(ZPE) due to population
              of excietd vibrational states
    E(rot)  - is the rotational thermal energy
    E(trans)- is the translational thermal energy

Summary of contributions to the inner energy U:
Electronic energy                ...   -341.98292773 Eh
Zero point energy                ...      0.14006632 Eh      87.89 kcal/mol
Thermal vibrational correction   ...      0.00513646 Eh       3.22 kcal/mol
Thermal rotational correction    ...      0.00141627 Eh       0.89 kcal/mol
Thermal translational correction ...      0.00141627 Eh       0.89 kcal/mol
-----------------------------------------------------------------------
Total thermal energy                   -341.83489240 Eh

Summary of corrections to the electronic energy:
(perhaps to be used in another calculation)
Total thermal correction                  0.00796901 Eh       5.00 kcal/mol
Non-thermal (ZPE) correction              0.14006632 Eh      87.89 kcal/mol
-----------------------------------------------------------------------
Total correction                          0.14803533 Eh      92.89 kcal/mol

--------
ENTHALPY
--------

The enthalpy is H = U + kB*T
                kB is Boltzmann's constant
Total free energy                 ...   -341.83489240 Eh
Thermal Enthalpy correction       ...      0.00094421 Eh       0.59 kcal/mol
-----------------------------------------------------------------------
Total Enthalpy                    ...   -341.83394819 Eh

-------
ENTROPY
-------

The entropy contributions are T*S = T*(S(el)+S(vib)+S(rot)+S(trans)
     S(el)   - electronic entropy
     S(vib)  - vibrational entropy
     S(rot)  - rotational entropy
     S(trans)- translational entropy
The entropies will be listed as mutliplied by the temperature to get
units of energy

Electronic entropy                ...      0.00000000 Eh      0.00 kcal/mol
Vibrational entropy               ...      0.00914873 Eh      5.74 kcal/mol
Rotational entropy                ...      0.01218784 Eh      7.65 kcal/mol
Translational entropy             ...      0.01888714 Eh     11.85 kcal/mol
-----------------------------------------------------------------------
Final entropy term                ...      0.04022371 Eh     25.24 kcal/mol

CAUTION: The rotational entropy is not quite correctly treated here
         because it includes a symmetry number that is not yet correctly
         implemented in ORCA!
For a nonlinear molecule the correct rotational entropy is:
    S(rot) = R*(ln(qrot/sn)+1.5)
    R    = 8.31441 J/mol/K = 1.987191683e-3 kcal/mol/K
    qrot = 270217.4472123
    sn is the rotational symmetry number. We have assumed 3 here
       if it is different for your molecule then you should correct
       the printed rotational entropy by manually evaluating the equation
       as given above

For convenience we print out the resulting values for sn=1 - 12:
 sn= 1  qrot/sn=  270217.4472 T*S(rot)=     8.30 kcal/mol T*S(tot)=    25.89 kcal/mol
 sn= 2  qrot/sn=  135108.7236 T*S(rot)=     7.89 kcal/mol T*S(tot)=    25.48 kcal/mol
 sn= 3  qrot/sn=   90072.4824 T*S(rot)=     7.65 kcal/mol T*S(tot)=    25.24 kcal/mol
 sn= 4  qrot/sn=   67554.3618 T*S(rot)=     7.48 kcal/mol T*S(tot)=    25.07 kcal/mol
 sn= 5  qrot/sn=   54043.4894 T*S(rot)=     7.35 kcal/mol T*S(tot)=    24.94 kcal/mol
 sn= 6  qrot/sn=   45036.2412 T*S(rot)=     7.24 kcal/mol T*S(tot)=    24.83 kcal/mol
 sn= 7  qrot/sn=   38602.4925 T*S(rot)=     7.15 kcal/mol T*S(tot)=    24.74 kcal/mol
 sn= 8  qrot/sn=   33777.1809 T*S(rot)=     7.07 kcal/mol T*S(tot)=    24.66 kcal/mol
 sn= 9  qrot/sn=   30024.1608 T*S(rot)=     7.00 kcal/mol T*S(tot)=    24.59 kcal/mol
 sn=10  qrot/sn=   27021.7447 T*S(rot)=     6.93 kcal/mol T*S(tot)=    24.53 kcal/mol
 sn=11  qrot/sn=   24565.2225 T*S(rot)=     6.88 kcal/mol T*S(tot)=    24.47 kcal/mol
 sn=12  qrot/sn=   22518.1206 T*S(rot)=     6.83 kcal/mol T*S(tot)=    24.42 kcal/mol

-------------------
GIBBS FREE ENTHALPY
-------------------

The Gibbs free enthalpy is G = H - T*S

Total enthalpy                    ...   -341.83394819 Eh
Total entropy correction          ...     -0.04022371 Eh    -25.24 kcal/mol
-----------------------------------------------------------------------
Final Gibbs free enthalpy         ...   -341.87417190 Eh

For completeness - the Gibbs free enthalpy minus the electronic energy
G-E(el)                           ...      0.10875583 Eh     68.25 kcal/mol

                             ****ORCA TERMINATED NORMALLY****
TOTAL RUN TIME: 0 days 0 hours 29 minutes 24 seconds 659 msec
