                         Program Version 3.0.3 - RELEASE   -
|  1> ! NORI PBE0 def2-TZVP UseSym TightOPT Freq TightSCF Grid3 FinalGrid5 XYZFile
|  2> % pal
|  3>     nprocs 8
|  4> end
|  5> %method
|  6>     SymThresh 5.0e-2
|  7> end
|  8> % geom
|  9>     MaxIter 10
| 10> end
| 11> % maxcore 2000
| 12> % output
| 13>     printlevel mini
| 14>     print[ P_Basis ] 0
| 15>     print[ P_SCFInfo ] 1
| 16>     print[ P_SCFIterInfo ] 1
| 17>     print[ P_OrbEn ] 0
| 18>     print[ P_Cartesian ] 0
| 19> end
| 20> % elprop
| 21>     Dipole false
| 22> end
| 23> *xyz 1 1
| 24>  N        1.1974597706     0.7043762215     0.3603561586
| 25>  C        2.2304492000    -0.2403820838    -0.2365327658
| 26>  C        2.7029743446    -1.1457247945     0.7727071532
| 27>  C        3.1223239054    -1.8874811613     1.6254103778
| 28>  C        3.5872162602    -2.7992366995     2.5998448837
| 29>  N        4.4252725539    -2.3720851494     3.4676472478
| 30>  O        4.7825063263    -3.3357500324     4.3320116728
| 31>  H        0.8398096980     1.3686937093    -0.3305604602
| 32>  H        1.6106961366     1.2290500435     1.1349998048
| 33>  H        0.4114264984     0.1716840063     0.7402219482
| 34>  H        3.0259918884     0.3903776211    -0.6405710628
| 35>  H        1.7382898068    -0.7556090081    -1.0645497762
| 36>  H        3.2307722241    -3.8285692623     2.5921952399
| 37>  H        5.4114613867    -2.9096534103     4.9271995783
| 38> *
| 39>
| 40>                          ****END OF INPUT****
 Total Charge           Charge          ....    1
 Multiplicity           Mult            ....    1
 Number of Electrons    NEL             ....   52
FINAL SINGLE POINT ENERGY      -340.724624946420
FINAL SINGLE POINT ENERGY      -340.724625448071
FINAL SINGLE POINT ENERGY      -340.724625700714

CARTESIAN COORDINATES (ANGSTROEM)
---------------------------------
  N      1.039460    0.002019   -3.189353
  C     -0.351579   -0.254279   -2.625590
  C     -0.363030    0.013161   -1.215073
  C     -0.369329    0.207650   -0.025491
  C     -0.407555    0.481225    1.360285
  N      0.098058   -0.384376    2.155982
  O     -0.002554   -0.000484    3.438876
  H      1.087049   -0.184271   -4.194123
  H      1.723557   -0.591452   -2.713968
  H      1.312370    0.973494   -3.022992
  H     -0.588722   -1.295644   -2.856996
  H     -1.035056    0.391955   -3.181045
  H     -0.860016    1.405503    1.717795
  H      0.395617   -0.721346    3.941977

FINAL SINGLE POINT ENERGY      -340.724626105072
                    ***********************HURRAY********************
 Multiplicity           Mult            ....    1
 Number of Electrons    NEL             ....   52
 Basis Dimension        Dim             ....  259
FINAL SINGLE POINT ENERGY      -340.724626270701

VIBRATIONAL FREQUENCIES
-----------------------

   0:         0.00 cm**-1
   1:         0.00 cm**-1
   2:         0.00 cm**-1
   3:         0.00 cm**-1
   4:         0.00 cm**-1
   5:         0.00 cm**-1
   6:        42.81 cm**-1
   7:        98.52 cm**-1
   8:       110.80 cm**-1
   9:       205.11 cm**-1
  10:       213.18 cm**-1
  11:       313.74 cm**-1
  12:       415.76 cm**-1
  13:       470.37 cm**-1
  14:       520.59 cm**-1
  15:       554.46 cm**-1
  16:       576.13 cm**-1
  17:       824.54 cm**-1
  18:       856.50 cm**-1
  19:       906.37 cm**-1
  20:       940.14 cm**-1
  21:      1082.70 cm**-1
  22:      1102.12 cm**-1
  23:      1123.76 cm**-1
  24:      1233.74 cm**-1
  25:      1292.20 cm**-1
  26:      1323.35 cm**-1
  27:      1397.86 cm**-1
  28:      1462.99 cm**-1
  29:      1476.69 cm**-1
  30:      1499.64 cm**-1
  31:      1644.72 cm**-1
  32:      1660.33 cm**-1
  33:      1671.95 cm**-1
  34:      2351.81 cm**-1
  35:      3080.89 cm**-1
  36:      3131.73 cm**-1
  37:      3145.93 cm**-1
  38:      3410.74 cm**-1
  39:      3500.65 cm**-1
  40:      3503.42 cm**-1
  41:      3815.99 cm**-1

IR SPECTRUM
-----------

 Mode    freq (cm**-1)   T**2         TX         TY         TZ
-------------------------------------------------------------------
   6:        42.81    6.840059  ( -1.883585   1.134382  -1.416102)
   7:        98.52   11.321516  ( -2.060173  -0.151929  -2.655959)
   8:       110.80    8.785663  (  0.829130   2.816480   0.407001)
   9:       205.11    3.031064  ( -0.511806   0.360453   1.624559)
  10:       213.18    0.034014  ( -0.127680   0.130162   0.027747)
  11:       313.74    6.154369  ( -0.630008   2.397873  -0.087537)
  12:       415.76   28.648410  (  3.595742  -0.159503  -3.961515)
  13:       470.37    3.382232  (  1.148274   1.407248  -0.288707)
  14:       520.59   16.510510  ( -2.725304  -1.488695  -2.620499)
  15:       554.46  110.446843  ( -9.286220  -4.744074   1.306417)
  16:       576.13   27.591526  ( -4.805490  -2.019726  -0.647685)
  17:       824.54   67.572518  (  2.121352  -0.621459  -7.917460)
  18:       856.50    9.388505  ( -0.756186   2.953698  -0.303899)
  19:       906.37   17.003585  (  2.363909   1.102982  -3.193580)
  20:       940.14   13.194890  (  3.235202   1.648319  -0.106787)
  21:      1082.70   44.997804  ( -3.101993  -0.286288  -5.940832)
  22:      1102.12    8.431910  (  0.928085  -2.197677   1.655532)
  23:      1123.76  214.750209  ( -1.600003   3.214003 -14.207758)
  24:      1233.74   59.755579  ( -0.335443   0.319178  -7.716293)
  25:      1292.20  137.631442  (  1.435097  -3.364163 -11.146943)
  26:      1323.35    7.497791  ( -0.645169   2.655826   0.167731)
  27:      1397.86  178.367806  (  0.633187  -1.093254 -13.295551)
  28:      1462.99   10.593519  (  0.623437  -0.339381   3.176423)
  29:      1476.69   12.664907  (  1.626559   0.853578   3.048051)
  30:      1499.64  155.836901  ( 10.621463   1.941197  -6.265235)
  31:      1644.72   53.009852  ( -1.874384   6.781626  -1.872454)
  32:      1660.33   32.724051  ( -1.395223  -1.632513  -5.302104)
  33:      1671.95   63.918746  ( -0.645062   0.628242  -7.944051)
  34:      2351.81  242.407921  ( -0.909510   0.006678  15.542865)
  35:      3080.89    3.471761  ( -0.559262   0.067883   1.776057)
  36:      3131.73    1.941946  ( -0.397403   1.275462  -0.396502)
  37:      3145.93    1.498737  (  0.281501  -0.495887   1.083324)
  38:      3410.74   46.378249  ( -5.431791  -0.848073   4.019287)
  39:      3500.65  105.738697  ( -3.211143   9.302704  -2.981101)
  40:      3503.42   81.554236  ( -3.338695  -4.273114  -7.221347)
  41:      3815.99  259.133486  ( -4.346121   7.371403 -13.634777)

--------------------------
THERMOCHEMISTRY AT 298.15K
--------------------------

Temperature         ... 298.15 K
Pressure            ... 1.00 atm
Total Mass          ... 99.11 AMU

Throughout the following assumptions are being made:
  (1) The electronic state is orbitally nondegenerate
  (2) There are no thermally accessible electronically excited states
  (3) Hindered rotations indicated by low frequency modes) are not
      treated as such but are treated as vibrations and this may
      case some error
  (4) All equations used are the standard statistical mechanics
      equations for an ideal gas
  (5) All vibrations are strinctly harmonic

------------
INNER ENERGY
------------

The inner energy is: U= E(el) + E(ZPE) + E(vib) + E(rot) + E(trans)
    E(el)   - is the total energy from the electronic structure calculation
              = E(kin-el) + E(nuc-el) + E(el-el) + E(nuc-nuc)
    E(ZPE)  - the the zero temperature vibrational energy from the frequency calculation
    E(vib)  - the the finite temperature correction to E(ZPE) due to population
              of excietd vibrational states
    E(rot)  - is the rotational thermal energy
    E(trans)- is the translational thermal energy

Summary of contributions to the inner energy U:
Electronic energy                ...   -340.72462627 Eh
Zero point energy                ...      0.11610048 Eh      72.85 kcal/mol
Thermal vibrational correction   ...      0.00528534 Eh       3.32 kcal/mol
Thermal rotational correction    ...      0.00141627 Eh       0.89 kcal/mol
Thermal translational correction ...      0.00141627 Eh       0.89 kcal/mol
-----------------------------------------------------------------------
Total thermal energy                   -340.60040791 Eh

Summary of corrections to the electronic energy:
(perhaps to be used in another calculation)
Total thermal correction                  0.00811788 Eh       5.09 kcal/mol
Non-thermal (ZPE) correction              0.11610048 Eh      72.85 kcal/mol
-----------------------------------------------------------------------
Total correction                          0.12421836 Eh      77.95 kcal/mol

--------
ENTHALPY
--------

The enthalpy is H = U + kB*T
                kB is Boltzmann's constant
Total free energy                 ...   -340.60040791 Eh
Thermal Enthalpy correction       ...      0.00094421 Eh       0.59 kcal/mol
-----------------------------------------------------------------------
Total Enthalpy                    ...   -340.59946370 Eh

-------
ENTROPY
-------

The entropy contributions are T*S = T*(S(el)+S(vib)+S(rot)+S(trans)
     S(el)   - electronic entropy
     S(vib)  - vibrational entropy
     S(rot)  - rotational entropy
     S(trans)- translational entropy
The entropies will be listed as mutliplied by the temperature to get
units of energy

Electronic entropy                ...      0.00000000 Eh      0.00 kcal/mol
Vibrational entropy               ...      0.01023753 Eh      6.42 kcal/mol
Rotational entropy                ...      0.01226181 Eh      7.69 kcal/mol
Translational entropy             ...      0.01885862 Eh     11.83 kcal/mol
-----------------------------------------------------------------------
Final entropy term                ...      0.04135796 Eh     25.95 kcal/mol

CAUTION: The rotational entropy is not quite correctly treated here
         because it includes a symmetry number that is not yet correctly
         implemented in ORCA!
For a nonlinear molecule the correct rotational entropy is:
    S(rot) = R*(ln(qrot/sn)+1.5)
    R    = 8.31441 J/mol/K = 1.987191683e-3 kcal/mol/K
    qrot = 292239.6282945
    sn is the rotational symmetry number. We have assumed 3 here
       if it is different for your molecule then you should correct
       the printed rotational entropy by manually evaluating the equation
       as given above

For convenience we print out the resulting values for sn=1 - 12:
 sn= 1  qrot/sn=  292239.6283 T*S(rot)=     8.35 kcal/mol T*S(tot)=    26.60 kcal/mol
 sn= 2  qrot/sn=  146119.8141 T*S(rot)=     7.93 kcal/mol T*S(tot)=    26.19 kcal/mol
 sn= 3  qrot/sn=   97413.2094 T*S(rot)=     7.69 kcal/mol T*S(tot)=    25.95 kcal/mol
 sn= 4  qrot/sn=   73059.9071 T*S(rot)=     7.52 kcal/mol T*S(tot)=    25.78 kcal/mol
 sn= 5  qrot/sn=   58447.9257 T*S(rot)=     7.39 kcal/mol T*S(tot)=    25.65 kcal/mol
 sn= 6  qrot/sn=   48706.6047 T*S(rot)=     7.28 kcal/mol T*S(tot)=    25.54 kcal/mol
 sn= 7  qrot/sn=   41748.5183 T*S(rot)=     7.19 kcal/mol T*S(tot)=    25.45 kcal/mol
 sn= 8  qrot/sn=   36529.9535 T*S(rot)=     7.11 kcal/mol T*S(tot)=    25.37 kcal/mol
 sn= 9  qrot/sn=   32471.0698 T*S(rot)=     7.04 kcal/mol T*S(tot)=    25.30 kcal/mol
 sn=10  qrot/sn=   29223.9628 T*S(rot)=     6.98 kcal/mol T*S(tot)=    25.24 kcal/mol
 sn=11  qrot/sn=   26567.2389 T*S(rot)=     6.92 kcal/mol T*S(tot)=    25.18 kcal/mol
 sn=12  qrot/sn=   24353.3024 T*S(rot)=     6.87 kcal/mol T*S(tot)=    25.13 kcal/mol

-------------------
GIBBS FREE ENTHALPY
-------------------

The Gibbs free enthalpy is G = H - T*S

Total enthalpy                    ...   -340.59946370 Eh
Total entropy correction          ...     -0.04135796 Eh    -25.95 kcal/mol
-----------------------------------------------------------------------
Final Gibbs free enthalpy         ...   -340.64082167 Eh

For completeness - the Gibbs free enthalpy minus the electronic energy
G-E(el)                           ...      0.08380461 Eh     52.59 kcal/mol

                             ****ORCA TERMINATED NORMALLY****
TOTAL RUN TIME: 0 days 0 hours 24 minutes 25 seconds 598 msec
