                         Program Version 3.0.3 - RELEASE   -
|  1> ! NORI PBE0 def2-TZVP UseSym TightOPT Freq TightSCF Grid3 FinalGrid5 XYZFile
|  2> % pal
|  3>     nprocs 8
|  4> end
|  5> %method
|  6>     SymThresh 5.0e-2
|  7> end
|  8> % geom
|  9>     MaxIter 10
| 10> end
| 11> % maxcore 2000
| 12> % output
| 13>     printlevel mini
| 14>     print[ P_Basis ] 0
| 15>     print[ P_SCFInfo ] 1
| 16>     print[ P_SCFIterInfo ] 1
| 17>     print[ P_OrbEn ] 0
| 18>     print[ P_Cartesian ] 0
| 19> end
| 20> % elprop
| 21>     Dipole false
| 22> end
| 23> *xyz 1 1
| 24>  N        1.1293667926    -0.4211877075     0.2816657743
| 25>  C        2.3807450880     0.1696411304    -0.3411238947
| 26>  C        2.9205790108     1.1543724467     0.5587785501
| 27>  C        3.2669065911     1.9535056838     1.3880328024
| 28>  C        3.5104982603     2.8502000374     2.5270015752
| 29>  N        4.5860136168     3.6434281674     2.4309793327
| 30>  O        2.7315845658     2.8014838669     3.4502827925
| 31>  H        0.7012477541    -1.1339446174    -0.3144869655
| 32>  H        0.4415852170     0.3161689637     0.4571125443
| 33>  H        1.3527748572    -0.8423679566     1.1873207084
| 34>  H        2.0874886215     0.5941361425    -1.3037900466
| 35>  H        3.0687557632    -0.6596805718    -0.5199301498
| 36>  H        5.1906773679     3.6316731252     1.6286563579
| 37>  H        4.7881064937     4.2720012892     3.1922906187
| 38> *
| 39>
| 40>                          ****END OF INPUT****
 Total Charge           Charge          ....    1
 Multiplicity           Mult            ....    1
 Number of Electrons    NEL             ....   52
FINAL SINGLE POINT ENERGY      -340.801198686115

CARTESIAN COORDINATES (ANGSTROEM)
---------------------------------
  N      2.298188    0.000362   -1.956342
  C      0.820921    0.007872   -2.302870
  C      0.062360    0.006098   -1.080077
  C     -0.455745   -0.003234    0.005019
  C     -0.871741   -0.003594    1.414821
  N     -2.192915   -0.006148    1.637542
  O     -0.000095   -0.001627    2.252566
  H      2.890175    0.004162   -2.790675
  H      2.524427   -0.826603   -1.397385
  H      2.529722    0.818295   -1.386318
  H      0.633286   -0.876142   -2.916397
  H      0.641029    0.898618   -2.908993
  H     -2.862661   -0.009916    0.888591
  H     -2.518759   -0.006073    2.591049

FINAL SINGLE POINT ENERGY      -340.801198963067
                    ***********************HURRAY********************
 Multiplicity           Mult            ....    1
 Number of Electrons    NEL             ....   52
 Basis Dimension        Dim             ....  259
FINAL SINGLE POINT ENERGY      -340.801199166162

VIBRATIONAL FREQUENCIES
-----------------------

   0:         0.00 cm**-1
   1:         0.00 cm**-1
   2:         0.00 cm**-1
   3:         0.00 cm**-1
   4:         0.00 cm**-1
   5:         0.00 cm**-1
   6:        47.28 cm**-1
   7:        71.19 cm**-1
   8:       131.21 cm**-1
   9:       201.15 cm**-1
  10:       223.83 cm**-1
  11:       355.80 cm**-1
  12:       361.51 cm**-1
  13:       431.25 cm**-1
  14:       502.78 cm**-1
  15:       576.95 cm**-1
  16:       613.46 cm**-1
  17:       697.59 cm**-1
  18:       760.64 cm**-1
  19:       861.66 cm**-1
  20:       881.58 cm**-1
  21:      1054.08 cm**-1
  22:      1103.63 cm**-1
  23:      1106.64 cm**-1
  24:      1143.42 cm**-1
  25:      1324.75 cm**-1
  26:      1388.57 cm**-1
  27:      1403.09 cm**-1
  28:      1476.06 cm**-1
  29:      1510.65 cm**-1
  30:      1625.11 cm**-1
  31:      1644.44 cm**-1
  32:      1660.43 cm**-1
  33:      1805.24 cm**-1
  34:      2357.18 cm**-1
  35:      3085.71 cm**-1
  36:      3135.95 cm**-1
  37:      3409.33 cm**-1
  38:      3491.52 cm**-1
  39:      3501.84 cm**-1
  40:      3603.71 cm**-1
  41:      3737.64 cm**-1

IR SPECTRUM
-----------

 Mode    freq (cm**-1)   T**2         TX         TY         TZ
-------------------------------------------------------------------
   6:        47.28   22.974226  ( -0.006110  -4.793140   0.001463)
   7:        71.19   34.887916  ( -0.549793   0.000429   5.880956)
   8:       131.21    3.836282  ( -0.009212  -1.958616   0.004618)
   9:       201.15    1.496198  ( -0.961845   0.008173  -0.755636)
  10:       223.83    0.145859  (  0.006267  -0.381825  -0.005447)
  11:       355.80  197.056279  (  0.019419 -14.037656   0.011151)
  12:       361.51    1.561062  ( -0.084437   1.246089   0.034575)
  13:       431.25   16.225846  (  3.844665  -0.007698  -1.201807)
  14:       502.78   13.105304  ( -3.457255  -0.000575   1.073635)
  15:       576.95   19.390041  ( -0.042484   4.403088   0.032401)
  16:       613.46    2.518918  ( -0.113263   0.005592  -1.583053)
  17:       697.59   40.789184  ( -3.676708  -0.034822   5.222048)
  18:       760.64    7.634043  (  0.001114  -2.762977  -0.001107)
  19:       861.66   10.362170  (  0.006256   3.218868   0.031888)
  20:       881.58   20.099255  (  4.210399  -0.011631  -1.540018)
  21:      1054.08    4.268794  ( -1.407605   0.017254  -1.512331)
  22:      1103.63    1.096598  (  0.051725  -0.021074   1.045695)
  23:      1106.64    6.124019  (  0.026190   2.474536  -0.001882)
  24:      1143.42   24.982708  ( -1.128657  -0.013921   4.869153)
  25:      1324.75    7.997206  ( -0.007053   2.827694   0.036054)
  26:      1388.57  173.979827  (  9.119825   0.016595  -9.529341)
  27:      1403.09  199.529733  ( -8.304215  -0.031502  11.426669)
  28:      1476.06    8.856790  ( -0.354588   0.013473  -2.954806)
  29:      1510.65  140.627086  (-11.738698   0.043036  -1.681726)
  30:      1625.11  130.565440  (  9.486244   0.023105  -6.369936)
  31:      1644.44   52.375680  (  0.031075   7.236972   0.030919)
  32:      1660.43   32.754072  ( -2.086313  -0.018461   5.329262)
  33:      1805.24  377.741271  (-17.993937  -0.010637  -7.345706)
  34:      2357.18   10.834978  (  1.261126   0.004214  -3.040481)
  35:      3085.71    1.502194  (  1.132049   0.005853  -0.469708)
  36:      3135.95    3.036778  (  0.000257   1.742590   0.012585)
  37:      3409.33   50.908071  ( -7.128599  -0.004537  -0.301874)
  38:      3491.52  116.487146  ( -0.013845  10.791227   0.190693)
  39:      3501.84   97.300796  ( -1.935043  -0.189250   9.670604)
  40:      3603.71  138.511716  ( 10.486077   0.021572  -5.343542)
  41:      3737.64   85.417639  (  2.318597   0.008328   8.946602)

--------------------------
THERMOCHEMISTRY AT 298.15K
--------------------------

Temperature         ... 298.15 K
Pressure            ... 1.00 atm
Total Mass          ... 99.11 AMU

Throughout the following assumptions are being made:
  (1) The electronic state is orbitally nondegenerate
  (2) There are no thermally accessible electronically excited states
  (3) Hindered rotations indicated by low frequency modes) are not
      treated as such but are treated as vibrations and this may
      case some error
  (4) All equations used are the standard statistical mechanics
      equations for an ideal gas
  (5) All vibrations are strinctly harmonic

------------
INNER ENERGY
------------

The inner energy is: U= E(el) + E(ZPE) + E(vib) + E(rot) + E(trans)
    E(el)   - is the total energy from the electronic structure calculation
              = E(kin-el) + E(nuc-el) + E(el-el) + E(nuc-nuc)
    E(ZPE)  - the the zero temperature vibrational energy from the frequency calculation
    E(vib)  - the the finite temperature correction to E(ZPE) due to population
              of excietd vibrational states
    E(rot)  - is the rotational thermal energy
    E(trans)- is the translational thermal energy

Summary of contributions to the inner energy U:
Electronic energy                ...   -340.80119917 Eh
Zero point energy                ...      0.11684011 Eh      73.32 kcal/mol
Thermal vibrational correction   ...      0.00539276 Eh       3.38 kcal/mol
Thermal rotational correction    ...      0.00141627 Eh       0.89 kcal/mol
Thermal translational correction ...      0.00141627 Eh       0.89 kcal/mol
-----------------------------------------------------------------------
Total thermal energy                   -340.67613375 Eh

Summary of corrections to the electronic energy:
(perhaps to be used in another calculation)
Total thermal correction                  0.00822530 Eh       5.16 kcal/mol
Non-thermal (ZPE) correction              0.11684011 Eh      73.32 kcal/mol
-----------------------------------------------------------------------
Total correction                          0.12506541 Eh      78.48 kcal/mol

--------
ENTHALPY
--------

The enthalpy is H = U + kB*T
                kB is Boltzmann's constant
Total free energy                 ...   -340.67613375 Eh
Thermal Enthalpy correction       ...      0.00094421 Eh       0.59 kcal/mol
-----------------------------------------------------------------------
Total Enthalpy                    ...   -340.67518955 Eh

-------
ENTROPY
-------

The entropy contributions are T*S = T*(S(el)+S(vib)+S(rot)+S(trans)
     S(el)   - electronic entropy
     S(vib)  - vibrational entropy
     S(rot)  - rotational entropy
     S(trans)- translational entropy
The entropies will be listed as mutliplied by the temperature to get
units of energy

Electronic entropy                ...      0.00000000 Eh      0.00 kcal/mol
Vibrational entropy               ...      0.01041896 Eh      6.54 kcal/mol
Rotational entropy                ...      0.01229137 Eh      7.71 kcal/mol
Translational entropy             ...      0.01885862 Eh     11.83 kcal/mol
-----------------------------------------------------------------------
Final entropy term                ...      0.04156895 Eh     26.08 kcal/mol

CAUTION: The rotational entropy is not quite correctly treated here
         because it includes a symmetry number that is not yet correctly
         implemented in ORCA!
For a nonlinear molecule the correct rotational entropy is:
    S(rot) = R*(ln(qrot/sn)+1.5)
    R    = 8.31441 J/mol/K = 1.987191683e-3 kcal/mol/K
    qrot = 301532.1845725
    sn is the rotational symmetry number. We have assumed 3 here
       if it is different for your molecule then you should correct
       the printed rotational entropy by manually evaluating the equation
       as given above

For convenience we print out the resulting values for sn=1 - 12:
 sn= 1  qrot/sn=  301532.1846 T*S(rot)=     8.36 kcal/mol T*S(tot)=    26.74 kcal/mol
 sn= 2  qrot/sn=  150766.0923 T*S(rot)=     7.95 kcal/mol T*S(tot)=    26.33 kcal/mol
 sn= 3  qrot/sn=  100510.7282 T*S(rot)=     7.71 kcal/mol T*S(tot)=    26.08 kcal/mol
 sn= 4  qrot/sn=   75383.0461 T*S(rot)=     7.54 kcal/mol T*S(tot)=    25.91 kcal/mol
 sn= 5  qrot/sn=   60306.4369 T*S(rot)=     7.41 kcal/mol T*S(tot)=    25.78 kcal/mol
 sn= 6  qrot/sn=   50255.3641 T*S(rot)=     7.30 kcal/mol T*S(tot)=    25.67 kcal/mol
 sn= 7  qrot/sn=   43076.0264 T*S(rot)=     7.21 kcal/mol T*S(tot)=    25.58 kcal/mol
 sn= 8  qrot/sn=   37691.5231 T*S(rot)=     7.13 kcal/mol T*S(tot)=    25.50 kcal/mol
 sn= 9  qrot/sn=   33503.5761 T*S(rot)=     7.06 kcal/mol T*S(tot)=    25.43 kcal/mol
 sn=10  qrot/sn=   30153.2185 T*S(rot)=     7.00 kcal/mol T*S(tot)=    25.37 kcal/mol
 sn=11  qrot/sn=   27412.0168 T*S(rot)=     6.94 kcal/mol T*S(tot)=    25.32 kcal/mol
 sn=12  qrot/sn=   25127.6820 T*S(rot)=     6.89 kcal/mol T*S(tot)=    25.26 kcal/mol

-------------------
GIBBS FREE ENTHALPY
-------------------

The Gibbs free enthalpy is G = H - T*S

Total enthalpy                    ...   -340.67518955 Eh
Total entropy correction          ...     -0.04156895 Eh    -26.08 kcal/mol
-----------------------------------------------------------------------
Final Gibbs free enthalpy         ...   -340.71675850 Eh

For completeness - the Gibbs free enthalpy minus the electronic energy
G-E(el)                           ...      0.08444067 Eh     52.99 kcal/mol

                             ****ORCA TERMINATED NORMALLY****
TOTAL RUN TIME: 0 days 0 hours 21 minutes 33 seconds 98 msec
