                         Program Version 3.0.3 - RELEASE   -
|  1> ! NORI PBE0 def2-TZVP UseSym TightOPT Freq TightSCF Grid3 FinalGrid5 XYZFile
|  2> % pal
|  3>     nprocs 8
|  4> end
|  5> %method
|  6>     SymThresh 5.0e-2
|  7> end
|  8> % geom
|  9>     MaxIter 10
| 10> end
| 11> % maxcore 2000
| 12> % output
| 13>     printlevel mini
| 14>     print[ P_Basis ] 0
| 15>     print[ P_SCFInfo ] 1
| 16>     print[ P_SCFIterInfo ] 1
| 17>     print[ P_OrbEn ] 0
| 18>     print[ P_Cartesian ] 0
| 19> end
| 20> % elprop
| 21>     Dipole false
| 22> end
| 23> *xyz 1 1
| 24>  N        2.2119744333     1.0063162237    -1.3610671647
| 25>  C        2.2744392922     0.4424417856     0.0390396404
| 26>  C        3.1194379893    -0.8109308508     0.0820398241
| 27>  C        4.6007345127    -0.6224808586    -0.2632483349
| 28>  C        5.3061498690     0.3585570250     0.6150998118
| 29>  N        6.0067309996    -0.0824560368     1.5738739541
| 30>  O        6.5779015169     0.9120337911     2.3072040289
| 31>  H        1.6625775014     1.8667912263    -1.4000191966
| 32>  H        1.7896605557     0.3341852400    -2.0056066430
| 33>  H        3.1501595459     1.2149237104    -1.7096471648
| 34>  H        1.2429708771     0.2500105050     0.3352991937
| 35>  H        2.6765233705     1.2361633551     0.6703114811
| 36>  H        3.0453401362    -1.1930797871     1.1035963072
| 37>  H        2.6760770061    -1.5794773298    -0.5615529079
| 38>  H        4.7331235870    -0.3394764086    -1.3169083743
| 39>  H        5.0920903948    -1.5914699939    -0.1588185442
| 40>  H        5.2332326890     1.4366146191     0.4436872615
| 41>  H        7.0995857233     0.4461337844     2.9699468276
| 42> *
| 43>
| 44>                          ****END OF INPUT****
 Total Charge           Charge          ....    1
 Multiplicity           Mult            ....    1
 Number of Electrons    NEL             ....   56
FINAL SINGLE POINT ENERGY      -343.203676164518
FINAL SINGLE POINT ENERGY      -343.203677954760

CARTESIAN COORDINATES (ANGSTROEM)
---------------------------------
  N      1.401322   -0.001977   -2.485117
  C      0.596568    1.009805   -1.704242
  C     -0.758515    0.452719   -1.331065
  C     -0.737045   -0.755967   -0.388734
  C     -0.045701   -0.497082    0.910285
  N     -0.750721   -0.236080    1.929828
  O      0.000602    0.000715    3.040028
  H      2.328903    0.352989   -2.724776
  H      0.925961   -0.252219   -3.355059
  H      1.522473   -0.862115   -1.945787
  H      0.515736    1.890783   -2.341194
  H      1.195296    1.265416   -0.828998
  H     -1.299385    1.267601   -0.842725
  H     -1.324684    0.214295   -2.238713
  H     -0.293166   -1.635163   -0.876708
  H     -1.771653   -1.031737   -0.177696
  H      1.044142   -0.532894    0.996053
  H     -0.648308    0.145373    3.737418

FINAL SINGLE POINT ENERGY      -343.203678551690
                    ***********************HURRAY********************
 Multiplicity           Mult            ....    1
 Number of Electrons    NEL             ....   56
 Basis Dimension        Dim             ....  283
FINAL SINGLE POINT ENERGY      -343.203678991562

VIBRATIONAL FREQUENCIES
-----------------------

   0:         0.00 cm**-1
   1:         0.00 cm**-1
   2:         0.00 cm**-1
   3:         0.00 cm**-1
   4:         0.00 cm**-1
   5:         0.00 cm**-1
   6:        32.59 cm**-1
   7:        55.18 cm**-1
   8:       156.43 cm**-1
   9:       177.58 cm**-1
  10:       204.28 cm**-1
  11:       287.28 cm**-1
  12:       344.34 cm**-1
  13:       406.66 cm**-1
  14:       492.49 cm**-1
  15:       501.91 cm**-1
  16:       589.06 cm**-1
  17:       745.87 cm**-1
  18:       824.90 cm**-1
  19:       884.17 cm**-1
  20:       913.94 cm**-1
  21:       932.13 cm**-1
  22:       978.62 cm**-1
  23:      1027.70 cm**-1
  24:      1038.41 cm**-1
  25:      1101.27 cm**-1
  26:      1129.52 cm**-1
  27:      1156.65 cm**-1
  28:      1236.35 cm**-1
  29:      1291.43 cm**-1
  30:      1300.53 cm**-1
  31:      1346.75 cm**-1
  32:      1363.16 cm**-1
  33:      1386.58 cm**-1
  34:      1416.17 cm**-1
  35:      1458.93 cm**-1
  36:      1470.45 cm**-1
  37:      1476.35 cm**-1
  38:      1497.50 cm**-1
  39:      1505.54 cm**-1
  40:      1655.72 cm**-1
  41:      1663.81 cm**-1
  42:      1745.15 cm**-1
  43:      3013.80 cm**-1
  44:      3052.78 cm**-1
  45:      3084.39 cm**-1
  46:      3101.75 cm**-1
  47:      3113.64 cm**-1
  48:      3124.44 cm**-1
  49:      3161.56 cm**-1
  50:      3421.98 cm**-1
  51:      3500.04 cm**-1
  52:      3511.32 cm**-1
  53:      3835.50 cm**-1

IR SPECTRUM
-----------

 Mode    freq (cm**-1)   T**2         TX         TY         TZ
-------------------------------------------------------------------
   7:        55.18    8.250116  ( -0.685301   0.906244  -2.638030)
   8:       156.43    5.734639  ( -1.426511  -0.762174   1.766011)
   9:       177.58    9.610899  ( -1.874735  -0.814668   2.330790)
  10:       204.28    4.254408  (  1.421328   0.496093  -1.410009)
  11:       287.28    7.146830  ( -1.837335  -0.971203   1.681605)
  12:       344.34    0.750407  ( -0.270780   0.297903   0.767033)
  13:       406.66    6.817859  (  2.528089   0.138138  -0.638389)
  14:       492.49  103.182358  (  0.285597 -10.021605   1.633468)
  15:       501.91   39.525939  ( -0.009588  -5.939489   2.061145)
  16:       589.06    9.246717  ( -2.304150  -1.027720  -1.697470)
  17:       745.87   11.271673  ( -0.217493  -0.644960   3.287613)
  18:       824.90   11.740261  ( -0.713247  -1.261911   3.104693)
  19:       884.17   10.673732  ( -1.214832   1.243621  -2.766103)
  20:       913.94    3.030707  ( -0.024442   0.803123  -1.544378)
  21:       932.13   16.694066  ( -2.389688  -1.954042   2.676785)
  22:       978.62   16.061244  ( -3.454029   1.857240   0.825583)
  23:      1027.70   38.780782  (  0.630388   3.680972   4.983356)
  24:      1038.41   13.567167  (  0.292479  -0.650770  -3.613602)
  25:      1101.27  144.723307  (  0.626418  -0.861587 -11.982845)
  26:      1129.52    8.102872  (  1.004473   0.898392  -2.507349)
  27:      1156.65   10.694202  ( -2.913125  -1.481320   0.116594)
  28:      1236.35    9.061026  ( -1.204671  -1.766794  -2.118545)
  29:      1291.43    4.560976  ( -1.443188  -0.282768  -1.548621)
  30:      1300.53   47.975549  (  3.334305   0.821974   6.015174)
  31:      1346.75   17.891250  ( -1.210227   2.018179  -3.514762)
  32:      1363.16   13.563888  ( -2.880978  -0.883245  -2.117483)
  33:      1386.58    3.041638  (  0.423813   0.283982  -1.667745)
  34:      1416.17    5.682426  (  0.698469  -0.901222  -2.093410)
  35:      1458.93   35.879986  (  3.323198   1.439931   4.771052)
  36:      1470.45   18.440937  ( -3.361879   2.671819  -0.009528)
  37:      1476.35   26.587566  (  3.479515   0.048958  -3.805016)
  38:      1497.50   20.965296  (  2.773660   3.643002   0.025411)
  39:      1505.54  146.201817  ( -6.290002   7.431447   7.170166)
  40:      1655.72   43.917342  ( -3.544162   2.216813  -5.142179)
  41:      1663.81   34.482018  ( -4.018130  -3.705405   2.146304)
  42:      1745.15    7.251498  (  0.031374   0.134500   2.689317)
  43:      3013.80   32.837343  ( -1.930043   3.716841   3.911185)
  44:      3052.78   15.740103  (  0.889785  -0.003034   3.866313)
  45:      3084.39   17.367806  ( -4.088834   0.334377   0.733100)
  46:      3101.75    2.086222  ( -1.138007  -0.461453   0.760409)
  47:      3113.64    2.955875  (  1.204975   0.786622   0.940816)
  48:      3124.44    0.474296  ( -0.461702   0.507264  -0.061734)
  49:      3161.56    0.391733  (  0.140882  -0.123074   0.597275)
  50:      3421.98   33.356815  (  3.124225  -3.476761  -3.392368)
  51:      3500.04  105.077329  ( -1.403408   3.785864  -9.422049)
  52:      3511.32  109.891414  ( -8.952140  -5.429994   0.515525)
  53:      3835.50  174.740108  ( -5.407892   1.959862  11.901838)

--------------------------
THERMOCHEMISTRY AT 298.15K
--------------------------

Temperature         ... 298.15 K
Pressure            ... 1.00 atm
Total Mass          ... 103.14 AMU

Throughout the following assumptions are being made:
  (1) The electronic state is orbitally nondegenerate
  (2) There are no thermally accessible electronically excited states
  (3) Hindered rotations indicated by low frequency modes) are not
      treated as such but are treated as vibrations and this may
      case some error
  (4) All equations used are the standard statistical mechanics
      equations for an ideal gas
  (5) All vibrations are strinctly harmonic

------------
INNER ENERGY
------------

The inner energy is: U= E(el) + E(ZPE) + E(vib) + E(rot) + E(trans)
    E(el)   - is the total energy from the electronic structure calculation
              = E(kin-el) + E(nuc-el) + E(el-el) + E(nuc-nuc)
    E(ZPE)  - the the zero temperature vibrational energy from the frequency calculation
    E(vib)  - the the finite temperature correction to E(ZPE) due to population
              of excietd vibrational states
    E(rot)  - is the rotational thermal energy
    E(trans)- is the translational thermal energy

Summary of contributions to the inner energy U:
Electronic energy                ...   -343.20367899 Eh
Zero point energy                ...      0.16330822 Eh     102.48 kcal/mol
Thermal vibrational correction   ...      0.00493109 Eh       3.09 kcal/mol
Thermal rotational correction    ...      0.00141627 Eh       0.89 kcal/mol
Thermal translational correction ...      0.00141627 Eh       0.89 kcal/mol
-----------------------------------------------------------------------
Total thermal energy                   -343.03260713 Eh

Summary of corrections to the electronic energy:
(perhaps to be used in another calculation)
Total thermal correction                  0.00776363 Eh       4.87 kcal/mol
Non-thermal (ZPE) correction              0.16330822 Eh     102.48 kcal/mol
-----------------------------------------------------------------------
Total correction                          0.17107186 Eh     107.35 kcal/mol

--------
ENTHALPY
--------

The enthalpy is H = U + kB*T
                kB is Boltzmann's constant
Total free energy                 ...   -343.03260713 Eh
Thermal Enthalpy correction       ...      0.00094421 Eh       0.59 kcal/mol
-----------------------------------------------------------------------
Total Enthalpy                    ...   -343.03166292 Eh

-------
ENTROPY
-------

The entropy contributions are T*S = T*(S(el)+S(vib)+S(rot)+S(trans)
     S(el)   - electronic entropy
     S(vib)  - vibrational entropy
     S(rot)  - rotational entropy
     S(trans)- translational entropy
The entropies will be listed as mutliplied by the temperature to get
units of energy

Electronic entropy                ...      0.00000000 Eh      0.00 kcal/mol
Vibrational entropy               ...      0.00884388 Eh      5.55 kcal/mol
Rotational entropy                ...      0.01239211 Eh      7.78 kcal/mol
Translational entropy             ...      0.01891510 Eh     11.87 kcal/mol
-----------------------------------------------------------------------
Final entropy term                ...      0.04015109 Eh     25.20 kcal/mol

CAUTION: The rotational entropy is not quite correctly treated here
         because it includes a symmetry number that is not yet correctly
         implemented in ORCA!
For a nonlinear molecule the correct rotational entropy is:
    S(rot) = R*(ln(qrot/sn)+1.5)
    R    = 8.31441 J/mol/K = 1.987191683e-3 kcal/mol/K
    qrot = 335483.8893200
    sn is the rotational symmetry number. We have assumed 3 here
       if it is different for your molecule then you should correct
       the printed rotational entropy by manually evaluating the equation
       as given above

For convenience we print out the resulting values for sn=1 - 12:
 sn= 1  qrot/sn=  335483.8893 T*S(rot)=     8.43 kcal/mol T*S(tot)=    25.85 kcal/mol
 sn= 2  qrot/sn=  167741.9447 T*S(rot)=     8.02 kcal/mol T*S(tot)=    25.44 kcal/mol
 sn= 3  qrot/sn=  111827.9631 T*S(rot)=     7.78 kcal/mol T*S(tot)=    25.20 kcal/mol
 sn= 4  qrot/sn=   83870.9723 T*S(rot)=     7.61 kcal/mol T*S(tot)=    25.02 kcal/mol
 sn= 5  qrot/sn=   67096.7779 T*S(rot)=     7.47 kcal/mol T*S(tot)=    24.89 kcal/mol
 sn= 6  qrot/sn=   55913.9816 T*S(rot)=     7.37 kcal/mol T*S(tot)=    24.78 kcal/mol
 sn= 7  qrot/sn=   47926.2699 T*S(rot)=     7.27 kcal/mol T*S(tot)=    24.69 kcal/mol
 sn= 8  qrot/sn=   41935.4862 T*S(rot)=     7.20 kcal/mol T*S(tot)=    24.61 kcal/mol
 sn= 9  qrot/sn=   37275.9877 T*S(rot)=     7.13 kcal/mol T*S(tot)=    24.54 kcal/mol
 sn=10  qrot/sn=   33548.3889 T*S(rot)=     7.06 kcal/mol T*S(tot)=    24.48 kcal/mol
 sn=11  qrot/sn=   30498.5354 T*S(rot)=     7.01 kcal/mol T*S(tot)=    24.43 kcal/mol
 sn=12  qrot/sn=   27956.9908 T*S(rot)=     6.95 kcal/mol T*S(tot)=    24.37 kcal/mol

-------------------
GIBBS FREE ENTHALPY
-------------------

The Gibbs free enthalpy is G = H - T*S

Total enthalpy                    ...   -343.03166292 Eh
Total entropy correction          ...     -0.04015109 Eh    -25.20 kcal/mol
-----------------------------------------------------------------------
Final Gibbs free enthalpy         ...   -343.07181401 Eh

For completeness - the Gibbs free enthalpy minus the electronic energy
G-E(el)                           ...      0.13186498 Eh     82.75 kcal/mol

                             ****ORCA TERMINATED NORMALLY****
TOTAL RUN TIME: 0 days 0 hours 35 minutes 24 seconds 498 msec
