                         Program Version 3.0.3 - RELEASE   -
|  1> ! NORI PBE0 def2-TZVP UseSym TightOPT Freq TightSCF Grid3 FinalGrid5 XYZFile
|  2> % pal
|  3>     nprocs 8
|  4> end
|  5> %method
|  6>     SymThresh 5.0e-2
|  7> end
|  8> % geom
|  9>     MaxIter 10
| 10> end
| 11> % maxcore 2000
| 12> % output
| 13>     printlevel mini
| 14>     print[ P_Basis ] 0
| 15>     print[ P_SCFInfo ] 1
| 16>     print[ P_SCFIterInfo ] 1
| 17>     print[ P_OrbEn ] 0
| 18>     print[ P_Cartesian ] 0
| 19> end
| 20> % elprop
| 21>     Dipole false
| 22> end
| 23> *xyz 1 1
| 24>  N        2.5267824709    -1.1577627985     0.5949854436
| 25>  C        2.0282845120     0.0712233376    -0.1243814326
| 26>  C        2.9076938628     1.2824030318     0.1281938583
| 27>  C        4.4172817109     1.0509919704    -0.0540332661
| 28>  C        4.6753395731     0.0752321326    -1.1824529107
| 29>  N        5.2462818657    -1.1272346052    -0.7849978093
| 30>  O        4.2636019610     0.2473792787    -2.2995166230
| 31>  H        1.9067283446    -1.9527389566     0.4337918296
| 32>  H        2.5848323375    -1.0081989346     1.6035268150
| 33>  H        3.4712813333    -1.4119598479     0.2409846583
| 34>  H        2.0172620767    -0.1925597429    -1.1820869941
| 35>  H        1.0049235972     0.2458353729     0.2073526939
| 36>  H        2.7250162216     1.6869680954     1.1273086498
| 37>  H        2.5651705459     2.0399904985    -0.5793449605
| 38>  H        4.8937230707     2.0008891149    -0.3028918521
| 39>  H        4.8735269531     0.7039883710     0.8773032082
| 40>  H        5.5119834970    -1.7275448237    -1.5571025762
| 41>  H        5.9389860660    -1.0891514945    -0.0493287321
| 42> *
| 43>
| 44>                          ****END OF INPUT****
 Total Charge           Charge          ....    1
 Multiplicity           Mult            ....    1
 Number of Electrons    NEL             ....   56
FINAL SINGLE POINT ENERGY      -343.296481273190
FINAL SINGLE POINT ENERGY      -343.296481481552
FINAL SINGLE POINT ENERGY      -343.296482860431

CARTESIAN COORDINATES (ANGSTROEM)
---------------------------------
  N      1.272589    0.001015   -1.552048
  C      0.824548    1.262277   -0.856055
  C     -0.682726    1.323255   -0.687191
  C     -1.332386    0.056382   -0.105341
  C     -0.421024   -0.587613    0.917605
  N      0.053979   -1.841956    0.557032
  O     -0.001057    0.001908    1.878464
  H      2.285204   -0.005043   -1.681975
  H      0.840842   -0.096574   -2.472212
  H      1.019388   -0.826917   -0.976095
  H      1.328565    1.259182    0.110487
  H      1.193423    2.102387   -1.444214
  H     -1.165582    1.570575   -1.636426
  H     -0.864177    2.167647   -0.019567
  H     -2.265901    0.332036    0.388484
  H     -1.591997   -0.649196   -0.899441
  H      0.573482   -2.307842    1.291852
  H     -0.584503   -2.454247    0.067291

FINAL SINGLE POINT ENERGY      -343.296482856657
                    ***********************HURRAY********************
 Multiplicity           Mult            ....    1
 Number of Electrons    NEL             ....   56
 Basis Dimension        Dim             ....  283
FINAL SINGLE POINT ENERGY      -343.296483024273

VIBRATIONAL FREQUENCIES
-----------------------

   0:         0.00 cm**-1
   1:         0.00 cm**-1
   2:         0.00 cm**-1
   3:         0.00 cm**-1
   4:         0.00 cm**-1
   5:         0.00 cm**-1
   6:        58.48 cm**-1
   7:       100.77 cm**-1
   8:       184.58 cm**-1
   9:       203.68 cm**-1
  10:       299.20 cm**-1
  11:       342.73 cm**-1
  12:       413.23 cm**-1
  13:       487.26 cm**-1
  14:       527.94 cm**-1
  15:       623.47 cm**-1
  16:       713.81 cm**-1
  17:       750.49 cm**-1
  18:       792.84 cm**-1
  19:       829.10 cm**-1
  20:       861.37 cm**-1
  21:       937.93 cm**-1
  22:       957.61 cm**-1
  23:       990.21 cm**-1
  24:      1063.59 cm**-1
  25:      1087.84 cm**-1
  26:      1115.16 cm**-1
  27:      1158.23 cm**-1
  28:      1227.22 cm**-1
  29:      1280.93 cm**-1
  30:      1302.10 cm**-1
  31:      1351.08 cm**-1
  32:      1383.21 cm**-1
  33:      1398.03 cm**-1
  34:      1423.14 cm**-1
  35:      1469.01 cm**-1
  36:      1485.85 cm**-1
  37:      1500.79 cm**-1
  38:      1529.18 cm**-1
  39:      1626.51 cm**-1
  40:      1663.38 cm**-1
  41:      1683.40 cm**-1
  42:      1837.41 cm**-1
  43:      3069.58 cm**-1
  44:      3079.14 cm**-1
  45:      3107.59 cm**-1
  46:      3124.81 cm**-1
  47:      3136.56 cm**-1
  48:      3144.20 cm**-1
  49:      3169.29 cm**-1
  50:      3464.48 cm**-1
  51:      3520.74 cm**-1
  52:      3536.98 cm**-1
  53:      3646.16 cm**-1

IR SPECTRUM
-----------

 Mode    freq (cm**-1)   T**2         TX         TY         TZ
-------------------------------------------------------------------
   6:        58.48    2.752107  ( -0.938286   0.113102   1.363428)
   7:       100.77    6.087261  ( -0.524907  -0.145174   2.406379)
   8:       184.58   35.315394  ( -2.304094  -2.630471   4.804911)
   9:       203.68    5.083500  (  0.422218   1.467583  -1.658744)
  10:       299.20   10.283320  (  3.131396  -0.569333  -0.391843)
  11:       342.73    1.288982  ( -0.027524  -0.049003   1.133942)
  12:       413.23    3.963783  ( -0.668522  -0.378348  -1.836767)
  13:       487.26    2.379417  (  0.763475   1.036251  -0.850121)
  14:       527.94   10.987263  ( -0.972488   2.677786   1.694401)
  15:       623.47   38.534372  ( -0.387009   1.201802   6.077851)
  16:       713.81   29.799588  ( -3.927143   3.129576   2.140768)
  17:       750.49   16.192569  (  2.792311  -2.841924   0.564831)
  18:       792.84  131.588388  ( -7.922606   2.726335   7.835037)
  19:       829.10   11.925918  ( -2.105955   1.063774   2.521757)
  20:       861.37   32.482583  ( -4.136767  -0.702455   3.856980)
  21:       937.93   14.655393  ( -2.713085   2.545043   0.904057)
  22:       957.61    5.849298  ( -0.770935   1.392755  -1.820767)
  23:       990.21    7.841962  ( -2.015331   0.619437   1.843014)
  24:      1063.59   20.507915  (  1.486233   4.274018   0.178308)
  25:      1087.84    2.587475  (  1.084464  -1.167267  -0.221137)
  26:      1115.16   21.452013  (  2.246603   2.881356  -2.846502)
  27:      1158.23   10.115619  ( -2.913847   0.691830  -1.070741)
  28:      1227.22   11.604868  (  2.260889  -2.384364   0.898922)
  29:      1280.93   29.538969  ( -1.876977   4.995706   1.029003)
  30:      1302.10   40.513439  (  1.375687  -6.196912   0.468197)
  31:      1351.08    8.185434  (  1.363992   2.164630  -1.280366)
  32:      1383.21   20.825170  (  1.669288  -3.734697   2.022544)
  33:      1398.03   38.153728  ( -2.586326   5.609064  -0.055143)
  34:      1423.14    0.990155  (  0.201030   0.394871  -0.890965)
  35:      1469.01    4.866115  (  0.371702   1.991653   0.872508)
  36:      1485.85   32.418491  ( -4.936737   2.748552  -0.701839)
  37:      1500.79   23.630186  ( -3.789696  -2.564368  -1.640854)
  38:      1529.18  129.047133  ( -5.422887   6.119460   7.886168)
  39:      1626.51   90.246890  ( -0.191163   9.252468  -2.145271)
  40:      1663.38   12.532916  (  1.347587   1.156605  -3.062546)
  41:      1683.40   25.223945  (  4.546665  -1.412938   1.598557)
  42:      1837.41  230.751291  ( -2.403817  -8.256777 -12.521924)
  43:      3069.58    9.837325  ( -0.219149  -2.869010  -1.248230)
  44:      3079.14    7.143667  ( -0.615382  -0.365213  -2.575188)
  45:      3107.59   12.014681  ( -1.737838  -1.908145   2.313781)
  46:      3124.81    0.770308  (  0.112495   0.206528  -0.845576)
  47:      3136.56   16.316406  (  2.885470   2.375458  -1.532210)
  48:      3144.20  382.635481  ( -6.708280 -12.486586  13.480342)
  49:      3169.29   21.191433  ( -1.710323  -2.554939   3.426152)
  50:      3464.48   98.888603  (  5.338853   0.955085  -8.335050)
  51:      3520.74   87.773120  ( -8.598587  -0.398459  -3.698466)
  52:      3536.98   58.821594  (  1.013343  -7.325719   2.031889)
  53:      3646.16   53.361209  (  5.097689   1.024420   5.130823)

--------------------------
THERMOCHEMISTRY AT 298.15K
--------------------------

Temperature         ... 298.15 K
Pressure            ... 1.00 atm
Total Mass          ... 103.14 AMU

Throughout the following assumptions are being made:
  (1) The electronic state is orbitally nondegenerate
  (2) There are no thermally accessible electronically excited states
  (3) Hindered rotations indicated by low frequency modes) are not
      treated as such but are treated as vibrations and this may
      case some error
  (4) All equations used are the standard statistical mechanics
      equations for an ideal gas
  (5) All vibrations are strinctly harmonic

------------
INNER ENERGY
------------

The inner energy is: U= E(el) + E(ZPE) + E(vib) + E(rot) + E(trans)
    E(el)   - is the total energy from the electronic structure calculation
              = E(kin-el) + E(nuc-el) + E(el-el) + E(nuc-nuc)
    E(ZPE)  - the the zero temperature vibrational energy from the frequency calculation
    E(vib)  - the the finite temperature correction to E(ZPE) due to population
              of excietd vibrational states
    E(rot)  - is the rotational thermal energy
    E(trans)- is the translational thermal energy

Summary of contributions to the inner energy U:
Electronic energy                ...   -343.29648302 Eh
Zero point energy                ...      0.16553229 Eh     103.87 kcal/mol
Thermal vibrational correction   ...      0.00510315 Eh       3.20 kcal/mol
Thermal rotational correction    ...      0.00141627 Eh       0.89 kcal/mol
Thermal translational correction ...      0.00141627 Eh       0.89 kcal/mol
-----------------------------------------------------------------------
Total thermal energy                   -343.12301503 Eh

Summary of corrections to the electronic energy:
(perhaps to be used in another calculation)
Total thermal correction                  0.00793570 Eh       4.98 kcal/mol
Non-thermal (ZPE) correction              0.16553229 Eh     103.87 kcal/mol
-----------------------------------------------------------------------
Total correction                          0.17346799 Eh     108.85 kcal/mol

--------
ENTHALPY
--------

The enthalpy is H = U + kB*T
                kB is Boltzmann's constant
Total free energy                 ...   -343.12301503 Eh
Thermal Enthalpy correction       ...      0.00094421 Eh       0.59 kcal/mol
-----------------------------------------------------------------------
Total Enthalpy                    ...   -343.12207082 Eh

-------
ENTROPY
-------

The entropy contributions are T*S = T*(S(el)+S(vib)+S(rot)+S(trans)
     S(el)   - electronic entropy
     S(vib)  - vibrational entropy
     S(rot)  - rotational entropy
     S(trans)- translational entropy
The entropies will be listed as mutliplied by the temperature to get
units of energy

Electronic entropy                ...      0.00000000 Eh      0.00 kcal/mol
Vibrational entropy               ...      0.00925239 Eh      5.81 kcal/mol
Rotational entropy                ...      0.01208076 Eh      7.58 kcal/mol
Translational entropy             ...      0.01891510 Eh     11.87 kcal/mol
-----------------------------------------------------------------------
Final entropy term                ...      0.04024825 Eh     25.26 kcal/mol

CAUTION: The rotational entropy is not quite correctly treated here
         because it includes a symmetry number that is not yet correctly
         implemented in ORCA!
For a nonlinear molecule the correct rotational entropy is:
    S(rot) = R*(ln(qrot/sn)+1.5)
    R    = 8.31441 J/mol/K = 1.987191683e-3 kcal/mol/K
    qrot = 241245.4756038
    sn is the rotational symmetry number. We have assumed 3 here
       if it is different for your molecule then you should correct
       the printed rotational entropy by manually evaluating the equation
       as given above

For convenience we print out the resulting values for sn=1 - 12:
 sn= 1  qrot/sn=  241245.4756 T*S(rot)=     8.23 kcal/mol T*S(tot)=    25.91 kcal/mol
 sn= 2  qrot/sn=  120622.7378 T*S(rot)=     7.82 kcal/mol T*S(tot)=    25.50 kcal/mol
 sn= 3  qrot/sn=   80415.1585 T*S(rot)=     7.58 kcal/mol T*S(tot)=    25.26 kcal/mol
 sn= 4  qrot/sn=   60311.3689 T*S(rot)=     7.41 kcal/mol T*S(tot)=    25.09 kcal/mol
 sn= 5  qrot/sn=   48249.0951 T*S(rot)=     7.28 kcal/mol T*S(tot)=    24.95 kcal/mol
 sn= 6  qrot/sn=   40207.5793 T*S(rot)=     7.17 kcal/mol T*S(tot)=    24.85 kcal/mol
 sn= 7  qrot/sn=   34463.6394 T*S(rot)=     7.08 kcal/mol T*S(tot)=    24.75 kcal/mol
 sn= 8  qrot/sn=   30155.6845 T*S(rot)=     7.00 kcal/mol T*S(tot)=    24.67 kcal/mol
 sn= 9  qrot/sn=   26805.0528 T*S(rot)=     6.93 kcal/mol T*S(tot)=    24.61 kcal/mol
 sn=10  qrot/sn=   24124.5476 T*S(rot)=     6.87 kcal/mol T*S(tot)=    24.54 kcal/mol
 sn=11  qrot/sn=   21931.4069 T*S(rot)=     6.81 kcal/mol T*S(tot)=    24.49 kcal/mol
 sn=12  qrot/sn=   20103.7896 T*S(rot)=     6.76 kcal/mol T*S(tot)=    24.43 kcal/mol

-------------------
GIBBS FREE ENTHALPY
-------------------

The Gibbs free enthalpy is G = H - T*S

Total enthalpy                    ...   -343.12207082 Eh
Total entropy correction          ...     -0.04024825 Eh    -25.26 kcal/mol
-----------------------------------------------------------------------
Final Gibbs free enthalpy         ...   -343.16231907 Eh

For completeness - the Gibbs free enthalpy minus the electronic energy
G-E(el)                           ...      0.13416395 Eh     84.19 kcal/mol

                             ****ORCA TERMINATED NORMALLY****
TOTAL RUN TIME: 0 days 0 hours 44 minutes 12 seconds 632 msec
