                         Program Version 3.0.3 - RELEASE   -
|  1> ! NORI PBE0 def2-TZVP UseSym TightOPT Freq TightSCF Grid3 FinalGrid5 XYZFile
|  2> % pal
|  3>     nprocs 8
|  4> end
|  5> %method
|  6>     SymThresh 5.0e-2
|  7> end
|  8> % geom
|  9>     MaxIter 10
| 10> end
| 11> % maxcore 2000
| 12> % output
| 13>     printlevel mini
| 14>     print[ P_Basis ] 0
| 15>     print[ P_SCFInfo ] 1
| 16>     print[ P_SCFIterInfo ] 1
| 17>     print[ P_OrbEn ] 0
| 18>     print[ P_Cartesian ] 0
| 19> end
| 20> % elprop
| 21>     Dipole false
| 22> end
| 23> *xyz 1 1
| 24>  N        0.8568463800    -1.0151150419     1.8625930265
| 25>  C        1.7847022282     0.0969014068     1.4450457218
| 26>  C        2.2160474029    -0.0753923310     0.0060418569
| 27>  C        3.2546481204     0.9676127253    -0.3616048095
| 28>  O        4.3289814725     0.8079650324     0.5277019663
| 29>  C        5.4037725745     1.6244121405     0.3419812034
| 30>  C        5.5444506868     2.5673320759    -0.5773391767
| 31>  H        0.5584131252    -0.9131535749     2.8347346846
| 32>  H        1.3178235028    -1.9234637050     1.7718114336
| 33>  H        0.0179792292    -1.0385877540     1.2789040336
| 34>  H        1.2435879454     1.0304236501     1.6074464069
| 35>  H        2.6402097798     0.0615574529     2.1187904550
| 36>  H        2.6561013361    -1.0685317787    -0.1371561725
| 37>  H        1.3632664693     0.0191884936    -0.6734075671
| 38>  H        2.8391635089     1.9821245073    -0.2854274859
| 39>  H        3.5788513927     0.8170124619    -1.3973668152
| 40>  H        6.1702580418     1.3970473570     1.0729763344
| 41>  H        4.7943048955     2.8093777888    -1.3182973718
| 42>  H        6.4650219080     3.1333190928    -0.6000077245
| 43> *
| 44>
| 45>                          ****END OF INPUT****
 Total Charge           Charge          ....    1
 Multiplicity           Mult            ....    1
 Number of Electrons    NEL             ....   56
FINAL SINGLE POINT ENERGY      -327.194339511669
FINAL SINGLE POINT ENERGY      -327.194340636161

CARTESIAN COORDINATES (ANGSTROEM)
---------------------------------
  N      1.946020   -0.001396   -2.584479
  C      0.959895   -0.411651   -1.521162
  C      0.053394    0.742632   -1.156471
  C     -0.842669    0.363440    0.007878
  O     -0.000836    0.003979    1.072104
  C     -0.605984   -0.336968    2.244321
  C     -1.906284   -0.381980    2.492097
  H      2.569355   -0.770401   -2.838801
  H      2.525888    0.775499   -2.259278
  H      1.468897    0.308585   -3.433943
  H      0.408293   -1.263633   -1.921135
  H      1.543472   -0.739956   -0.661636
  H      0.652765    1.611801   -0.863703
  H     -0.573067    1.033310   -2.005601
  H     -1.503740   -0.472218   -0.259222
  H     -1.474920    1.215761    0.279944
  H      0.142689   -0.578275    2.988950
  H     -2.671814   -0.142560    1.766513
  H     -2.233447   -0.671340    3.480762

FINAL SINGLE POINT ENERGY      -327.194341120448
                    ***********************HURRAY********************
 Multiplicity           Mult            ....    1
 Number of Electrons    NEL             ....   56
 Basis Dimension        Dim             ....  289
FINAL SINGLE POINT ENERGY      -327.194341281452

VIBRATIONAL FREQUENCIES
-----------------------

   0:         0.00 cm**-1
   1:         0.00 cm**-1
   2:         0.00 cm**-1
   3:         0.00 cm**-1
   4:         0.00 cm**-1
   5:         0.00 cm**-1
   6:        61.89 cm**-1
   7:        73.10 cm**-1
   8:       114.77 cm**-1
   9:       206.25 cm**-1
  10:       227.28 cm**-1
  11:       242.53 cm**-1
  12:       281.91 cm**-1
  13:       323.26 cm**-1
  14:       505.01 cm**-1
  15:       619.96 cm**-1
  16:       721.49 cm**-1
  17:       766.02 cm**-1
  18:       863.65 cm**-1
  19:       880.43 cm**-1
  20:       881.73 cm**-1
  21:       968.34 cm**-1
  22:       969.63 cm**-1
  23:       991.03 cm**-1
  24:      1005.04 cm**-1
  25:      1007.77 cm**-1
  26:      1087.70 cm**-1
  27:      1159.70 cm**-1
  28:      1177.32 cm**-1
  29:      1238.09 cm**-1
  30:      1268.32 cm**-1
  31:      1312.77 cm**-1
  32:      1346.02 cm**-1
  33:      1354.65 cm**-1
  34:      1358.49 cm**-1
  35:      1409.32 cm**-1
  36:      1415.08 cm**-1
  37:      1442.91 cm**-1
  38:      1475.77 cm**-1
  39:      1503.37 cm**-1
  40:      1510.52 cm**-1
  41:      1514.40 cm**-1
  42:      1659.61 cm**-1
  43:      1664.61 cm**-1
  44:      1711.11 cm**-1
  45:      3017.68 cm**-1
  46:      3047.80 cm**-1
  47:      3074.35 cm**-1
  48:      3100.63 cm**-1
  49:      3106.37 cm**-1
  50:      3170.38 cm**-1
  51:      3193.48 cm**-1
  52:      3223.14 cm**-1
  53:      3283.08 cm**-1
  54:      3421.57 cm**-1
  55:      3502.02 cm**-1
  56:      3508.07 cm**-1

IR SPECTRUM
-----------

 Mode    freq (cm**-1)   T**2         TX         TY         TZ
-------------------------------------------------------------------
   6:        61.89    7.177012  (  0.908977   2.347482   0.916570)
   7:        73.10    6.947799  ( -0.952215   0.676544  -2.362916)
   8:       114.77    5.513987  ( -0.118106  -0.561410   2.277028)
   9:       206.25    0.784100  ( -0.534691  -0.249958  -0.660096)
  10:       227.28    0.761698  ( -0.284706   0.630963   0.531532)
  11:       242.53    9.464326  ( -1.691524   0.847083   2.426010)
  12:       281.91    6.431255  (  0.155846  -2.519185  -0.246324)
  13:       323.26    7.234130  (  1.837798  -0.661934  -1.848911)
  14:       505.01    6.058332  ( -2.367952   0.671568   0.011419)
  15:       619.96    0.142216  ( -0.225391  -0.193824  -0.232050)
  16:       721.49    2.014364  (  0.073786   1.391957   0.267161)
  17:       766.02    6.115860  ( -0.038404  -0.989722  -2.266018)
  18:       863.65    2.906391  ( -0.488964  -0.628825   1.507277)
  19:       880.43   27.292553  ( -5.222237  -0.143936  -0.008965)
  20:       881.73   67.943960  ( -0.335707   7.763631   2.749055)
  21:       968.34   29.434616  (  3.768415  -0.177092  -3.899013)
  22:       969.63    0.354484  (  0.353578  -0.337938  -0.339506)
  23:       991.03   26.114591  (  0.607852   5.035036   0.627314)
  24:      1005.04    0.908571  ( -0.114008   0.043267   0.945357)
  25:      1007.77    3.444363  ( -0.893349   0.609002   1.508445)
  26:      1087.70   18.008691  (  1.548038  -1.135709   3.784499)
  27:      1159.70   39.460671  (  5.145624  -1.023839  -3.454704)
  28:      1177.32    9.812276  (  0.855514   2.999855   0.285029)
  29:      1238.09  232.749894  (  4.205811   3.873769 -14.144078)
  30:      1268.32    1.191828  (  0.540455   0.055857  -0.946898)
  31:      1312.77    1.051833  ( -0.823506   0.359257   0.494576)
  32:      1346.02    3.385506  (  1.186120   0.556806   1.291740)
  33:      1354.65    2.817265  (  0.068364   1.143158   1.227102)
  34:      1358.49   45.583397  ( -1.536826  -1.635685   6.367582)
  35:      1409.32   25.220268  (  2.833469   0.837832  -4.060758)
  36:      1415.08    0.805455  (  0.732158  -0.245017   0.457567)
  37:      1442.91    4.101436  (  1.354340  -0.535285   1.407363)
  38:      1475.77    0.215902  ( -0.113843  -0.444169   0.075200)
  39:      1503.37   15.133190  ( -2.496307   2.898838   0.705960)
  40:      1510.52  154.691986  (  8.065980   3.719183  -8.706298)
  41:      1514.40    2.832039  ( -1.294717  -0.132916   1.066808)
  42:      1659.61   51.317495  ( -4.883305  -1.672213  -4.967346)
  43:      1664.61   38.118904  (  2.422545  -5.627318  -0.763850)
  44:      1711.11  153.014126  ( -9.170901  -2.081729   8.035863)
  45:      3017.68   16.700234  (  2.399717   0.956407   3.166525)
  46:      3047.80    7.136262  ( -1.587461  -1.339335   1.680003)
  47:      3074.35   13.893345  ( -0.357076   3.686493  -0.419060)
  48:      3100.63    4.897608  (  1.609418   0.278711   1.493219)
  49:      3106.37    4.555854  ( -0.435165  -1.487520  -1.467572)
  50:      3170.38    0.747993  ( -0.525572  -0.353989   0.588607)
  51:      3193.48    7.678053  (  1.002141   0.664096  -2.496546)
  52:      3223.14    1.644207  ( -0.396783   0.327177  -1.174617)
  53:      3283.08    0.802843  ( -0.189128   0.215286  -0.848955)
  54:      3421.57   48.622232  (  4.784058   1.253740  -4.915603)
  55:      3502.02   92.167982  (  5.804918   3.396213   6.851033)
  56:      3508.07  101.288068  ( -4.747838   8.871490  -0.206815)

--------------------------
THERMOCHEMISTRY AT 298.15K
--------------------------

Temperature         ... 298.15 K
Pressure            ... 1.00 atm
Total Mass          ... 102.16 AMU

Throughout the following assumptions are being made:
  (1) The electronic state is orbitally nondegenerate
  (2) There are no thermally accessible electronically excited states
  (3) Hindered rotations indicated by low frequency modes) are not
      treated as such but are treated as vibrations and this may
      case some error
  (4) All equations used are the standard statistical mechanics
      equations for an ideal gas
  (5) All vibrations are strinctly harmonic

------------
INNER ENERGY
------------

The inner energy is: U= E(el) + E(ZPE) + E(vib) + E(rot) + E(trans)
    E(el)   - is the total energy from the electronic structure calculation
              = E(kin-el) + E(nuc-el) + E(el-el) + E(nuc-nuc)
    E(ZPE)  - the the zero temperature vibrational energy from the frequency calculation
    E(vib)  - the the finite temperature correction to E(ZPE) due to population
              of excietd vibrational states
    E(rot)  - is the rotational thermal energy
    E(trans)- is the translational thermal energy

Summary of contributions to the inner energy U:
Electronic energy                ...   -327.19434128 Eh
Zero point energy                ...      0.17534927 Eh     110.03 kcal/mol
Thermal vibrational correction   ...      0.00581679 Eh       3.65 kcal/mol
Thermal rotational correction    ...      0.00141627 Eh       0.89 kcal/mol
Thermal translational correction ...      0.00141627 Eh       0.89 kcal/mol
-----------------------------------------------------------------------
Total thermal energy                   -327.01034268 Eh

Summary of corrections to the electronic energy:
(perhaps to be used in another calculation)
Total thermal correction                  0.00864933 Eh       5.43 kcal/mol
Non-thermal (ZPE) correction              0.17534927 Eh     110.03 kcal/mol
-----------------------------------------------------------------------
Total correction                          0.18399860 Eh     115.46 kcal/mol

--------
ENTHALPY
--------

The enthalpy is H = U + kB*T
                kB is Boltzmann's constant
Total free energy                 ...   -327.01034268 Eh
Thermal Enthalpy correction       ...      0.00094421 Eh       0.59 kcal/mol
-----------------------------------------------------------------------
Total Enthalpy                    ...   -327.00939847 Eh

-------
ENTROPY
-------

The entropy contributions are T*S = T*(S(el)+S(vib)+S(rot)+S(trans)
     S(el)   - electronic entropy
     S(vib)  - vibrational entropy
     S(rot)  - rotational entropy
     S(trans)- translational entropy
The entropies will be listed as mutliplied by the temperature to get
units of energy

Electronic entropy                ...      0.00000000 Eh      0.00 kcal/mol
Vibrational entropy               ...      0.01101965 Eh      6.91 kcal/mol
Rotational entropy                ...      0.01225450 Eh      7.69 kcal/mol
Translational entropy             ...      0.01890147 Eh     11.86 kcal/mol
-----------------------------------------------------------------------
Final entropy term                ...      0.04217562 Eh     26.47 kcal/mol

CAUTION: The rotational entropy is not quite correctly treated here
         because it includes a symmetry number that is not yet correctly
         implemented in ORCA!
For a nonlinear molecule the correct rotational entropy is:
    S(rot) = R*(ln(qrot/sn)+1.5)
    R    = 8.31441 J/mol/K = 1.987191683e-3 kcal/mol/K
    qrot = 289986.8204602
    sn is the rotational symmetry number. We have assumed 3 here
       if it is different for your molecule then you should correct
       the printed rotational entropy by manually evaluating the equation
       as given above

For convenience we print out the resulting values for sn=1 - 12:
 sn= 1  qrot/sn=  289986.8205 T*S(rot)=     8.34 kcal/mol T*S(tot)=    27.12 kcal/mol
 sn= 2  qrot/sn=  144993.4102 T*S(rot)=     7.93 kcal/mol T*S(tot)=    26.71 kcal/mol
 sn= 3  qrot/sn=   96662.2735 T*S(rot)=     7.69 kcal/mol T*S(tot)=    26.47 kcal/mol
 sn= 4  qrot/sn=   72496.7051 T*S(rot)=     7.52 kcal/mol T*S(tot)=    26.30 kcal/mol
 sn= 5  qrot/sn=   57997.3641 T*S(rot)=     7.39 kcal/mol T*S(tot)=    26.16 kcal/mol
 sn= 6  qrot/sn=   48331.1367 T*S(rot)=     7.28 kcal/mol T*S(tot)=    26.05 kcal/mol
 sn= 7  qrot/sn=   41426.6886 T*S(rot)=     7.19 kcal/mol T*S(tot)=    25.96 kcal/mol
 sn= 8  qrot/sn=   36248.3526 T*S(rot)=     7.11 kcal/mol T*S(tot)=    25.88 kcal/mol
 sn= 9  qrot/sn=   32220.7578 T*S(rot)=     7.04 kcal/mol T*S(tot)=    25.81 kcal/mol
 sn=10  qrot/sn=   28998.6820 T*S(rot)=     6.98 kcal/mol T*S(tot)=    25.75 kcal/mol
 sn=11  qrot/sn=   26362.4382 T*S(rot)=     6.92 kcal/mol T*S(tot)=    25.70 kcal/mol
 sn=12  qrot/sn=   24165.5684 T*S(rot)=     6.87 kcal/mol T*S(tot)=    25.64 kcal/mol

-------------------
GIBBS FREE ENTHALPY
-------------------

The Gibbs free enthalpy is G = H - T*S

Total enthalpy                    ...   -327.00939847 Eh
Total entropy correction          ...     -0.04217562 Eh    -26.47 kcal/mol
-----------------------------------------------------------------------
Final Gibbs free enthalpy         ...   -327.05157410 Eh

For completeness - the Gibbs free enthalpy minus the electronic energy
G-E(el)                           ...      0.14276718 Eh     89.59 kcal/mol

                             ****ORCA TERMINATED NORMALLY****
TOTAL RUN TIME: 0 days 0 hours 36 minutes 7 seconds 510 msec
