                         Program Version 3.0.3 - RELEASE   -
|  1> ! NORI PBE0 def2-TZVP UseSym TightOPT Freq TightSCF Grid3 FinalGrid5 XYZFile
|  2> % pal
|  3>     nprocs 8
|  4> end
|  5> %method
|  6>     SymThresh 5.0e-2
|  7> end
|  8> % geom
|  9>     MaxIter 10
| 10> end
| 11> % maxcore 2000
| 12> % output
| 13>     printlevel mini
| 14>     print[ P_Basis ] 0
| 15>     print[ P_SCFInfo ] 1
| 16>     print[ P_SCFIterInfo ] 1
| 17>     print[ P_OrbEn ] 0
| 18>     print[ P_Cartesian ] 0
| 19> end
| 20> % elprop
| 21>     Dipole false
| 22> end
| 23> *xyz 1 1
| 24>  N        1.7991036603    -0.5029949407    -1.2764003135
| 25>  C        2.6661357832    -0.3253293634    -0.0309517654
| 26>  C        2.8856241760     1.1080269876     0.2528198740
| 27>  C        4.0856467255     1.6596203776     0.0785565765
| 28>  O        4.2968411309     2.9511827042     0.3812406378
| 29>  C        5.5672374882     3.4458424616     0.1553623876
| 30>  O        6.4528739502     2.8145034141    -0.3089646408
| 31>  H        1.6313345195    -1.4886990135    -1.4920547760
| 32>  H        2.2498913550    -0.0653681664    -2.0830066062
| 33>  H        0.8922643081    -0.0478325637    -1.1524696843
| 34>  H        3.5950038840    -0.8584194324    -0.2349193110
| 35>  H        2.1303179551    -0.8430702371     0.7671737694
| 36>  H        2.0701547586     1.6963804548     0.6619249769
| 37>  H        4.9555549735     1.1203199266    -0.2890171403
| 38>  H        5.5899453319     4.4919273909     0.4772160152
| 39> *
| 40>
| 41>                          ****END OF INPUT****
 Total Charge           Charge          ....    1
 Multiplicity           Mult            ....    1
 Number of Electrons    NEL             ....   54
FINAL SINGLE POINT ENERGY      -361.904203834062
FINAL SINGLE POINT ENERGY      -361.904190848302
FINAL SINGLE POINT ENERGY      -361.904204912580

CARTESIAN COORDINATES (ANGSTROEM)
---------------------------------
  N     -1.412009    0.725965   -2.766228
  C     -1.025660   -0.523956   -1.977614
  C     -1.074901   -0.261237   -0.524404
  C      0.046251   -0.194824    0.192518
  O     -0.000361   -0.001519    1.520792
  C      1.209808    0.070657    2.184239
  O      2.263896    0.003528    1.652580
  H     -1.388138    0.566990   -3.776321
  H     -0.774726    1.493289   -2.542169
  H     -2.354522    1.032574   -2.516708
  H     -0.026837   -0.795915   -2.319250
  H     -1.729777   -1.294028   -2.298210
  H     -2.040148   -0.179149   -0.034583
  H      1.043413   -0.308065   -0.225994
  H      1.007764    0.199849    3.252257

FINAL SINGLE POINT ENERGY      -361.904205052389
                    ***********************HURRAY********************
 Multiplicity           Mult            ....    1
 Number of Electrons    NEL             ....   54
 Basis Dimension        Dim             ....  265
FINAL SINGLE POINT ENERGY      -361.904205145291

VIBRATIONAL FREQUENCIES
-----------------------

   0:         0.00 cm**-1
   1:         0.00 cm**-1
   2:         0.00 cm**-1
   3:         0.00 cm**-1
   4:         0.00 cm**-1
   5:         0.00 cm**-1
   6:        53.45 cm**-1
   7:       118.88 cm**-1
   8:       147.19 cm**-1
   9:       199.17 cm**-1
  10:       227.19 cm**-1
  11:       299.04 cm**-1
  12:       371.83 cm**-1
  13:       427.87 cm**-1
  14:       505.35 cm**-1
  15:       784.97 cm**-1
  16:       839.08 cm**-1
  17:       844.81 cm**-1
  18:       873.37 cm**-1
  19:       989.30 cm**-1
  20:      1014.05 cm**-1
  21:      1028.14 cm**-1
  22:      1036.37 cm**-1
  23:      1092.32 cm**-1
  24:      1185.88 cm**-1
  25:      1218.53 cm**-1
  26:      1306.94 cm**-1
  27:      1319.52 cm**-1
  28:      1357.35 cm**-1
  29:      1393.36 cm**-1
  30:      1409.99 cm**-1
  31:      1487.28 cm**-1
  32:      1494.78 cm**-1
  33:      1650.78 cm**-1
  34:      1660.97 cm**-1
  35:      1736.81 cm**-1
  36:      1875.46 cm**-1
  37:      3095.64 cm**-1
  38:      3124.09 cm**-1
  39:      3156.96 cm**-1
  40:      3182.86 cm**-1
  41:      3193.73 cm**-1
  42:      3414.31 cm**-1
  43:      3505.47 cm**-1
  44:      3507.83 cm**-1

IR SPECTRUM
-----------

 Mode    freq (cm**-1)   T**2         TX         TY         TZ
-------------------------------------------------------------------
   6:        53.45    8.000947  ( -2.651317   0.363937  -0.915979)
   7:       118.88   19.183856  (  1.548558   3.263104   2.477494)
   8:       147.19    5.703393  ( -1.778509   1.346437  -0.852882)
   9:       199.17    5.226418  ( -0.794096   2.116309  -0.342151)
  10:       227.19    2.610555  (  0.466275   1.286833   0.858605)
  11:       299.04   19.772893  ( -0.118288  -3.647004   2.541312)
  12:       371.83    1.413650  ( -0.216709  -0.979451  -0.638249)
  13:       427.87    2.661711  (  1.059745   0.275751  -1.209386)
  14:       505.35    2.786848  (  1.152068   0.232056   1.185637)
  15:       784.97    9.568723  ( -0.213008   0.803751   2.979486)
  16:       839.08   23.373484  (  3.600093   0.663144   3.158014)
  17:       844.81   21.830397  ( -2.204209  -1.230106   3.931755)
  18:       873.37   67.596502  ( -2.321569   5.504513  -5.648642)
  19:       989.30    9.694505  (  1.432174  -2.453398   1.274449)
  20:      1014.05   33.120728  (  0.735244  -5.370650   1.932942)
  21:      1028.14  279.310298  ( 12.294290  -0.421286  11.312968)
  22:      1036.37    3.775092  (  1.115840   1.259665   0.971204)
  23:      1092.32  149.101608  (  7.054026   3.556568   9.310915)
  24:      1185.88   44.830162  (  0.232363   0.917602   6.628286)
  25:      1218.53  514.785462  (-13.088146  -1.476622 -18.474455)
  26:      1306.94   15.460230  ( -2.242231   0.115450  -3.227894)
  27:      1319.52   10.868045  ( -2.274596  -0.160748  -2.380844)
  28:      1357.35    6.648190  (  2.414510   0.372988   0.824144)
  29:      1393.36   28.726391  ( -3.688751  -0.220041  -3.882150)
  30:      1409.99    6.403262  ( -0.157753  -0.491447   2.477268)
  31:      1487.28   13.903860  ( -0.549909   1.398866   3.412424)
  32:      1494.78  151.752588  ( -3.462228   9.727379  -6.718903)
  33:      1650.78   46.905066  ( -6.493290  -1.589194   1.488862)
  34:      1660.97   43.504322  (  1.097531   3.017346   5.761542)
  35:      1736.81  215.287475  ( -9.750681   0.087118 -10.963763)
  36:      1875.46  270.080536  ( 16.424051  -0.090427   0.568241)
  37:      3095.64    3.468219  (  0.216137   0.324003   1.821133)
  38:      3124.09    9.444968  (  0.799896  -0.347640  -2.946910)
  39:      3156.96    0.274074  ( -0.391643   0.095583  -0.333997)
  40:      3182.86   17.155114  ( -2.672337  -0.292127  -3.150935)
  41:      3193.73    3.366700  (  1.634722   0.269796   0.788413)
  42:      3414.31   40.286924  ( -1.772726   4.348777  -4.269953)
  43:      3505.47   84.490368  ( -1.979301  -5.795811  -6.854291)
  44:      3507.83   96.961481  (  9.471969   0.172883  -2.685776)

--------------------------
THERMOCHEMISTRY AT 298.15K
--------------------------

Temperature         ... 298.15 K
Pressure            ... 1.00 atm
Total Mass          ... 102.11 AMU

Throughout the following assumptions are being made:
  (1) The electronic state is orbitally nondegenerate
  (2) There are no thermally accessible electronically excited states
  (3) Hindered rotations indicated by low frequency modes) are not
      treated as such but are treated as vibrations and this may
      case some error
  (4) All equations used are the standard statistical mechanics
      equations for an ideal gas
  (5) All vibrations are strinctly harmonic

------------
INNER ENERGY
------------

The inner energy is: U= E(el) + E(ZPE) + E(vib) + E(rot) + E(trans)
    E(el)   - is the total energy from the electronic structure calculation
              = E(kin-el) + E(nuc-el) + E(el-el) + E(nuc-nuc)
    E(ZPE)  - the the zero temperature vibrational energy from the frequency calculation
    E(vib)  - the the finite temperature correction to E(ZPE) due to population
              of excietd vibrational states
    E(rot)  - is the rotational thermal energy
    E(trans)- is the translational thermal energy

Summary of contributions to the inner energy U:
Electronic energy                ...   -361.90420515 Eh
Zero point energy                ...      0.12787571 Eh      80.24 kcal/mol
Thermal vibrational correction   ...      0.00505625 Eh       3.17 kcal/mol
Thermal rotational correction    ...      0.00141627 Eh       0.89 kcal/mol
Thermal translational correction ...      0.00141627 Eh       0.89 kcal/mol
-----------------------------------------------------------------------
Total thermal energy                   -361.76844064 Eh

Summary of corrections to the electronic energy:
(perhaps to be used in another calculation)
Total thermal correction                  0.00788880 Eh       4.95 kcal/mol
Non-thermal (ZPE) correction              0.12787571 Eh      80.24 kcal/mol
-----------------------------------------------------------------------
Total correction                          0.13576451 Eh      85.19 kcal/mol

--------
ENTHALPY
--------

The enthalpy is H = U + kB*T
                kB is Boltzmann's constant
Total free energy                 ...   -361.76844064 Eh
Thermal Enthalpy correction       ...      0.00094421 Eh       0.59 kcal/mol
-----------------------------------------------------------------------
Total Enthalpy                    ...   -361.76749643 Eh

-------
ENTROPY
-------

The entropy contributions are T*S = T*(S(el)+S(vib)+S(rot)+S(trans)
     S(el)   - electronic entropy
     S(vib)  - vibrational entropy
     S(rot)  - rotational entropy
     S(trans)- translational entropy
The entropies will be listed as mutliplied by the temperature to get
units of energy

Electronic entropy                ...      0.00000000 Eh      0.00 kcal/mol
Vibrational entropy               ...      0.00947171 Eh      5.94 kcal/mol
Rotational entropy                ...      0.01227863 Eh      7.70 kcal/mol
Translational entropy             ...      0.01890086 Eh     11.86 kcal/mol
-----------------------------------------------------------------------
Final entropy term                ...      0.04065120 Eh     25.51 kcal/mol

CAUTION: The rotational entropy is not quite correctly treated here
         because it includes a symmetry number that is not yet correctly
         implemented in ORCA!
For a nonlinear molecule the correct rotational entropy is:
    S(rot) = R*(ln(qrot/sn)+1.5)
    R    = 8.31441 J/mol/K = 1.987191683e-3 kcal/mol/K
    qrot = 297491.2688298
    sn is the rotational symmetry number. We have assumed 3 here
       if it is different for your molecule then you should correct
       the printed rotational entropy by manually evaluating the equation
       as given above

For convenience we print out the resulting values for sn=1 - 12:
 sn= 1  qrot/sn=  297491.2688 T*S(rot)=     8.36 kcal/mol T*S(tot)=    26.16 kcal/mol
 sn= 2  qrot/sn=  148745.6344 T*S(rot)=     7.95 kcal/mol T*S(tot)=    25.75 kcal/mol
 sn= 3  qrot/sn=   99163.7563 T*S(rot)=     7.70 kcal/mol T*S(tot)=    25.51 kcal/mol
 sn= 4  qrot/sn=   74372.8172 T*S(rot)=     7.53 kcal/mol T*S(tot)=    25.34 kcal/mol
 sn= 5  qrot/sn=   59498.2538 T*S(rot)=     7.40 kcal/mol T*S(tot)=    25.21 kcal/mol
 sn= 6  qrot/sn=   49581.8781 T*S(rot)=     7.29 kcal/mol T*S(tot)=    25.10 kcal/mol
 sn= 7  qrot/sn=   42498.7527 T*S(rot)=     7.20 kcal/mol T*S(tot)=    25.01 kcal/mol
 sn= 8  qrot/sn=   37186.4086 T*S(rot)=     7.12 kcal/mol T*S(tot)=    24.93 kcal/mol
 sn= 9  qrot/sn=   33054.5854 T*S(rot)=     7.05 kcal/mol T*S(tot)=    24.86 kcal/mol
 sn=10  qrot/sn=   29749.1269 T*S(rot)=     6.99 kcal/mol T*S(tot)=    24.80 kcal/mol
 sn=11  qrot/sn=   27044.6608 T*S(rot)=     6.94 kcal/mol T*S(tot)=    24.74 kcal/mol
 sn=12  qrot/sn=   24790.9391 T*S(rot)=     6.88 kcal/mol T*S(tot)=    24.69 kcal/mol

-------------------
GIBBS FREE ENTHALPY
-------------------

The Gibbs free enthalpy is G = H - T*S

Total enthalpy                    ...   -361.76749643 Eh
Total entropy correction          ...     -0.04065120 Eh    -25.51 kcal/mol
-----------------------------------------------------------------------
Final Gibbs free enthalpy         ...   -361.80814763 Eh

For completeness - the Gibbs free enthalpy minus the electronic energy
G-E(el)                           ...      0.09605752 Eh     60.28 kcal/mol

                             ****ORCA TERMINATED NORMALLY****
TOTAL RUN TIME: 0 days 0 hours 25 minutes 32 seconds 23 msec
