                         Program Version 3.0.3 - RELEASE   -
|  1> ! NORI PBE0 def2-TZVP UseSym TightOPT Freq TightSCF Grid3 FinalGrid5 XYZFile
|  2> % pal
|  3>     nprocs 8
|  4> end
|  5> %method
|  6>     SymThresh 5.0e-2
|  7> end
|  8> % geom
|  9>     MaxIter 10
| 10> end
| 11> % maxcore 2000
| 12> % output
| 13>     printlevel mini
| 14>     print[ P_Basis ] 0
| 15>     print[ P_SCFInfo ] 1
| 16>     print[ P_SCFIterInfo ] 1
| 17>     print[ P_OrbEn ] 0
| 18>     print[ P_Cartesian ] 0
| 19> end
| 20> % elprop
| 21>     Dipole false
| 22> end
| 23> *xyz 1 1
| 24>  N        0.3845424099    -0.0219205708     0.0395729167
| 25>  C        1.8620320455    -0.0266751618    -0.1617051969
| 26>  C        2.5272618377     1.0986781119     0.5755398133
| 27>  C        1.9108175099     1.9871273517     1.3440630349
| 28>  O        3.8525628413     0.9917638347     0.2777847096
| 29>  C        4.8151975578     1.8312006466     0.7875230522
| 30>  O        4.6222355932     2.7333216624     1.5261212675
| 31>  H       -0.0617881641    -0.7801365985    -0.4803559500
| 32>  H       -0.0205580019     0.8647725773    -0.2736326632
| 33>  H        0.1513014089    -0.1330236190     1.0300146350
| 34>  H        2.0484824323     0.0521265015    -1.2348660155
| 35>  H        2.2384761376    -0.9932530495     0.1800442551
| 36>  H        0.8385698351     1.9474933379     1.4974047967
| 37>  H        2.4402250821     2.7784034986     1.8487085073
| 38>  H        5.7796614749     1.5023514771     0.3847128375
| 39> *
| 40>
| 41>                          ****END OF INPUT****
 Total Charge           Charge          ....    1
 Multiplicity           Mult            ....    1
 Number of Electrons    NEL             ....   54
FINAL SINGLE POINT ENERGY      -361.892130666096
FINAL SINGLE POINT ENERGY      -361.892107403949
FINAL SINGLE POINT ENERGY      -361.892133489224

CARTESIAN COORDINATES (ANGSTROEM)
---------------------------------
  N     -2.084338   -0.002427   -1.854167
  C     -1.695397    0.028641   -0.414497
  C     -0.204765   -0.002104   -0.239974
  C      0.686318   -0.029037   -1.222460
  O      0.000114    0.003021    1.107076
  C      1.247797    0.005733    1.685256
  O      2.276868   -0.001054    1.104465
  H     -3.100372    0.003532   -1.962523
  H     -1.717547   -0.842196   -2.310266
  H     -1.704914    0.807523   -2.351578
  H     -2.158500   -0.832903    0.070835
  H     -2.119803    0.935019    0.022334
  H      0.376355   -0.027695   -2.261016
  H      1.747802   -0.050878   -1.037244
  H      1.102646    0.015254    2.771604

FINAL SINGLE POINT ENERGY      -361.892134125437
                    ***********************HURRAY********************
 Multiplicity           Mult            ....    1
 Number of Electrons    NEL             ....   54
 Basis Dimension        Dim             ....  265
FINAL SINGLE POINT ENERGY      -361.892135982756

VIBRATIONAL FREQUENCIES
-----------------------

   0:         0.00 cm**-1
   1:         0.00 cm**-1
   2:         0.00 cm**-1
   3:         0.00 cm**-1
   4:         0.00 cm**-1
   5:         0.00 cm**-1
   6:        35.15 cm**-1
   7:        73.73 cm**-1
   8:       202.98 cm**-1
   9:       220.89 cm**-1
  10:       241.49 cm**-1
  11:       316.67 cm**-1
  12:       384.65 cm**-1
  13:       498.95 cm**-1
  14:       503.08 cm**-1
  15:       741.14 cm**-1
  16:       774.56 cm**-1
  17:       858.04 cm**-1
  18:       877.89 cm**-1
  19:       912.43 cm**-1
  20:       919.23 cm**-1
  21:      1007.58 cm**-1
  22:      1032.79 cm**-1
  23:      1087.29 cm**-1
  24:      1116.44 cm**-1
  25:      1123.80 cm**-1
  26:      1276.46 cm**-1
  27:      1336.67 cm**-1
  28:      1393.93 cm**-1
  29:      1430.02 cm**-1
  30:      1438.19 cm**-1
  31:      1484.29 cm**-1
  32:      1512.50 cm**-1
  33:      1644.39 cm**-1
  34:      1664.96 cm**-1
  35:      1728.98 cm**-1
  36:      1874.29 cm**-1
  37:      3091.43 cm**-1
  38:      3106.79 cm**-1
  39:      3143.54 cm**-1
  40:      3184.14 cm**-1
  41:      3303.40 cm**-1
  42:      3414.66 cm**-1
  43:      3486.08 cm**-1
  44:      3507.65 cm**-1

IR SPECTRUM
-----------

 Mode    freq (cm**-1)   T**2         TX         TY         TZ
-------------------------------------------------------------------
   6:        35.15    0.898153  (  0.043738   0.946541  -0.017298)
   7:        73.73    5.158644  ( -0.032712  -2.270693   0.039103)
   8:       202.98   18.254284  (  4.160599  -0.073847   0.968631)
   9:       220.89    1.232193  ( -0.001697  -1.109992   0.010435)
  10:       241.49   26.189404  ( -0.085611  -5.116808   0.018859)
  11:       316.67    1.974819  ( -0.226557  -0.041324   1.386284)
  12:       384.65   21.302237  ( -3.457938   0.045073  -3.056610)
  13:       498.95    0.682747  (  0.659615   0.426888   0.255776)
  14:       503.08    3.545637  (  0.080044  -1.880213   0.063485)
  15:       741.14    0.112835  ( -0.105187  -0.315521   0.047090)
  16:       774.56    5.954116  ( -1.069395  -0.033439  -2.193033)
  17:       858.04   46.105303  (  6.757935  -0.152985  -0.642038)
  18:       877.89    6.047609  (  0.130959   2.454051  -0.089957)
  19:       912.43    9.297455  (  3.014532   0.151808   0.432444)
  20:       919.23   56.390239  (  0.066882   7.508304  -0.105529)
  21:      1007.58    1.448347  (  0.172282  -0.047851  -1.190116)
  22:      1032.79    0.606471  (  0.007858  -0.778718  -0.002677)
  23:      1087.29  174.911823  (-10.257077  -0.005189  -8.348903)
  24:      1116.44    5.276328  (  0.148139   2.290106   0.098981)
  25:      1123.80  230.099504  (  7.631087   0.142691  13.108991)
  26:      1276.46  240.419359  ( -9.312001  -0.065036 -12.397652)
  27:      1336.67    5.187380  (  0.017066  -2.275499   0.095879)
  28:      1393.93    3.122861  (  1.085447   0.006639   1.394497)
  29:      1430.02    9.878521  (  0.886546   0.035490   3.015178)
  30:      1438.19   20.389114  ( -4.464378   0.043063   0.675716)
  31:      1484.29   23.861569  ( -4.109803   0.127533   2.637200)
  32:      1512.50  166.475044  (  4.498262   0.198746  12.091368)
  33:      1644.39   60.892465  (  0.164705   7.800367  -0.140062)
  34:      1664.96   44.085636  ( -6.395190   0.130013  -1.780526)
  35:      1728.98   74.394961  ( -0.139445   0.160646   8.622628)
  36:      1874.29  231.138543  (-15.203119   0.038976   0.046882)
  37:      3091.43    0.045473  ( -0.162139  -0.006819   0.138336)
  38:      3106.79   11.135611  (  0.694017  -0.029925  -3.263902)
  39:      3143.54    1.217359  (  0.024614   1.102670  -0.029542)
  40:      3184.14   23.250455  (  4.336967  -0.044684   2.106934)
  41:      3303.40   17.534890  (  4.171874  -0.071711  -0.353854)
  42:      3414.66   42.374117  ( -2.025454  -0.167537  -6.184140)
  43:      3486.08   99.436729  ( -0.064009   9.968121  -0.263054)
  44:      3507.65  125.074885  (-11.149347   0.026403   0.875357)

--------------------------
THERMOCHEMISTRY AT 298.15K
--------------------------

Temperature         ... 298.15 K
Pressure            ... 1.00 atm
Total Mass          ... 102.11 AMU

Throughout the following assumptions are being made:
  (1) The electronic state is orbitally nondegenerate
  (2) There are no thermally accessible electronically excited states
  (3) Hindered rotations indicated by low frequency modes) are not
      treated as such but are treated as vibrations and this may
      case some error
  (4) All equations used are the standard statistical mechanics
      equations for an ideal gas
  (5) All vibrations are strinctly harmonic

------------
INNER ENERGY
------------

The inner energy is: U= E(el) + E(ZPE) + E(vib) + E(rot) + E(trans)
    E(el)   - is the total energy from the electronic structure calculation
              = E(kin-el) + E(nuc-el) + E(el-el) + E(nuc-nuc)
    E(ZPE)  - the the zero temperature vibrational energy from the frequency calculation
    E(vib)  - the the finite temperature correction to E(ZPE) due to population
              of excietd vibrational states
    E(rot)  - is the rotational thermal energy
    E(trans)- is the translational thermal energy

Summary of contributions to the inner energy U:
Electronic energy                ...   -361.89213598 Eh
Zero point energy                ...      0.12746606 Eh      79.99 kcal/mol
Thermal vibrational correction   ...      0.00501497 Eh       3.15 kcal/mol
Thermal rotational correction    ...      0.00141627 Eh       0.89 kcal/mol
Thermal translational correction ...      0.00141627 Eh       0.89 kcal/mol
-----------------------------------------------------------------------
Total thermal energy                   -361.75682241 Eh

Summary of corrections to the electronic energy:
(perhaps to be used in another calculation)
Total thermal correction                  0.00784752 Eh       4.92 kcal/mol
Non-thermal (ZPE) correction              0.12746606 Eh      79.99 kcal/mol
-----------------------------------------------------------------------
Total correction                          0.13531358 Eh      84.91 kcal/mol

--------
ENTHALPY
--------

The enthalpy is H = U + kB*T
                kB is Boltzmann's constant
Total free energy                 ...   -361.75682241 Eh
Thermal Enthalpy correction       ...      0.00094421 Eh       0.59 kcal/mol
-----------------------------------------------------------------------
Total Enthalpy                    ...   -361.75587820 Eh

-------
ENTROPY
-------

The entropy contributions are T*S = T*(S(el)+S(vib)+S(rot)+S(trans)
     S(el)   - electronic entropy
     S(vib)  - vibrational entropy
     S(rot)  - rotational entropy
     S(trans)- translational entropy
The entropies will be listed as mutliplied by the temperature to get
units of energy

Electronic entropy                ...      0.00000000 Eh      0.00 kcal/mol
Vibrational entropy               ...      0.00980882 Eh      6.16 kcal/mol
Rotational entropy                ...      0.01205201 Eh      7.56 kcal/mol
Translational entropy             ...      0.01890086 Eh     11.86 kcal/mol
-----------------------------------------------------------------------
Final entropy term                ...      0.04076169 Eh     25.58 kcal/mol

CAUTION: The rotational entropy is not quite correctly treated here
         because it includes a symmetry number that is not yet correctly
         implemented in ORCA!
For a nonlinear molecule the correct rotational entropy is:
    S(rot) = R*(ln(qrot/sn)+1.5)
    R    = 8.31441 J/mol/K = 1.987191683e-3 kcal/mol/K
    qrot = 234012.4786359
    sn is the rotational symmetry number. We have assumed 3 here
       if it is different for your molecule then you should correct
       the printed rotational entropy by manually evaluating the equation
       as given above

For convenience we print out the resulting values for sn=1 - 12:
 sn= 1  qrot/sn=  234012.4786 T*S(rot)=     8.21 kcal/mol T*S(tot)=    26.23 kcal/mol
 sn= 2  qrot/sn=  117006.2393 T*S(rot)=     7.80 kcal/mol T*S(tot)=    25.82 kcal/mol
 sn= 3  qrot/sn=   78004.1595 T*S(rot)=     7.56 kcal/mol T*S(tot)=    25.58 kcal/mol
 sn= 4  qrot/sn=   58503.1197 T*S(rot)=     7.39 kcal/mol T*S(tot)=    25.41 kcal/mol
 sn= 5  qrot/sn=   46802.4957 T*S(rot)=     7.26 kcal/mol T*S(tot)=    25.28 kcal/mol
 sn= 6  qrot/sn=   39002.0798 T*S(rot)=     7.15 kcal/mol T*S(tot)=    25.17 kcal/mol
 sn= 7  qrot/sn=   33430.3541 T*S(rot)=     7.06 kcal/mol T*S(tot)=    25.08 kcal/mol
 sn= 8  qrot/sn=   29251.5598 T*S(rot)=     6.98 kcal/mol T*S(tot)=    25.00 kcal/mol
 sn= 9  qrot/sn=   26001.3865 T*S(rot)=     6.91 kcal/mol T*S(tot)=    24.93 kcal/mol
 sn=10  qrot/sn=   23401.2479 T*S(rot)=     6.85 kcal/mol T*S(tot)=    24.86 kcal/mol
 sn=11  qrot/sn=   21273.8617 T*S(rot)=     6.79 kcal/mol T*S(tot)=    24.81 kcal/mol
 sn=12  qrot/sn=   19501.0399 T*S(rot)=     6.74 kcal/mol T*S(tot)=    24.76 kcal/mol

-------------------
GIBBS FREE ENTHALPY
-------------------

The Gibbs free enthalpy is G = H - T*S

Total enthalpy                    ...   -361.75587820 Eh
Total entropy correction          ...     -0.04076169 Eh    -25.58 kcal/mol
-----------------------------------------------------------------------
Final Gibbs free enthalpy         ...   -361.79663988 Eh

For completeness - the Gibbs free enthalpy minus the electronic energy
G-E(el)                           ...      0.09549610 Eh     59.92 kcal/mol

                             ****ORCA TERMINATED NORMALLY****
TOTAL RUN TIME: 0 days 0 hours 26 minutes 54 seconds 326 msec
