                         Program Version 3.0.3 - RELEASE   -
|  1> ! NORI PBE0 def2-TZVP UseSym TightOPT Freq TightSCF Grid3 FinalGrid5 XYZFile
|  2> % pal
|  3>     nprocs 8
|  4> end
|  5> %method
|  6>     SymThresh 5.0e-2
|  7> end
|  8> % geom
|  9>     MaxIter 10
| 10> end
| 11> % maxcore 2000
| 12> % output
| 13>     printlevel mini
| 14>     print[ P_Basis ] 0
| 15>     print[ P_SCFInfo ] 1
| 16>     print[ P_SCFIterInfo ] 1
| 17>     print[ P_OrbEn ] 0
| 18>     print[ P_Cartesian ] 0
| 19> end
| 20> % elprop
| 21>     Dipole false
| 22> end
| 23> *xyz 1 1
| 24>  N        1.0617593877     0.0800385755     0.2679617166
| 25>  C        2.5381827744     0.2728173187     0.0794494508
| 26>  C        3.0014497520    -0.4489002027    -1.1766977090
| 27>  C        2.4813558504     0.2048900461    -2.4446082127
| 28>  O        1.0601183612     0.2980059047    -2.3399114785
| 29>  C        4.5216762805    -0.5241154313    -1.1824895930
| 30>  O        4.8987257530    -1.2102538939    -0.0155692038
| 31>  H        0.6795506282     0.6918243893     0.9880039800
| 32>  H        0.8476033160    -0.8837732765     0.5247304782
| 33>  H        0.6224422993     0.2744246686    -0.6563977409
| 34>  H        2.7067030243     1.3492985803     0.0065040359
| 35>  H        3.0512185623    -0.1112425355     0.9600366856
| 36>  H        2.6347594264    -1.4828499934    -1.1383153837
| 37>  H        2.9152135284     1.2050492397    -2.5652849150
| 38>  H        2.7576978498    -0.3989049167    -3.3135802271
| 39>  H        0.6834809362     0.6501406200    -3.1511057175
| 40>  H        4.9501759550     0.4882640142    -1.2113302277
| 41>  H        4.8465823610    -1.0497927751    -2.0883023528
| 42>  H        5.8511639538    -1.3359803320    -0.0036035853
| 43> *
| 44>
| 45>                          ****END OF INPUT****
 Total Charge           Charge          ....    1
 Multiplicity           Mult            ....    1
 Number of Electrons    NEL             ....   58
FINAL SINGLE POINT ENERGY      -364.342727430015

CARTESIAN COORDINATES (ANGSTROEM)
---------------------------------
  N     -1.638696    1.205872    0.598977
  C     -1.087636    0.196489   -0.365656
  C      0.395575   -0.017023   -0.104931
  C      0.655206   -0.732855    1.208755
  O     -0.001822   -0.001419    2.244695
  C      1.008190   -0.775885   -1.273720
  O      0.783604   -0.000452   -2.423971
  H     -2.657122    1.243921    0.580830
  H     -1.282887    2.140167    0.395182
  H     -1.294153    0.926167    1.541662
  H     -1.656203   -0.723649   -0.215142
  H     -1.255776    0.559915   -1.378346
  H      0.886979    0.964179   -0.073998
  H      0.266940   -1.757772    1.168912
  H      1.730939   -0.777524    1.400847
  H      0.188814   -0.386925    3.104418
  H      0.547312   -1.770405   -1.361280
  H      2.078077   -0.919668   -1.080745
  H      1.205908   -0.411547   -3.182778

FINAL SINGLE POINT ENERGY      -364.342728405056
                    ***********************HURRAY********************
 Multiplicity           Mult            ....    1
 Number of Electrons    NEL             ....   58
 Basis Dimension        Dim             ....  289
FINAL SINGLE POINT ENERGY      -364.342728701289

VIBRATIONAL FREQUENCIES
-----------------------

   0:         0.00 cm**-1
   1:         0.00 cm**-1
   2:         0.00 cm**-1
   3:         0.00 cm**-1
   4:         0.00 cm**-1
   5:         0.00 cm**-1
   6:       103.77 cm**-1
   7:       115.53 cm**-1
   8:       146.92 cm**-1
   9:       237.71 cm**-1
  10:       284.29 cm**-1
  11:       299.20 cm**-1
  12:       307.32 cm**-1
  13:       313.92 cm**-1
  14:       368.38 cm**-1
  15:       411.95 cm**-1
  16:       441.39 cm**-1
  17:       561.44 cm**-1
  18:       822.44 cm**-1
  19:       862.14 cm**-1
  20:       944.24 cm**-1
  21:       980.13 cm**-1
  22:      1011.79 cm**-1
  23:      1040.57 cm**-1
  24:      1070.00 cm**-1
  25:      1095.29 cm**-1
  26:      1126.21 cm**-1
  27:      1181.45 cm**-1
  28:      1183.26 cm**-1
  29:      1219.95 cm**-1
  30:      1257.87 cm**-1
  31:      1281.99 cm**-1
  32:      1295.70 cm**-1
  33:      1316.14 cm**-1
  34:      1353.53 cm**-1
  35:      1372.50 cm**-1
  36:      1427.42 cm**-1
  37:      1451.21 cm**-1
  38:      1459.82 cm**-1
  39:      1493.61 cm**-1
  40:      1509.21 cm**-1
  41:      1515.54 cm**-1
  42:      1524.08 cm**-1
  43:      1644.19 cm**-1
  44:      1675.45 cm**-1
  45:      3003.00 cm**-1
  46:      3031.38 cm**-1
  47:      3042.84 cm**-1
  48:      3057.57 cm**-1
  49:      3094.85 cm**-1
  50:      3099.03 cm**-1
  51:      3128.89 cm**-1
  52:      3168.76 cm**-1
  53:      3476.31 cm**-1
  54:      3536.08 cm**-1
  55:      3864.62 cm**-1
  56:      3871.48 cm**-1

IR SPECTRUM
-----------

 Mode    freq (cm**-1)   T**2         TX         TY         TZ
-------------------------------------------------------------------
   6:       103.77   13.448573  (  2.853477   2.286625  -0.278547)
   7:       115.53    2.996262  ( -0.073565   1.236581  -1.209015)
   8:       146.92    7.293052  (  1.219219   0.969608  -2.205996)
   9:       237.71    6.218845  (  0.635775   1.223033   2.078178)
  10:       284.29  136.647889  ( 10.306759   4.932398   2.467804)
  11:       299.20   40.389125  (  1.909186  -4.675663   3.857759)
  12:       307.32    3.618349  ( -1.705216  -0.731354   0.419175)
  13:       313.92  123.730757  (  7.952065   7.417993   2.338546)
  14:       368.38    7.403762  ( -2.089540   0.736935   1.579402)
  15:       411.95    5.485865  ( -2.231468   0.294552   0.647807)
  16:       441.39    9.687985  (  3.099163  -0.123293  -0.260717)
  17:       561.44   35.621358  ( -0.941783   1.398565  -5.725244)
  18:       822.44   12.085068  (  1.729442  -0.575853   2.960150)
  19:       862.14   18.912232  (  0.445984   2.247630  -3.696145)
  20:       944.24    8.315025  ( -0.258218   0.092301   2.870510)
  21:       980.13   19.786947  ( -2.976931   2.966269  -1.458106)
  22:      1011.79    4.613014  ( -0.741661  -0.616026   1.919235)
  23:      1040.57   35.904235  ( -0.059859   1.207775   5.868725)
  24:      1070.00   64.025944  ( -5.602890   2.388666   5.189205)
  25:      1095.29   28.869967  ( -3.369673   3.260367  -2.623981)
  26:      1126.21   36.159606  (  0.461317  -4.036134   4.433556)
  27:      1181.45   22.387797  ( -1.322555  -0.304921  -4.532733)
  28:      1183.26   10.416702  (  1.946638   2.106180   1.480308)
  29:      1219.95   29.667398  (  1.504504   0.837098  -5.167507)
  30:      1257.87   12.332169  (  0.495007  -1.673880  -3.047173)
  31:      1281.99   43.189495  ( -3.828402   5.259222  -0.934569)
  32:      1295.70   20.643311  ( -1.240620   4.142340  -1.394702)
  33:      1316.14   40.815043  (  0.974228   0.831800  -6.258916)
  34:      1353.53    4.134722  (  0.698372   0.054159  -1.908943)
  35:      1372.50    1.119882  (  0.090706   0.899578  -0.549922)
  36:      1427.42    2.897417  ( -0.963887   1.135673   0.823763)
  37:      1451.21   17.793144  (  2.029676  -2.553298  -2.674739)
  38:      1459.82    3.065552  (  1.080044  -0.772622  -1.141101)
  39:      1493.61   62.530557  (  2.735469  -6.006420  -4.355536)
  40:      1509.21  115.541763  ( -7.980174   6.945759   1.901318)
  41:      1515.54    7.663951  (  0.598211  -2.590563   0.771413)
  42:      1524.08   14.062373  (  1.565319  -3.314487  -0.791408)
  43:      1644.19   19.174300  ( -1.394286  -3.798760   1.673228)
  44:      1675.45   35.349542  ( -5.817539  -0.214815  -1.208153)
  45:      3003.00   25.917970  ( -0.009440  -4.731640   1.878688)
  46:      3031.38    4.447721  (  0.524884  -2.016996  -0.322406)
  47:      3042.84   35.306433  (  2.463173  -5.406854   0.071734)
  48:      3057.57   15.239909  ( -3.213146  -1.927826  -1.095028)
  49:      3094.85    3.053988  ( -0.916895   0.140594  -1.481055)
  50:      3099.03   23.043540  (  4.466461   1.419579   1.038781)
  51:      3128.89  386.435382  ( -9.865359   7.723416 -15.147901)
  52:      3168.76    6.942923  ( -0.625951   0.175128  -2.553515)
  53:      3476.31   89.852096  (  5.267542  -7.417170   2.662832)
  54:      3536.08   84.779588  (  8.202851   4.129258  -0.664878)
  55:      3864.62  124.303930  ( -0.977464   2.550827 -10.809337)
  56:      3871.48   92.011425  (  3.447758  -2.102005  -8.700917)

--------------------------
THERMOCHEMISTRY AT 298.15K
--------------------------

Temperature         ... 298.15 K
Pressure            ... 1.00 atm
Total Mass          ... 106.14 AMU

Throughout the following assumptions are being made:
  (1) The electronic state is orbitally nondegenerate
  (2) There are no thermally accessible electronically excited states
  (3) Hindered rotations indicated by low frequency modes) are not
      treated as such but are treated as vibrations and this may
      case some error
  (4) All equations used are the standard statistical mechanics
      equations for an ideal gas
  (5) All vibrations are strinctly harmonic

------------
INNER ENERGY
------------

The inner energy is: U= E(el) + E(ZPE) + E(vib) + E(rot) + E(trans)
    E(el)   - is the total energy from the electronic structure calculation
              = E(kin-el) + E(nuc-el) + E(el-el) + E(nuc-nuc)
    E(ZPE)  - the the zero temperature vibrational energy from the frequency calculation
    E(vib)  - the the finite temperature correction to E(ZPE) due to population
              of excietd vibrational states
    E(rot)  - is the rotational thermal energy
    E(trans)- is the translational thermal energy

Summary of contributions to the inner energy U:
Electronic energy                ...   -364.34272870 Eh
Zero point energy                ...      0.17560651 Eh     110.19 kcal/mol
Thermal vibrational correction   ...      0.00587497 Eh       3.69 kcal/mol
Thermal rotational correction    ...      0.00141627 Eh       0.89 kcal/mol
Thermal translational correction ...      0.00141627 Eh       0.89 kcal/mol
-----------------------------------------------------------------------
Total thermal energy                   -364.15841468 Eh

Summary of corrections to the electronic energy:
(perhaps to be used in another calculation)
Total thermal correction                  0.00870751 Eh       5.46 kcal/mol
Non-thermal (ZPE) correction              0.17560651 Eh     110.19 kcal/mol
-----------------------------------------------------------------------
Total correction                          0.18431402 Eh     115.66 kcal/mol

--------
ENTHALPY
--------

The enthalpy is H = U + kB*T
                kB is Boltzmann's constant
Total free energy                 ...   -364.15841468 Eh
Thermal Enthalpy correction       ...      0.00094421 Eh       0.59 kcal/mol
-----------------------------------------------------------------------
Total Enthalpy                    ...   -364.15747047 Eh

-------
ENTROPY
-------

The entropy contributions are T*S = T*(S(el)+S(vib)+S(rot)+S(trans)
     S(el)   - electronic entropy
     S(vib)  - vibrational entropy
     S(rot)  - rotational entropy
     S(trans)- translational entropy
The entropies will be listed as mutliplied by the temperature to get
units of energy

Electronic entropy                ...      0.00000000 Eh      0.00 kcal/mol
Vibrational entropy               ...      0.01016788 Eh      6.38 kcal/mol
Rotational entropy                ...      0.01228107 Eh      7.71 kcal/mol
Translational entropy             ...      0.01895570 Eh     11.89 kcal/mol
-----------------------------------------------------------------------
Final entropy term                ...      0.04140465 Eh     25.98 kcal/mol

CAUTION: The rotational entropy is not quite correctly treated here
         because it includes a symmetry number that is not yet correctly
         implemented in ORCA!
For a nonlinear molecule the correct rotational entropy is:
    S(rot) = R*(ln(qrot/sn)+1.5)
    R    = 8.31441 J/mol/K = 1.987191683e-3 kcal/mol/K
    qrot = 298262.8612736
    sn is the rotational symmetry number. We have assumed 3 here
       if it is different for your molecule then you should correct
       the printed rotational entropy by manually evaluating the equation
       as given above

For convenience we print out the resulting values for sn=1 - 12:
 sn= 1  qrot/sn=  298262.8613 T*S(rot)=     8.36 kcal/mol T*S(tot)=    26.63 kcal/mol
 sn= 2  qrot/sn=  149131.4306 T*S(rot)=     7.95 kcal/mol T*S(tot)=    26.22 kcal/mol
 sn= 3  qrot/sn=   99420.9538 T*S(rot)=     7.71 kcal/mol T*S(tot)=    25.98 kcal/mol
 sn= 4  qrot/sn=   74565.7153 T*S(rot)=     7.54 kcal/mol T*S(tot)=    25.81 kcal/mol
 sn= 5  qrot/sn=   59652.5723 T*S(rot)=     7.40 kcal/mol T*S(tot)=    25.68 kcal/mol
 sn= 6  qrot/sn=   49710.4769 T*S(rot)=     7.30 kcal/mol T*S(tot)=    25.57 kcal/mol
 sn= 7  qrot/sn=   42608.9802 T*S(rot)=     7.20 kcal/mol T*S(tot)=    25.48 kcal/mol
 sn= 8  qrot/sn=   37282.8577 T*S(rot)=     7.13 kcal/mol T*S(tot)=    25.40 kcal/mol
 sn= 9  qrot/sn=   33140.3179 T*S(rot)=     7.06 kcal/mol T*S(tot)=    25.33 kcal/mol
 sn=10  qrot/sn=   29826.2861 T*S(rot)=     6.99 kcal/mol T*S(tot)=    25.27 kcal/mol
 sn=11  qrot/sn=   27114.8056 T*S(rot)=     6.94 kcal/mol T*S(tot)=    25.21 kcal/mol
 sn=12  qrot/sn=   24855.2384 T*S(rot)=     6.89 kcal/mol T*S(tot)=    25.16 kcal/mol

-------------------
GIBBS FREE ENTHALPY
-------------------

The Gibbs free enthalpy is G = H - T*S

Total enthalpy                    ...   -364.15747047 Eh
Total entropy correction          ...     -0.04140465 Eh    -25.98 kcal/mol
-----------------------------------------------------------------------
Final Gibbs free enthalpy         ...   -364.19887512 Eh

For completeness - the Gibbs free enthalpy minus the electronic energy
G-E(el)                           ...      0.14385358 Eh     90.27 kcal/mol

                             ****ORCA TERMINATED NORMALLY****
TOTAL RUN TIME: 0 days 0 hours 39 minutes 59 seconds 599 msec
