                         Program Version 3.0.3 - RELEASE   -
|  1> ! NORI PBE0 def2-TZVP UseSym TightOPT Freq TightSCF Grid3 FinalGrid5 XYZFile
|  2> % pal
|  3>     nprocs 8
|  4> end
|  5> %method
|  6>     SymThresh 5.0e-2
|  7> end
|  8> % geom
|  9>     MaxIter 10
| 10> end
| 11> % maxcore 2000
| 12> % output
| 13>     printlevel mini
| 14>     print[ P_Basis ] 0
| 15>     print[ P_SCFInfo ] 1
| 16>     print[ P_SCFIterInfo ] 1
| 17>     print[ P_OrbEn ] 0
| 18>     print[ P_Cartesian ] 0
| 19> end
| 20> % elprop
| 21>     Dipole false
| 22> end
| 23> *xyz 1 1
| 24>  N        0.7188990247    -0.3919570063    -0.3456946316
| 25>  C        2.2013028700    -0.1722671552    -0.1922050706
| 26>  C        2.5140304102     0.3134435838     1.2036449648
| 27>  C        4.0196805300     0.4316109808     1.4097557187
| 28>  O        4.3171370890     0.8343567600     2.7372919366
| 29>  C        4.2369193803    -0.1350953015     3.6630952482
| 30>  O        3.8802400322    -1.2544898808     3.4451507004
| 31>  H        0.4771531308    -0.7270467369    -1.2807875477
| 32>  H        0.2000453187     0.4734940993    -0.1794133446
| 33>  H        0.3847763874    -1.0825014004     0.3311541284
| 34>  H        2.4900432773     0.5416576281    -0.9651136731
| 35>  H        2.6752060062    -1.1312593097    -0.4079121045
| 36>  H        2.1290548520    -0.3995201594     1.9388265447
| 37>  H        2.0482700937     1.2874064315     1.3871849121
| 38>  H        4.4492949015     1.2030591545     0.7695512895
| 39>  H        4.5071094550    -0.5247464161     1.2020330622
| 40>  H        4.5431572410     0.2629247284     4.6380278665
| 41> *
| 42>
| 43>                          ****END OF INPUT****
 Total Charge           Charge          ....    1
 Multiplicity           Mult            ....    1
 Number of Electrons    NEL             ....   56
FINAL SINGLE POINT ENERGY      -363.130185728466
FINAL SINGLE POINT ENERGY      -363.130187077752
FINAL SINGLE POINT ENERGY      -363.130189013703
FINAL SINGLE POINT ENERGY      -363.130186810928
FINAL SINGLE POINT ENERGY      -363.130189925251

CARTESIAN COORDINATES (ANGSTROEM)
---------------------------------
  N     -1.118113   -0.494556   -2.878606
  C     -1.084877    0.444560   -1.700530
  C     -0.640878   -0.293180   -0.459198
  C     -0.494479    0.668615    0.714894
  O      0.003997   -0.004147    1.860323
  C      1.325835   -0.241003    1.856202
  O      2.058724    0.014877    0.947738
  H     -1.412213   -0.021833   -3.736051
  H     -1.762641   -1.270578   -2.710773
  H     -0.192649   -0.897983   -3.044053
  H     -2.088218    0.863998   -1.610865
  H     -0.393657    1.245161   -1.968539
  H      0.333680   -0.758117   -0.635564
  H     -1.357754   -1.078287   -0.197202
  H     -1.459114    1.078611    1.015796
  H      0.180671    1.486874    0.451178
  H      1.618226   -0.704723    2.806194

FINAL SINGLE POINT ENERGY      -363.130190185880
                    ***********************HURRAY********************
 Multiplicity           Mult            ....    1
 Number of Electrons    NEL             ....   56
 Basis Dimension        Dim             ....  277
FINAL SINGLE POINT ENERGY      -363.130190429647

VIBRATIONAL FREQUENCIES
-----------------------

   0:         0.00 cm**-1
   1:         0.00 cm**-1
   2:         0.00 cm**-1
   3:         0.00 cm**-1
   4:         0.00 cm**-1
   5:         0.00 cm**-1
   6:        55.60 cm**-1
   7:        68.94 cm**-1
   8:       146.87 cm**-1
   9:       158.94 cm**-1
  10:       227.76 cm**-1
  11:       283.19 cm**-1
  12:       337.60 cm**-1
  13:       388.68 cm**-1
  14:       479.23 cm**-1
  15:       752.79 cm**-1
  16:       781.71 cm**-1
  17:       855.08 cm**-1
  18:       912.26 cm**-1
  19:       973.60 cm**-1
  20:       977.05 cm**-1
  21:      1010.93 cm**-1
  22:      1052.93 cm**-1
  23:      1066.45 cm**-1
  24:      1159.97 cm**-1
  25:      1183.66 cm**-1
  26:      1213.96 cm**-1
  27:      1302.90 cm**-1
  28:      1323.29 cm**-1
  29:      1346.02 cm**-1
  30:      1360.30 cm**-1
  31:      1390.90 cm**-1
  32:      1416.80 cm**-1
  33:      1432.74 cm**-1
  34:      1482.57 cm**-1
  35:      1487.43 cm**-1
  36:      1505.68 cm**-1
  37:      1514.18 cm**-1
  38:      1657.77 cm**-1
  39:      1664.12 cm**-1
  40:      1826.66 cm**-1
  41:      3052.07 cm**-1
  42:      3077.07 cm**-1
  43:      3096.43 cm**-1
  44:      3096.82 cm**-1
  45:      3103.08 cm**-1
  46:      3141.90 cm**-1
  47:      3157.01 cm**-1
  48:      3418.19 cm**-1
  49:      3497.73 cm**-1
  50:      3504.96 cm**-1

IR SPECTRUM
-----------

 Mode    freq (cm**-1)   T**2         TX         TY         TZ
-------------------------------------------------------------------
   6:        55.60    9.456059  (  2.631064   0.097782   1.588710)
   7:        68.94    5.003036  (  1.996850   0.900347   0.452770)
   8:       146.87    2.199539  (  0.157068   0.584262   1.354070)
   9:       158.94    9.459635  (  0.443076  -2.722713   1.360202)
  10:       227.76    0.067657  (  0.259043   0.021571   0.009366)
  11:       283.19    5.313793  ( -1.107702   1.981258   0.401752)
  12:       337.60   25.263886  ( -3.409599  -1.821742  -3.212442)
  13:       388.68    8.631975  (  0.883190  -0.329618  -2.782679)
  14:       479.23   13.423740  ( -0.418893   3.511890   0.956501)
  15:       752.79    8.482474  ( -2.428555  -0.667397   1.462592)
  16:       781.71    6.882889  ( -1.512284   0.337873  -2.117009)
  17:       855.08    6.607981  (  1.764372   0.915192  -1.630152)
  18:       912.26   26.695261  ( -0.315453   0.763958  -5.100208)
  19:       973.60   11.966715  ( -3.345923  -0.040689  -0.877417)
  20:       977.05    0.724035  (  0.151478  -0.768080   0.333380)
  21:      1010.93   12.743951  (  2.962309   1.004380  -1.720435)
  22:      1052.93    0.423175  (  0.041336  -0.045994  -0.647573)
  23:      1066.45   21.239715  ( -0.256925  -1.745517  -4.257567)
  24:      1159.97   17.729149  (  1.277010  -3.388739   2.148218)
  25:      1183.66  135.407825  ( -9.229758   3.600252  -6.103899)
  26:      1213.96  220.421758  (-13.398736   3.160259  -5.559531)
  27:      1302.90    5.243499  (  1.904626  -0.757949   1.020496)
  28:      1323.29   13.956363  (  2.660882   0.060708   2.621523)
  29:      1346.02    0.864700  ( -0.628477   0.667650   0.154790)
  30:      1360.30   10.126396  (  3.168570   0.108313   0.273544)
  31:      1390.90    2.370470  (  0.071440   0.100811  -1.534667)
  32:      1416.80   14.541108  (  0.725615   0.728483   3.672043)
  33:      1432.74   12.107879  ( -0.951218  -1.671994  -2.899569)
  34:      1482.57    7.178251  ( -0.293734   2.487782  -0.950218)
  35:      1487.43    0.208953  (  0.107764   0.430541   0.109425)
  36:      1505.68   21.502938  ( -1.121723   1.466723  -4.253633)
  37:      1514.18  140.269454  ( -0.110488   7.910530   8.813669)
  38:      1657.77   53.365370  ( -6.938493  -1.653652   1.577376)
  39:      1664.12   37.097733  ( -1.901103   4.264407  -3.911314)
  40:      1826.66  242.423296  (-13.878575  -0.954479   6.992670)
  41:      3052.07    7.930041  ( -1.503493  -1.458022  -1.882478)
  42:      3077.07   15.049900  (  1.355118  -3.488586   1.021431)
  43:      3096.43   18.511623  (  0.921674  -2.143009   3.615197)
  44:      3096.82    3.791744  (  0.071374   0.332751   1.917271)
  45:      3103.08    0.810785  ( -0.291931  -0.296235   0.798628)
  46:      3141.90    3.354749  (  1.719127  -0.019894  -0.631629)
  47:      3157.01    0.886677  (  0.885207   0.048737  -0.317349)
  48:      3418.19   47.058353  ( -0.322616  -3.597760  -5.831843)
  49:      3497.73   96.826975  ( -9.799709  -0.744780   0.487830)
  50:      3504.96  102.936977  (  1.105972  -7.692748   6.521919)

--------------------------
THERMOCHEMISTRY AT 298.15K
--------------------------

Temperature         ... 298.15 K
Pressure            ... 1.00 atm
Total Mass          ... 104.13 AMU

Throughout the following assumptions are being made:
  (1) The electronic state is orbitally nondegenerate
  (2) There are no thermally accessible electronically excited states
  (3) Hindered rotations indicated by low frequency modes) are not
      treated as such but are treated as vibrations and this may
      case some error
  (4) All equations used are the standard statistical mechanics
      equations for an ideal gas
  (5) All vibrations are strinctly harmonic

------------
INNER ENERGY
------------

The inner energy is: U= E(el) + E(ZPE) + E(vib) + E(rot) + E(trans)
    E(el)   - is the total energy from the electronic structure calculation
              = E(kin-el) + E(nuc-el) + E(el-el) + E(nuc-nuc)
    E(ZPE)  - the the zero temperature vibrational energy from the frequency calculation
    E(vib)  - the the finite temperature correction to E(ZPE) due to population
              of excietd vibrational states
    E(rot)  - is the rotational thermal energy
    E(trans)- is the translational thermal energy

Summary of contributions to the inner energy U:
Electronic energy                ...   -363.13019043 Eh
Zero point energy                ...      0.15250923 Eh      95.70 kcal/mol
Thermal vibrational correction   ...      0.00539901 Eh       3.39 kcal/mol
Thermal rotational correction    ...      0.00141627 Eh       0.89 kcal/mol
Thermal translational correction ...      0.00141627 Eh       0.89 kcal/mol
-----------------------------------------------------------------------
Total thermal energy                   -362.96944965 Eh

Summary of corrections to the electronic energy:
(perhaps to be used in another calculation)
Total thermal correction                  0.00823155 Eh       5.17 kcal/mol
Non-thermal (ZPE) correction              0.15250923 Eh      95.70 kcal/mol
-----------------------------------------------------------------------
Total correction                          0.16074078 Eh     100.87 kcal/mol

--------
ENTHALPY
--------

The enthalpy is H = U + kB*T
                kB is Boltzmann's constant
Total free energy                 ...   -362.96944965 Eh
Thermal Enthalpy correction       ...      0.00094421 Eh       0.59 kcal/mol
-----------------------------------------------------------------------
Total Enthalpy                    ...   -362.96850544 Eh

-------
ENTROPY
-------

The entropy contributions are T*S = T*(S(el)+S(vib)+S(rot)+S(trans)
     S(el)   - electronic entropy
     S(vib)  - vibrational entropy
     S(rot)  - rotational entropy
     S(trans)- translational entropy
The entropies will be listed as mutliplied by the temperature to get
units of energy

Electronic entropy                ...      0.00000000 Eh      0.00 kcal/mol
Vibrational entropy               ...      0.01044057 Eh      6.55 kcal/mol
Rotational entropy                ...      0.01232294 Eh      7.73 kcal/mol
Translational entropy             ...      0.01892854 Eh     11.88 kcal/mol
-----------------------------------------------------------------------
Final entropy term                ...      0.04169206 Eh     26.16 kcal/mol

CAUTION: The rotational entropy is not quite correctly treated here
         because it includes a symmetry number that is not yet correctly
         implemented in ORCA!
For a nonlinear molecule the correct rotational entropy is:
    S(rot) = R*(ln(qrot/sn)+1.5)
    R    = 8.31441 J/mol/K = 1.987191683e-3 kcal/mol/K
    qrot = 311786.3903705
    sn is the rotational symmetry number. We have assumed 3 here
       if it is different for your molecule then you should correct
       the printed rotational entropy by manually evaluating the equation
       as given above

For convenience we print out the resulting values for sn=1 - 12:
 sn= 1  qrot/sn=  311786.3904 T*S(rot)=     8.38 kcal/mol T*S(tot)=    26.81 kcal/mol
 sn= 2  qrot/sn=  155893.1952 T*S(rot)=     7.97 kcal/mol T*S(tot)=    26.40 kcal/mol
 sn= 3  qrot/sn=  103928.7968 T*S(rot)=     7.73 kcal/mol T*S(tot)=    26.16 kcal/mol
 sn= 4  qrot/sn=   77946.5976 T*S(rot)=     7.56 kcal/mol T*S(tot)=    25.99 kcal/mol
 sn= 5  qrot/sn=   62357.2781 T*S(rot)=     7.43 kcal/mol T*S(tot)=    25.86 kcal/mol
 sn= 6  qrot/sn=   51964.3984 T*S(rot)=     7.32 kcal/mol T*S(tot)=    25.75 kcal/mol
 sn= 7  qrot/sn=   44540.9129 T*S(rot)=     7.23 kcal/mol T*S(tot)=    25.66 kcal/mol
 sn= 8  qrot/sn=   38973.2988 T*S(rot)=     7.15 kcal/mol T*S(tot)=    25.58 kcal/mol
 sn= 9  qrot/sn=   34642.9323 T*S(rot)=     7.08 kcal/mol T*S(tot)=    25.51 kcal/mol
 sn=10  qrot/sn=   31178.6390 T*S(rot)=     7.02 kcal/mol T*S(tot)=    25.45 kcal/mol
 sn=11  qrot/sn=   28344.2173 T*S(rot)=     6.96 kcal/mol T*S(tot)=    25.39 kcal/mol
 sn=12  qrot/sn=   25982.1992 T*S(rot)=     6.91 kcal/mol T*S(tot)=    25.34 kcal/mol

-------------------
GIBBS FREE ENTHALPY
-------------------

The Gibbs free enthalpy is G = H - T*S

Total enthalpy                    ...   -362.96850544 Eh
Total entropy correction          ...     -0.04169206 Eh    -26.16 kcal/mol
-----------------------------------------------------------------------
Final Gibbs free enthalpy         ...   -363.01019750 Eh

For completeness - the Gibbs free enthalpy minus the electronic energy
G-E(el)                           ...      0.11999293 Eh     75.30 kcal/mol

                             ****ORCA TERMINATED NORMALLY****
TOTAL RUN TIME: 0 days 0 hours 36 minutes 4 seconds 224 msec
