                         Program Version 3.0.3 - RELEASE   -
|  1> ! NORI PBE0 def2-TZVP UseSym TightOPT Freq TightSCF Grid3 FinalGrid5 XYZFile
|  2> % pal
|  3>     nprocs 8
|  4> end
|  5> %method
|  6>     SymThresh 5.0e-2
|  7> end
|  8> % geom
|  9>     MaxIter 10
| 10> end
| 11> % maxcore 2000
| 12> % output
| 13>     printlevel mini
| 14>     print[ P_Basis ] 0
| 15>     print[ P_SCFInfo ] 1
| 16>     print[ P_SCFIterInfo ] 1
| 17>     print[ P_OrbEn ] 0
| 18>     print[ P_Cartesian ] 0
| 19> end
| 20> % elprop
| 21>     Dipole false
| 22> end
| 23> *xyz 1 1
| 24>  N        0.7875315277     0.2298032606    -0.0229156068
| 25>  C        2.2847808677     0.0737345043    -0.0976878108
| 26>  C        2.9425139398     0.6186395684     1.1506441667
| 27>  C        4.4522260901     0.5409618013     1.0349035895
| 28>  O        4.8135589726     1.3222200675    -0.0833143293
| 29>  N        6.1815995396     1.1887648069    -0.2967611530
| 30>  C        6.5914543584     1.9577370846    -1.2093836909
| 31>  H        0.3260785618    -0.1275179858    -0.8620234039
| 32>  H        0.5307744441     1.2143386619     0.0789405539
| 33>  H        0.4030119488    -0.2700132110     0.7819478548
| 34>  H        2.6127667788     0.6117431625    -0.9864939981
| 35>  H        2.4792300497    -0.9904504961    -0.2376954512
| 36>  H        2.6317793071     0.0523497355     2.0341422391
| 37>  H        2.6536572445     1.6647000813     1.3017480659
| 38>  H        4.9158065238     0.9303308122     1.9459491897
| 39>  H        4.7903458203    -0.4923419135     0.8976254930
| 40>  H        7.6483430108     1.9042204856    -1.4411378385
| 41>  H        5.9417610144     2.6466495738    -1.7466578699
| 42> *
| 43>
| 44>                          ****END OF INPUT****
 Total Charge           Charge          ....    1
 Multiplicity           Mult            ....    1
 Number of Electrons    NEL             ....   56
FINAL SINGLE POINT ENERGY      -343.191435458191

CARTESIAN COORDINATES (ANGSTROEM)
---------------------------------
  N      1.103630    0.000476   -3.005777
  C      0.302044   -0.314262   -1.768588
  C     -0.198636    0.956186   -1.118085
  C     -0.928906    0.642634    0.173226
  O      0.000453    0.000150    1.018806
  N     -0.657401   -0.408276    2.174382
  C      0.142066   -0.884489    3.026601
  H      1.455858   -0.847015   -3.455481
  H      1.907580    0.589161   -2.776176
  H      0.540792    0.507761   -3.692252
  H      0.959786   -0.869812   -1.100811
  H     -0.513094   -0.966918   -2.084493
  H     -0.883325    1.491547   -1.783526
  H      0.643316    1.620971   -0.894315
  H     -1.292374    1.568151    0.629145
  H     -1.791400   -0.009778   -0.003233
  H     -0.298287   -1.233416    3.952832
  H      1.217093   -0.949035    2.866658

FINAL SINGLE POINT ENERGY      -343.191435886022
                    ***********************HURRAY********************
 Multiplicity           Mult            ....    1
 Number of Electrons    NEL             ....   56
 Basis Dimension        Dim             ....  283
FINAL SINGLE POINT ENERGY      -343.191436005028

VIBRATIONAL FREQUENCIES
-----------------------

   0:         0.00 cm**-1
   1:         0.00 cm**-1
   2:         0.00 cm**-1
   3:         0.00 cm**-1
   4:         0.00 cm**-1
   5:         0.00 cm**-1
   6:        51.06 cm**-1
   7:        68.46 cm**-1
   8:        87.30 cm**-1
   9:       151.44 cm**-1
  10:       212.96 cm**-1
  11:       237.25 cm**-1
  12:       270.77 cm**-1
  13:       336.22 cm**-1
  14:       532.77 cm**-1
  15:       556.34 cm**-1
  16:       765.66 cm**-1
  17:       806.63 cm**-1
  18:       858.05 cm**-1
  19:       874.77 cm**-1
  20:       947.10 cm**-1
  21:       968.79 cm**-1
  22:       991.07 cm**-1
  23:      1014.24 cm**-1
  24:      1022.23 cm**-1
  25:      1120.98 cm**-1
  26:      1154.87 cm**-1
  27:      1175.78 cm**-1
  28:      1220.49 cm**-1
  29:      1260.81 cm**-1
  30:      1315.08 cm**-1
  31:      1345.58 cm**-1
  32:      1353.33 cm**-1
  33:      1399.63 cm**-1
  34:      1413.65 cm**-1
  35:      1431.47 cm**-1
  36:      1474.35 cm**-1
  37:      1502.62 cm**-1
  38:      1509.90 cm**-1
  39:      1516.51 cm**-1
  40:      1659.22 cm**-1
  41:      1664.51 cm**-1
  42:      1732.66 cm**-1
  43:      3044.13 cm**-1
  44:      3047.77 cm**-1
  45:      3094.94 cm**-1
  46:      3100.80 cm**-1
  47:      3106.20 cm**-1
  48:      3121.16 cm**-1
  49:      3169.50 cm**-1
  50:      3252.69 cm**-1
  51:      3421.48 cm**-1
  52:      3501.89 cm**-1
  53:      3508.30 cm**-1

IR SPECTRUM
-----------

 Mode    freq (cm**-1)   T**2         TX         TY         TZ
-------------------------------------------------------------------
   6:        51.06    1.826340  (  0.195637   0.027818  -1.336897)
   7:        68.46    6.992224  (  1.928812  -0.098703   1.806147)
   8:        87.30    8.788431  (  0.149375  -2.913515   0.526830)
   9:       151.44   12.374317  (  0.780197   2.128048   2.690171)
  10:       212.96    2.592651  ( -0.549131   0.844596   1.256091)
  11:       237.25    3.166662  (  0.595250  -0.781252  -1.483909)
  12:       270.77    5.771594  (  0.923261   2.079006  -0.772604)
  13:       336.22   18.517655  ( -2.511638   0.707794   3.421747)
  14:       532.77    1.161404  (  0.767050  -0.250970   0.714180)
  15:       556.34    2.642404  (  0.943020  -1.280369   0.337301)
  16:       765.66   11.967030  (  1.651128  -0.391172   3.014596)
  17:       806.63    1.508525  (  0.125126  -0.950622  -0.767585)
  18:       858.05    6.808848  ( -0.149203  -1.422280  -2.182591)
  19:       874.77   31.825935  ( -2.940402  -0.700533   4.763321)
  20:       947.10   79.151567  ( -1.391523   3.907056  -7.870842)
  21:       968.79   10.426691  ( -1.215766   0.725738   2.902052)
  22:       991.07   13.332550  ( -0.135733   3.566005  -0.773135)
  23:      1014.24   31.845891  ( -0.774499  -5.049184  -2.398288)
  24:      1022.23   22.731490  (  1.206758  -1.209465   4.451114)
  25:      1120.98  168.212080  ( -2.407478   4.337904 -11.983268)
  26:      1154.87   47.664279  (  4.778743  -3.478970   3.567164)
  27:      1175.78   12.862287  (  0.161426   3.582476   0.045746)
  28:      1220.49    5.903052  ( -2.005972   0.984367  -0.954017)
  29:      1260.81    0.194151  (  0.361818  -0.033212   0.249270)
  30:      1315.08    3.089675  (  1.243143  -0.400682  -1.176318)
  31:      1345.58    6.915171  (  1.800619  -0.300826   1.892735)
  32:      1353.33    3.188251  (  1.258622   0.499921   1.163702)
  33:      1399.63   37.060268  ( -1.895832  -1.420876   5.607780)
  34:      1413.65    2.518545  ( -1.120283   0.358802   1.065257)
  35:      1431.47    9.680287  ( -2.448694   0.915673  -1.686928)
  36:      1474.35    0.864453  (  0.176783   0.727102  -0.551836)
  37:      1502.62   15.071501  (  1.443490  -3.285347  -1.481329)
  38:      1509.90  151.312876  ( -6.401142  -3.033119  10.056761)
  39:      1516.51    6.220313  (  1.152570   0.542978  -2.144078)
  40:      1659.22   51.202404  ( -6.083609  -0.094133  -3.766064)
  41:      1664.51   37.560615  ( -0.796060   5.870713   1.568959)
  42:      1732.66    8.600836  (  0.455516   1.076564  -2.689675)
  43:      3044.13   21.432447  (  2.407595  -1.794600   3.523541)
  44:      3047.77   12.150044  ( -3.434094  -0.588768  -0.101962)
  45:      3094.94   11.556714  (  1.240542  -3.101619   0.630660)
  46:      3100.80    6.492904  ( -1.843189  -1.300358  -1.185170)
  47:      3106.20    6.445748  (  1.041967   1.825631   1.423771)
  48:      3121.16    3.879969  (  1.932670  -0.116847  -0.362080)
  49:      3169.50    0.561785  (  0.573957   0.195211  -0.440740)
  50:      3252.69    1.469337  ( -0.741996   0.457453  -0.842328)
  51:      3421.48   47.485752  ( -3.510856  -0.904454   5.860171)
  52:      3501.89   91.835144  ( -7.873412  -0.850276  -5.396440)
  53:      3508.30  100.536047  ( -2.112334   9.641521   1.764982)

--------------------------
THERMOCHEMISTRY AT 298.15K
--------------------------

Temperature         ... 298.15 K
Pressure            ... 1.00 atm
Total Mass          ... 103.14 AMU

Throughout the following assumptions are being made:
  (1) The electronic state is orbitally nondegenerate
  (2) There are no thermally accessible electronically excited states
  (3) Hindered rotations indicated by low frequency modes) are not
      treated as such but are treated as vibrations and this may
      case some error
  (4) All equations used are the standard statistical mechanics
      equations for an ideal gas
  (5) All vibrations are strinctly harmonic

------------
INNER ENERGY
------------

The inner energy is: U= E(el) + E(ZPE) + E(vib) + E(rot) + E(trans)
    E(el)   - is the total energy from the electronic structure calculation
              = E(kin-el) + E(nuc-el) + E(el-el) + E(nuc-nuc)
    E(ZPE)  - the the zero temperature vibrational energy from the frequency calculation
    E(vib)  - the the finite temperature correction to E(ZPE) due to population
              of excietd vibrational states
    E(rot)  - is the rotational thermal energy
    E(trans)- is the translational thermal energy

Summary of contributions to the inner energy U:
Electronic energy                ...   -343.19143601 Eh
Zero point energy                ...      0.16260065 Eh     102.03 kcal/mol
Thermal vibrational correction   ...      0.00594436 Eh       3.73 kcal/mol
Thermal rotational correction    ...      0.00141627 Eh       0.89 kcal/mol
Thermal translational correction ...      0.00141627 Eh       0.89 kcal/mol
-----------------------------------------------------------------------
Total thermal energy                   -343.02005845 Eh

Summary of corrections to the electronic energy:
(perhaps to be used in another calculation)
Total thermal correction                  0.00877690 Eh       5.51 kcal/mol
Non-thermal (ZPE) correction              0.16260065 Eh     102.03 kcal/mol
-----------------------------------------------------------------------
Total correction                          0.17137755 Eh     107.54 kcal/mol

--------
ENTHALPY
--------

The enthalpy is H = U + kB*T
                kB is Boltzmann's constant
Total free energy                 ...   -343.02005845 Eh
Thermal Enthalpy correction       ...      0.00094421 Eh       0.59 kcal/mol
-----------------------------------------------------------------------
Total Enthalpy                    ...   -343.01911424 Eh

-------
ENTROPY
-------

The entropy contributions are T*S = T*(S(el)+S(vib)+S(rot)+S(trans)
     S(el)   - electronic entropy
     S(vib)  - vibrational entropy
     S(rot)  - rotational entropy
     S(trans)- translational entropy
The entropies will be listed as mutliplied by the temperature to get
units of energy

Electronic entropy                ...      0.00000000 Eh      0.00 kcal/mol
Vibrational entropy               ...      0.01177380 Eh      7.39 kcal/mol
Rotational entropy                ...      0.01234096 Eh      7.74 kcal/mol
Translational entropy             ...      0.01891510 Eh     11.87 kcal/mol
-----------------------------------------------------------------------
Final entropy term                ...      0.04302986 Eh     27.00 kcal/mol

CAUTION: The rotational entropy is not quite correctly treated here
         because it includes a symmetry number that is not yet correctly
         implemented in ORCA!
For a nonlinear molecule the correct rotational entropy is:
    S(rot) = R*(ln(qrot/sn)+1.5)
    R    = 8.31441 J/mol/K = 1.987191683e-3 kcal/mol/K
    qrot = 317795.0417021
    sn is the rotational symmetry number. We have assumed 3 here
       if it is different for your molecule then you should correct
       the printed rotational entropy by manually evaluating the equation
       as given above

For convenience we print out the resulting values for sn=1 - 12:
 sn= 1  qrot/sn=  317795.0417 T*S(rot)=     8.39 kcal/mol T*S(tot)=    27.65 kcal/mol
 sn= 2  qrot/sn=  158897.5209 T*S(rot)=     7.98 kcal/mol T*S(tot)=    27.24 kcal/mol
 sn= 3  qrot/sn=  105931.6806 T*S(rot)=     7.74 kcal/mol T*S(tot)=    27.00 kcal/mol
 sn= 4  qrot/sn=   79448.7604 T*S(rot)=     7.57 kcal/mol T*S(tot)=    26.83 kcal/mol
 sn= 5  qrot/sn=   63559.0083 T*S(rot)=     7.44 kcal/mol T*S(tot)=    26.70 kcal/mol
 sn= 6  qrot/sn=   52965.8403 T*S(rot)=     7.33 kcal/mol T*S(tot)=    26.59 kcal/mol
 sn= 7  qrot/sn=   45399.2917 T*S(rot)=     7.24 kcal/mol T*S(tot)=    26.50 kcal/mol
 sn= 8  qrot/sn=   39724.3802 T*S(rot)=     7.16 kcal/mol T*S(tot)=    26.42 kcal/mol
 sn= 9  qrot/sn=   35310.5602 T*S(rot)=     7.09 kcal/mol T*S(tot)=    26.35 kcal/mol
 sn=10  qrot/sn=   31779.5042 T*S(rot)=     7.03 kcal/mol T*S(tot)=    26.29 kcal/mol
 sn=11  qrot/sn=   28890.4583 T*S(rot)=     6.97 kcal/mol T*S(tot)=    26.23 kcal/mol
 sn=12  qrot/sn=   26482.9201 T*S(rot)=     6.92 kcal/mol T*S(tot)=    26.18 kcal/mol

-------------------
GIBBS FREE ENTHALPY
-------------------

The Gibbs free enthalpy is G = H - T*S

Total enthalpy                    ...   -343.01911424 Eh
Total entropy correction          ...     -0.04302986 Eh    -27.00 kcal/mol
-----------------------------------------------------------------------
Final Gibbs free enthalpy         ...   -343.06214411 Eh

For completeness - the Gibbs free enthalpy minus the electronic energy
G-E(el)                           ...      0.12929190 Eh     81.13 kcal/mol

                             ****ORCA TERMINATED NORMALLY****
TOTAL RUN TIME: 0 days 0 hours 30 minutes 31 seconds 76 msec
