                         Program Version 3.0.3 - RELEASE   -
|  1> ! NORI PBE0 def2-TZVP UseSym TightOPT Freq TightSCF Grid3 FinalGrid5 XYZFile
|  2> % pal
|  3>     nprocs 8
|  4> end
|  5> %method
|  6>     SymThresh 5.0e-2
|  7> end
|  8> % geom
|  9>     MaxIter 10
| 10> end
| 11> % maxcore 2000
| 12> % output
| 13>     printlevel mini
| 14>     print[ P_Basis ] 0
| 15>     print[ P_SCFInfo ] 1
| 16>     print[ P_SCFIterInfo ] 1
| 17>     print[ P_OrbEn ] 0
| 18>     print[ P_Cartesian ] 0
| 19> end
| 20> % elprop
| 21>     Dipole false
| 22> end
| 23> *xyz 1 1
| 24>  N        1.1436411733     0.2257147233    -0.0980696048
| 25>  C        2.6408671605     0.0605113910     0.0413051701
| 26>  C        3.2769598558     0.9010627939    -1.0401165890
| 27>  N        2.5016364462     1.3764914459    -1.9164538175
| 28>  O        3.1120421366     2.0952217935    -2.8783794702
| 29>  C        3.0690684655     0.4193778486     1.3771067704
| 30>  C        3.4328694345     0.7250083501     2.4766795787
| 31>  H        0.9943473828     0.5893468491    -1.0625397360
| 32>  H        0.8047221902     0.9262502171     0.5638155455
| 33>  H        0.6367485621    -0.6444740062     0.0596385435
| 34>  H        2.8584811553    -0.9973049874    -0.1485526834
| 35>  H        4.3546847406     1.0433667736    -1.0301387578
| 36>  H        2.4054608141     2.3956110649    -3.4629596238
| 37>  H        3.7629004827     0.9947957427     3.4562146743
| 38> *
| 39>
| 40>                          ****END OF INPUT****
 Total Charge           Charge          ....    1
 Multiplicity           Mult            ....    1
 Number of Electrons    NEL             ....   52
FINAL SINGLE POINT ENERGY      -340.718798268784

CARTESIAN COORDINATES (ANGSTROEM)
---------------------------------
  N      1.494830    0.000330   -0.803570
  C      0.071985   -0.511941   -0.769302
  C     -0.408277   -0.375938    0.656026
  N      0.464270   -0.083809    1.521287
  O      0.000641   -0.000548    2.783178
  C     -0.747912    0.202804   -1.725007
  C     -1.435469    0.796880   -2.505390
  H      1.817458   -0.013799    0.186596
  H      1.511704    0.967656   -1.131560
  H      2.098428   -0.558810   -1.405314
  H      0.115035   -1.574621   -1.036022
  H     -1.458436   -0.550258    0.876169
  H      0.765267    0.233065    3.323563
  H     -2.053161    1.322290   -3.200932

FINAL SINGLE POINT ENERGY      -340.718798582885
                    ***********************HURRAY********************
 Multiplicity           Mult            ....    1
 Number of Electrons    NEL             ....   52
 Basis Dimension        Dim             ....  259
FINAL SINGLE POINT ENERGY      -340.718798715513

VIBRATIONAL FREQUENCIES
-----------------------

   0:         0.00 cm**-1
   1:         0.00 cm**-1
   2:         0.00 cm**-1
   3:         0.00 cm**-1
   4:         0.00 cm**-1
   5:         0.00 cm**-1
   6:        72.65 cm**-1
   7:       136.17 cm**-1
   8:       165.69 cm**-1
   9:       240.32 cm**-1
  10:       260.40 cm**-1
  11:       299.24 cm**-1
  12:       450.79 cm**-1
  13:       480.11 cm**-1
  14:       486.63 cm**-1
  15:       548.49 cm**-1
  16:       680.41 cm**-1
  17:       735.13 cm**-1
  18:       776.92 cm**-1
  19:       837.56 cm**-1
  20:       948.87 cm**-1
  21:       985.45 cm**-1
  22:      1072.83 cm**-1
  23:      1087.13 cm**-1
  24:      1142.75 cm**-1
  25:      1170.06 cm**-1
  26:      1277.97 cm**-1
  27:      1329.90 cm**-1
  28:      1366.46 cm**-1
  29:      1440.57 cm**-1
  30:      1472.56 cm**-1
  31:      1612.02 cm**-1
  32:      1656.94 cm**-1
  33:      1750.64 cm**-1
  34:      2256.72 cm**-1
  35:      3057.21 cm**-1
  36:      3161.51 cm**-1
  37:      3185.04 cm**-1
  38:      3450.21 cm**-1
  39:      3468.55 cm**-1
  40:      3535.49 cm**-1
  41:      3818.59 cm**-1

IR SPECTRUM
-----------

 Mode    freq (cm**-1)   T**2         TX         TY         TZ
-------------------------------------------------------------------
   6:        72.65    0.890091  (  0.103434   0.337417  -0.874953)
   7:       136.17    2.390209  ( -0.948562  -0.160576   1.210230)
   8:       165.69    8.775704  (  0.241524   2.382383  -1.744024)
   9:       240.32   16.814439  (  0.804797  -1.224891  -3.829671)
  10:       260.40   15.201764  ( -1.233294  -0.748635   3.622195)
  11:       299.24   12.543208  ( -0.619054   2.176195   2.724730)
  12:       450.79   14.094507  ( -1.403194   1.448949   3.166401)
  13:       480.11   77.844984  (  0.731388  -8.211220   3.144189)
  14:       486.63   77.265983  (  2.607331  -8.387921  -0.332541)
  15:       548.49   35.777348  (  5.554902   0.956248  -2.001501)
  16:       680.41    2.237236  ( -0.708297  -0.177365  -1.305409)
  17:       735.13   40.687945  ( -1.115480   4.433457   4.448383)
  18:       776.92   28.892331  (  3.923240   3.098023  -1.975543)
  19:       837.56    3.610591  (  1.881454  -0.261413  -0.048832)
  20:       948.87   11.112932  ( -0.132923   3.312346   0.351611)
  21:       985.45   14.755235  (  2.591291   1.255735  -2.542356)
  22:      1072.83   78.145120  (  3.621808  -0.783949   8.025774)
  23:      1087.13   51.519243  (  1.479407  -3.137798  -6.283695)
  24:      1142.75  112.556628  ( -1.927033   0.911086 -10.392935)
  25:      1170.06   18.185762  ( -2.413100  -2.177567  -2.760601)
  26:      1277.97   29.415332  (  2.285151   0.903091  -4.835064)
  27:      1329.90   15.392942  (  3.725186  -0.729974   0.991499)
  28:      1366.46   17.784661  ( -2.822036   3.028640  -0.805057)
  29:      1440.57  183.550044  ( -9.088104  -1.074850   9.990050)
  30:      1472.56  132.620917  ( 10.936669   2.955184   2.068110)
  31:      1612.02   30.403651  (  0.633869   5.449713  -0.549989)
  32:      1656.94   25.877486  ( -1.244144   2.251945   4.388432)
  33:      1750.64    4.098495  (  0.286496   0.048412   2.003515)
  34:      2256.72   38.983396  (  4.111609  -2.511714   3.971066)
  35:      3057.21    1.275023  (  0.422755   0.896048   0.541664)
  36:      3161.51  223.375042  ( -0.292604  -0.833134  14.919628)
  37:      3185.04    5.998957  (  2.245336   0.429680  -0.879091)
  38:      3450.21   97.229011  ( -5.954120   4.361953  -6.538412)
  39:      3468.55  107.851787  ( -4.708183  -4.691896   7.979405)
  40:      3535.49  115.218700  (  5.261348  -8.734511  -3.353391)
  41:      3818.59  199.880643  (  7.601088   2.667933  11.618358)

--------------------------
THERMOCHEMISTRY AT 298.15K
--------------------------

Temperature         ... 298.15 K
Pressure            ... 1.00 atm
Total Mass          ... 99.11 AMU

Throughout the following assumptions are being made:
  (1) The electronic state is orbitally nondegenerate
  (2) There are no thermally accessible electronically excited states
  (3) Hindered rotations indicated by low frequency modes) are not
      treated as such but are treated as vibrations and this may
      case some error
  (4) All equations used are the standard statistical mechanics
      equations for an ideal gas
  (5) All vibrations are strinctly harmonic

------------
INNER ENERGY
------------

The inner energy is: U= E(el) + E(ZPE) + E(vib) + E(rot) + E(trans)
    E(el)   - is the total energy from the electronic structure calculation
              = E(kin-el) + E(nuc-el) + E(el-el) + E(nuc-nuc)
    E(ZPE)  - the the zero temperature vibrational energy from the frequency calculation
    E(vib)  - the the finite temperature correction to E(ZPE) due to population
              of excietd vibrational states
    E(rot)  - is the rotational thermal energy
    E(trans)- is the translational thermal energy

Summary of contributions to the inner energy U:
Electronic energy                ...   -340.71879872 Eh
Zero point energy                ...      0.11486057 Eh      72.08 kcal/mol
Thermal vibrational correction   ...      0.00499476 Eh       3.13 kcal/mol
Thermal rotational correction    ...      0.00141627 Eh       0.89 kcal/mol
Thermal translational correction ...      0.00141627 Eh       0.89 kcal/mol
-----------------------------------------------------------------------
Total thermal energy                   -340.59611085 Eh

Summary of corrections to the electronic energy:
(perhaps to be used in another calculation)
Total thermal correction                  0.00782730 Eh       4.91 kcal/mol
Non-thermal (ZPE) correction              0.11486057 Eh      72.08 kcal/mol
-----------------------------------------------------------------------
Total correction                          0.12268787 Eh      76.99 kcal/mol

--------
ENTHALPY
--------

The enthalpy is H = U + kB*T
                kB is Boltzmann's constant
Total free energy                 ...   -340.59611085 Eh
Thermal Enthalpy correction       ...      0.00094421 Eh       0.59 kcal/mol
-----------------------------------------------------------------------
Total Enthalpy                    ...   -340.59516664 Eh

-------
ENTROPY
-------

The entropy contributions are T*S = T*(S(el)+S(vib)+S(rot)+S(trans)
     S(el)   - electronic entropy
     S(vib)  - vibrational entropy
     S(rot)  - rotational entropy
     S(trans)- translational entropy
The entropies will be listed as mutliplied by the temperature to get
units of energy

Electronic entropy                ...      0.00000000 Eh      0.00 kcal/mol
Vibrational entropy               ...      0.00884589 Eh      5.55 kcal/mol
Rotational entropy                ...      0.01218545 Eh      7.65 kcal/mol
Translational entropy             ...      0.01885862 Eh     11.83 kcal/mol
-----------------------------------------------------------------------
Final entropy term                ...      0.03988997 Eh     25.03 kcal/mol

CAUTION: The rotational entropy is not quite correctly treated here
         because it includes a symmetry number that is not yet correctly
         implemented in ORCA!
For a nonlinear molecule the correct rotational entropy is:
    S(rot) = R*(ln(qrot/sn)+1.5)
    R    = 8.31441 J/mol/K = 1.987191683e-3 kcal/mol/K
    qrot = 269536.2628013
    sn is the rotational symmetry number. We have assumed 3 here
       if it is different for your molecule then you should correct
       the printed rotational entropy by manually evaluating the equation
       as given above

For convenience we print out the resulting values for sn=1 - 12:
 sn= 1  qrot/sn=  269536.2628 T*S(rot)=     8.30 kcal/mol T*S(tot)=    25.68 kcal/mol
 sn= 2  qrot/sn=  134768.1314 T*S(rot)=     7.89 kcal/mol T*S(tot)=    25.27 kcal/mol
 sn= 3  qrot/sn=   89845.4209 T*S(rot)=     7.65 kcal/mol T*S(tot)=    25.03 kcal/mol
 sn= 4  qrot/sn=   67384.0657 T*S(rot)=     7.48 kcal/mol T*S(tot)=    24.86 kcal/mol
 sn= 5  qrot/sn=   53907.2526 T*S(rot)=     7.34 kcal/mol T*S(tot)=    24.73 kcal/mol
 sn= 6  qrot/sn=   44922.7105 T*S(rot)=     7.24 kcal/mol T*S(tot)=    24.62 kcal/mol
 sn= 7  qrot/sn=   38505.1804 T*S(rot)=     7.14 kcal/mol T*S(tot)=    24.53 kcal/mol
 sn= 8  qrot/sn=   33692.0329 T*S(rot)=     7.07 kcal/mol T*S(tot)=    24.45 kcal/mol
 sn= 9  qrot/sn=   29948.4736 T*S(rot)=     7.00 kcal/mol T*S(tot)=    24.38 kcal/mol
 sn=10  qrot/sn=   26953.6263 T*S(rot)=     6.93 kcal/mol T*S(tot)=    24.32 kcal/mol
 sn=11  qrot/sn=   24503.2966 T*S(rot)=     6.88 kcal/mol T*S(tot)=    24.26 kcal/mol
 sn=12  qrot/sn=   22461.3552 T*S(rot)=     6.83 kcal/mol T*S(tot)=    24.21 kcal/mol

-------------------
GIBBS FREE ENTHALPY
-------------------

The Gibbs free enthalpy is G = H - T*S

Total enthalpy                    ...   -340.59516664 Eh
Total entropy correction          ...     -0.03988997 Eh    -25.03 kcal/mol
-----------------------------------------------------------------------
Final Gibbs free enthalpy         ...   -340.63505661 Eh

For completeness - the Gibbs free enthalpy minus the electronic energy
G-E(el)                           ...      0.08374211 Eh     52.55 kcal/mol

                             ****ORCA TERMINATED NORMALLY****
TOTAL RUN TIME: 0 days 0 hours 24 minutes 22 seconds 216 msec
