                         Program Version 3.0.3 - RELEASE   -
|  1> ! NORI PBE0 def2-TZVP UseSym TightOPT Freq TightSCF Grid3 FinalGrid5 XYZFile
|  2> % pal
|  3>     nprocs 8
|  4> end
|  5> %method
|  6>     SymThresh 5.0e-2
|  7> end
|  8> % geom
|  9>     MaxIter 10
| 10> end
| 11> % maxcore 2000
| 12> % output
| 13>     printlevel mini
| 14>     print[ P_Basis ] 0
| 15>     print[ P_SCFInfo ] 1
| 16>     print[ P_SCFIterInfo ] 1
| 17>     print[ P_OrbEn ] 0
| 18>     print[ P_Cartesian ] 0
| 19> end
| 20> % elprop
| 21>     Dipole false
| 22> end
| 23> *xyz 1 1
| 24>  N        1.8848161100     0.0478937800    -1.0391658730
| 25>  C        1.9865802421     0.9627376962     0.1560170132
| 26>  C        3.1953241031     0.5877143292     0.9499873661
| 27>  N        2.9789095403     0.2839729858     2.1767947983
| 28>  O        4.0923476584    -0.0111183487     2.8556842534
| 29>  C        4.4446002081     0.5873147133     0.2779641877
| 30>  C        5.4587433570     0.5749858687    -0.3695355155
| 31>  H        1.1589099524     0.3459797322    -1.6935028144
| 32>  H        1.6837420553    -0.9116381436    -0.7484210172
| 33>  H        2.7877064640     0.0396500408    -1.5286027358
| 34>  H        1.0827687530     0.8557688668     0.7533630184
| 35>  H        2.0586513684     1.9764218356    -0.2423375329
| 36>  H        3.7900521103    -0.2024831171     3.7529920157
| 37>  H        6.3839080775     0.5718897610    -0.9033071640
| 38> *
| 39>
| 40>                          ****END OF INPUT****
 Total Charge           Charge          ....    1
 Multiplicity           Mult            ....    1
 Number of Electrons    NEL             ....   52
FINAL SINGLE POINT ENERGY      -340.725520649266

CARTESIAN COORDINATES (ANGSTROEM)
---------------------------------
  N      1.110428   -0.000182   -2.062841
  C      0.588919   -1.022039   -1.083148
  C      0.034534   -0.310635    0.108032
  N      0.550880   -0.635465    1.235958
  O      0.000878    0.000772    2.275263
  C     -0.982169    0.652055   -0.119916
  C     -1.812615    1.477250   -0.397724
  H      1.373495   -0.420192   -2.956241
  H      1.924809    0.487595   -1.682549
  H      0.380140    0.702307   -2.230558
  H      1.409021   -1.677298   -0.795214
  H     -0.178655   -1.588145   -1.613998
  H      0.462622   -0.347150    3.049173
  H     -2.568338    2.204578   -0.599730

FINAL SINGLE POINT ENERGY      -340.725521114190
                    ***********************HURRAY********************
 Multiplicity           Mult            ....    1
 Number of Electrons    NEL             ....   52
 Basis Dimension        Dim             ....  259
FINAL SINGLE POINT ENERGY      -340.725521179709

VIBRATIONAL FREQUENCIES
-----------------------

   0:         0.00 cm**-1
   1:         0.00 cm**-1
   2:         0.00 cm**-1
   3:         0.00 cm**-1
   4:         0.00 cm**-1
   5:         0.00 cm**-1
   6:        65.51 cm**-1
   7:       129.52 cm**-1
   8:       180.12 cm**-1
   9:       223.65 cm**-1
  10:       279.27 cm**-1
  11:       327.09 cm**-1
  12:       407.44 cm**-1
  13:       465.13 cm**-1
  14:       543.72 cm**-1
  15:       649.47 cm**-1
  16:       706.00 cm**-1
  17:       723.92 cm**-1
  18:       750.65 cm**-1
  19:       784.96 cm**-1
  20:       867.23 cm**-1
  21:       923.97 cm**-1
  22:      1066.98 cm**-1
  23:      1094.59 cm**-1
  24:      1162.24 cm**-1
  25:      1282.65 cm**-1
  26:      1326.00 cm**-1
  27:      1394.93 cm**-1
  28:      1433.06 cm**-1
  29:      1478.26 cm**-1
  30:      1500.59 cm**-1
  31:      1646.42 cm**-1
  32:      1661.86 cm**-1
  33:      1695.96 cm**-1
  34:      2219.40 cm**-1
  35:      3101.31 cm**-1
  36:      3179.93 cm**-1
  37:      3382.06 cm**-1
  38:      3448.90 cm**-1
  39:      3470.59 cm**-1
  40:      3511.86 cm**-1
  41:      3803.67 cm**-1

IR SPECTRUM
-----------

 Mode    freq (cm**-1)   T**2         TX         TY         TZ
-------------------------------------------------------------------
   6:        65.51   10.666550  ( -3.044972   0.505078  -1.067515)
   7:       129.52    3.245180  ( -0.336949   1.338279   1.157866)
   8:       180.12   15.899181  ( -0.135062   3.211184   2.359923)
   9:       223.65    2.353200  ( -1.498281  -0.228339   0.237095)
  10:       279.27   10.575813  (  2.997857   1.238166   0.235818)
  11:       327.09    6.994384  ( -0.917986  -0.667467   2.388760)
  12:       407.44   27.397436  ( -2.329259   0.639171   4.643646)
  13:       465.13    0.077039  (  0.053590   0.069043  -0.263439)
  14:       543.72  101.954061  (  7.369156   6.527103  -2.246449)
  15:       649.47   34.029456  ( -1.593720  -4.991852  -2.563382)
  16:       706.00    4.980703  (  1.609589  -0.461712  -1.475381)
  17:       723.92   43.269570  (  4.349964   4.933203  -0.104330)
  18:       750.65   29.517133  (  0.064124  -0.503306   5.409224)
  19:       784.96   14.933764  (  2.534628  -1.093210  -2.704499)
  20:       867.23    7.486635  (  2.533954   0.607424   0.834715)
  21:       923.97   45.168055  ( -2.542246   0.322469   6.212975)
  22:      1066.98   48.081541  (  4.637282  -4.996440  -1.269939)
  23:      1094.59   44.756718  ( -0.831088  -2.410372  -6.185153)
  24:      1162.24  172.271765  (  1.396225  -0.817628  13.025122)
  25:      1282.65   34.938828  ( -3.489164   2.953470  -3.747209)
  26:      1326.00   17.689058  ( -1.697251  -0.355827  -3.831682)
  27:      1394.93    5.259211  ( -1.292818   1.487002   1.173310)
  28:      1433.06  101.685805  (  3.066586  -2.825475  -9.181424)
  29:      1478.26   17.393807  ( -0.824643   3.780257   1.556738)
  30:      1500.59  157.068956  (  5.222109   6.738299  -9.186613)
  31:      1646.42   38.036034  ( -5.450422  -0.259020  -2.874342)
  32:      1661.86   38.212843  (  2.586325  -3.919122  -4.020479)
  33:      1695.96   11.151688  ( -0.342146   0.213748  -3.314956)
  34:      2219.40   29.521973  (  4.096149  -3.534662  -0.499699)
  35:      3101.31    0.964795  ( -0.095585  -0.265424   0.940856)
  36:      3179.93    1.966190  ( -1.120506   0.552268  -0.636912)
  37:      3382.06   37.485497  ( -2.536565   5.250172  -1.867359)
  38:      3448.90  108.228624  (  7.348149  -6.921422   2.515403)
  39:      3470.59  123.415151  (-10.523697   1.759055   3.093975)
  40:      3511.86  107.572987  ( -1.668354  -5.957971  -8.324191)
  41:      3803.67  250.443350  (  5.093072  -3.522511  14.563512)

--------------------------
THERMOCHEMISTRY AT 298.15K
--------------------------

Temperature         ... 298.15 K
Pressure            ... 1.00 atm
Total Mass          ... 99.11 AMU

Throughout the following assumptions are being made:
  (1) The electronic state is orbitally nondegenerate
  (2) There are no thermally accessible electronically excited states
  (3) Hindered rotations indicated by low frequency modes) are not
      treated as such but are treated as vibrations and this may
      case some error
  (4) All equations used are the standard statistical mechanics
      equations for an ideal gas
  (5) All vibrations are strinctly harmonic

------------
INNER ENERGY
------------

The inner energy is: U= E(el) + E(ZPE) + E(vib) + E(rot) + E(trans)
    E(el)   - is the total energy from the electronic structure calculation
              = E(kin-el) + E(nuc-el) + E(el-el) + E(nuc-nuc)
    E(ZPE)  - the the zero temperature vibrational energy from the frequency calculation
    E(vib)  - the the finite temperature correction to E(ZPE) due to population
              of excietd vibrational states
    E(rot)  - is the rotational thermal energy
    E(trans)- is the translational thermal energy

Summary of contributions to the inner energy U:
Electronic energy                ...   -340.72552118 Eh
Zero point energy                ...      0.11593350 Eh      72.75 kcal/mol
Thermal vibrational correction   ...      0.00494387 Eh       3.10 kcal/mol
Thermal rotational correction    ...      0.00141627 Eh       0.89 kcal/mol
Thermal translational correction ...      0.00141627 Eh       0.89 kcal/mol
-----------------------------------------------------------------------
Total thermal energy                   -340.60181127 Eh

Summary of corrections to the electronic energy:
(perhaps to be used in another calculation)
Total thermal correction                  0.00777642 Eh       4.88 kcal/mol
Non-thermal (ZPE) correction              0.11593350 Eh      72.75 kcal/mol
-----------------------------------------------------------------------
Total correction                          0.12370991 Eh      77.63 kcal/mol

--------
ENTHALPY
--------

The enthalpy is H = U + kB*T
                kB is Boltzmann's constant
Total free energy                 ...   -340.60181127 Eh
Thermal Enthalpy correction       ...      0.00094421 Eh       0.59 kcal/mol
-----------------------------------------------------------------------
Total Enthalpy                    ...   -340.60086706 Eh

-------
ENTROPY
-------

The entropy contributions are T*S = T*(S(el)+S(vib)+S(rot)+S(trans)
     S(el)   - electronic entropy
     S(vib)  - vibrational entropy
     S(rot)  - rotational entropy
     S(trans)- translational entropy
The entropies will be listed as mutliplied by the temperature to get
units of energy

Electronic entropy                ...      0.00000000 Eh      0.00 kcal/mol
Vibrational entropy               ...      0.00882409 Eh      5.54 kcal/mol
Rotational entropy                ...      0.01216110 Eh      7.63 kcal/mol
Translational entropy             ...      0.01885862 Eh     11.83 kcal/mol
-----------------------------------------------------------------------
Final entropy term                ...      0.03984381 Eh     25.00 kcal/mol

CAUTION: The rotational entropy is not quite correctly treated here
         because it includes a symmetry number that is not yet correctly
         implemented in ORCA!
For a nonlinear molecule the correct rotational entropy is:
    S(rot) = R*(ln(qrot/sn)+1.5)
    R    = 8.31441 J/mol/K = 1.987191683e-3 kcal/mol/K
    qrot = 262672.3579951
    sn is the rotational symmetry number. We have assumed 3 here
       if it is different for your molecule then you should correct
       the printed rotational entropy by manually evaluating the equation
       as given above

For convenience we print out the resulting values for sn=1 - 12:
 sn= 1  qrot/sn=  262672.3580 T*S(rot)=     8.28 kcal/mol T*S(tot)=    25.65 kcal/mol
 sn= 2  qrot/sn=  131336.1790 T*S(rot)=     7.87 kcal/mol T*S(tot)=    25.24 kcal/mol
 sn= 3  qrot/sn=   87557.4527 T*S(rot)=     7.63 kcal/mol T*S(tot)=    25.00 kcal/mol
 sn= 4  qrot/sn=   65668.0895 T*S(rot)=     7.46 kcal/mol T*S(tot)=    24.83 kcal/mol
 sn= 5  qrot/sn=   52534.4716 T*S(rot)=     7.33 kcal/mol T*S(tot)=    24.70 kcal/mol
 sn= 6  qrot/sn=   43778.7263 T*S(rot)=     7.22 kcal/mol T*S(tot)=    24.59 kcal/mol
 sn= 7  qrot/sn=   37524.6226 T*S(rot)=     7.13 kcal/mol T*S(tot)=    24.50 kcal/mol
 sn= 8  qrot/sn=   32834.0447 T*S(rot)=     7.05 kcal/mol T*S(tot)=    24.42 kcal/mol
 sn= 9  qrot/sn=   29185.8176 T*S(rot)=     6.98 kcal/mol T*S(tot)=    24.35 kcal/mol
 sn=10  qrot/sn=   26267.2358 T*S(rot)=     6.92 kcal/mol T*S(tot)=    24.29 kcal/mol
 sn=11  qrot/sn=   23879.3053 T*S(rot)=     6.86 kcal/mol T*S(tot)=    24.23 kcal/mol
 sn=12  qrot/sn=   21889.3632 T*S(rot)=     6.81 kcal/mol T*S(tot)=    24.18 kcal/mol

-------------------
GIBBS FREE ENTHALPY
-------------------

The Gibbs free enthalpy is G = H - T*S

Total enthalpy                    ...   -340.60086706 Eh
Total entropy correction          ...     -0.03984381 Eh    -25.00 kcal/mol
-----------------------------------------------------------------------
Final Gibbs free enthalpy         ...   -340.64071087 Eh

For completeness - the Gibbs free enthalpy minus the electronic energy
G-E(el)                           ...      0.08481031 Eh     53.22 kcal/mol

                             ****ORCA TERMINATED NORMALLY****
TOTAL RUN TIME: 0 days 0 hours 26 minutes 8 seconds 598 msec
