                         Program Version 3.0.3 - RELEASE   -
|  1> ! NORI PBE0 def2-TZVP UseSym TightOPT Freq TightSCF Grid3 FinalGrid5 XYZFile
|  2> % pal
|  3>     nprocs 8
|  4> end
|  5> %method
|  6>     SymThresh 5.0e-2
|  7> end
|  8> % geom
|  9>     MaxIter 10
| 10> end
| 11> % maxcore 2000
| 12> % output
| 13>     printlevel mini
| 14>     print[ P_Basis ] 0
| 15>     print[ P_SCFInfo ] 1
| 16>     print[ P_SCFIterInfo ] 1
| 17>     print[ P_OrbEn ] 0
| 18>     print[ P_Cartesian ] 0
| 19> end
| 20> % elprop
| 21>     Dipole false
| 22> end
| 23> *xyz 1 1
| 24>  N        3.1622181366     0.1283814834    -1.2987136473
| 25>  C        2.1752769527     0.1434816196    -0.1683765011
| 26>  C        2.7468993038     1.0396904489     0.9084758790
| 27>  O        4.0899657871     0.6477032420     1.0370365556
| 28>  C        4.7604973249     1.2457409455     2.1224327072
| 29>  C        6.2149862514     1.4686300216     1.9682048173
| 30>  C        5.2715839380     2.6408197039     1.9809674678
| 31>  H        3.0220658682    -0.6547937934    -1.9366330266
| 32>  H        4.0904882931     0.0614841791    -0.8518820412
| 33>  H        3.1360550934     0.9937135455    -1.8404934410
| 34>  H        2.0981023713    -0.8848383210     0.1838402433
| 35>  H        1.2088233778     0.4797267955    -0.5399820001
| 36>  H        2.1809104828     0.8868513259     1.8339429288
| 37>  H        2.6699819868     2.1022395523     0.6383278419
| 38>  H        4.3735458493     0.9174408063     3.0827819287
| 39>  H        6.8487039680     1.2899918186     2.8267733072
| 40>  H        6.6585175675     1.2047695538     1.0163242988
| 41>  H        5.1077743875     3.1443908351     1.0356434554
| 42>  H        5.2425830597     3.2874962370     2.8484592263
| 43> *
| 44>
| 45>                          ****END OF INPUT****
 Total Charge           Charge          ....    1
 Multiplicity           Mult            ....    1
 Number of Electrons    NEL             ....   56
FINAL SINGLE POINT ENERGY      -327.190172212766
FINAL SINGLE POINT ENERGY      -327.190173289400

CARTESIAN COORDINATES (ANGSTROEM)
---------------------------------
  N      2.479949    0.000780   -0.247949
  C      1.861350   -1.334153    0.048205
  C      0.375872   -1.203293   -0.209473
  O     -0.000728   -0.001580    0.413021
  C     -1.392029    0.221017    0.433873
  C     -1.844167    1.629883    0.408104
  C     -2.060872    0.748569   -0.791993
  H      3.406934    0.107884    0.163045
  H      1.831594    0.698282    0.150438
  H      2.550822    0.175310   -1.251513
  H      2.055624   -1.533942    1.101714
  H      2.339249   -2.095656   -0.566028
  H     -0.135791   -2.070503    0.222571
  H      0.148862   -1.179716   -1.284025
  H     -1.918927   -0.493051    1.060007
  H     -2.690774    1.901671    1.024207
  H     -1.081555    2.394162    0.325335
  H     -1.441445    0.945400   -1.658701
  H     -3.060475    0.402341   -1.020186

FINAL SINGLE POINT ENERGY      -327.190173898575
                    ***********************HURRAY********************
 Multiplicity           Mult            ....    1
 Number of Electrons    NEL             ....   56
 Basis Dimension        Dim             ....  289
FINAL SINGLE POINT ENERGY      -327.190174174218

VIBRATIONAL FREQUENCIES
-----------------------

   0:         0.00 cm**-1
   1:         0.00 cm**-1
   2:         0.00 cm**-1
   3:         0.00 cm**-1
   4:         0.00 cm**-1
   5:         0.00 cm**-1
   6:        50.17 cm**-1
   7:        90.84 cm**-1
   8:       146.31 cm**-1
   9:       219.95 cm**-1
  10:       242.62 cm**-1
  11:       304.76 cm**-1
  12:       387.28 cm**-1
  13:       456.66 cm**-1
  14:       528.39 cm**-1
  15:       752.56 cm**-1
  16:       796.61 cm**-1
  17:       835.15 cm**-1
  18:       871.18 cm**-1
  19:       890.85 cm**-1
  20:       951.23 cm**-1
  21:       981.71 cm**-1
  22:      1002.65 cm**-1
  23:      1027.36 cm**-1
  24:      1056.85 cm**-1
  25:      1081.84 cm**-1
  26:      1088.52 cm**-1
  27:      1129.70 cm**-1
  28:      1158.13 cm**-1
  29:      1183.36 cm**-1
  30:      1191.79 cm**-1
  31:      1198.82 cm**-1
  32:      1259.79 cm**-1
  33:      1278.61 cm**-1
  34:      1343.68 cm**-1
  35:      1371.22 cm**-1
  36:      1401.97 cm**-1
  37:      1428.94 cm**-1
  38:      1450.38 cm**-1
  39:      1478.80 cm**-1
  40:      1489.86 cm**-1
  41:      1505.51 cm**-1
  42:      1513.70 cm**-1
  43:      1640.45 cm**-1
  44:      1668.22 cm**-1
  45:      3021.14 cm**-1
  46:      3077.46 cm**-1
  47:      3115.87 cm**-1
  48:      3157.40 cm**-1
  49:      3159.68 cm**-1
  50:      3165.90 cm**-1
  51:      3180.72 cm**-1
  52:      3243.20 cm**-1
  53:      3257.21 cm**-1
  54:      3317.71 cm**-1
  55:      3476.94 cm**-1
  56:      3532.28 cm**-1

IR SPECTRUM
-----------

 Mode    freq (cm**-1)   T**2         TX         TY         TZ
-------------------------------------------------------------------
   6:        50.17    7.760920  ( -1.199139   0.999533  -2.307362)
   7:        90.84    7.126276  (  2.053212  -1.699450   0.149885)
   8:       146.31   14.027836  (  2.894167  -1.018615  -2.148035)
   9:       219.95    5.993994  (  1.613243   0.550200  -1.757475)
  10:       242.62    8.295850  ( -2.831980  -0.515087   0.102085)
  11:       304.76   25.331093  (  4.932148   0.421728  -0.909479)
  12:       387.28   12.930564  ( -2.691293   0.740205  -2.267069)
  13:       456.66    3.598797  ( -1.479394  -0.758750  -0.913504)
  14:       528.39    7.213639  ( -2.295899  -1.391551   0.077947)
  15:       752.56    6.970424  (  2.609861  -0.398465   0.016669)
  16:       796.61   17.866254  ( -4.195957   0.180419   0.477129)
  17:       835.15    9.469996  ( -0.817964   2.134844   2.059944)
  18:       871.18    6.695183  (  1.047993  -1.264172   1.999691)
  19:       890.85    7.796342  ( -2.547681  -0.522178   1.016363)
  20:       951.23    4.703359  ( -0.000973  -0.022144  -2.168610)
  21:       981.71   10.859017  ( -1.611237   2.702733  -0.978860)
  22:      1002.65   21.014646  ( -2.633614  -2.104898  -3.106143)
  23:      1027.36   31.569629  (  5.068079  -0.518568  -2.369661)
  24:      1056.85    7.429964  (  0.834452  -0.652147   2.511645)
  25:      1081.84   72.468198  (  6.621206  -5.350350   0.039766)
  26:      1088.52   19.327348  (  3.081012  -3.066825  -0.655204)
  27:      1129.70    7.864868  ( -2.366855   1.484116  -0.245489)
  28:      1158.13   31.409130  ( -0.712079  -5.006563  -2.415865)
  29:      1183.36    2.102088  (  1.250845   0.216524   0.700422)
  30:      1191.79    1.488524  ( -0.052844  -0.946632  -0.767866)
  31:      1198.82   95.585083  ( -8.961571   3.735227   1.150396)
  32:      1259.79   33.317162  (  5.170662  -2.563232   0.106090)
  33:      1278.61   12.438994  ( -2.909882   0.037255   1.992534)
  34:      1343.68   14.333123  ( -1.370027   2.254360   2.715513)
  35:      1371.22   39.814974  (  5.475832  -3.109528   0.401345)
  36:      1401.97    8.657450  ( -2.923920   0.116693  -0.307451)
  37:      1428.94    7.159662  (  2.018196   1.754494  -0.091107)
  38:      1450.38    8.094591  (  0.514702   1.697009   2.224822)
  39:      1478.80  129.508982  (  7.141256   8.802366  -1.014792)
  40:      1489.86   25.182571  ( -4.759640  -0.001630  -1.590094)
  41:      1505.51   36.411393  (  1.308403  -5.560525   1.944232)
  42:      1513.70   10.801541  (  2.085073   2.540042  -0.046866)
  43:      1640.45   36.122067  (  0.500546  -0.459634  -5.971621)
  44:      1668.22   38.029378  ( -5.945339   1.137334  -1.178470)
  45:      3021.14   19.329464  ( -0.699831   2.381314   3.628917)
  46:      3077.46    6.529841  (  0.085537   1.839518  -1.771637)
  47:      3115.87    1.053239  ( -0.687269   0.604105  -0.464713)
  48:      3157.40    7.049704  ( -1.431996   0.154309   2.230534)
  49:      3159.68    5.892556  (  1.682173   1.636301  -0.620782)
  50:      3165.90    1.037409  ( -0.656690  -0.443564  -0.639858)
  51:      3180.72    0.174874  ( -0.282925   0.293436   0.093392)
  52:      3243.20    0.314679  ( -0.493932   0.009490   0.265743)
  53:      3257.21    1.887137  ( -1.266282  -0.173167   0.503667)
  54:      3317.71  142.030388  (  9.537068  -6.420585  -3.138600)
  55:      3476.94  116.375525  ( -9.296521  -0.530566   5.446900)
  56:      3532.28  108.035063  (  7.296214  -0.119498   7.401759)

--------------------------
THERMOCHEMISTRY AT 298.15K
--------------------------

Temperature         ... 298.15 K
Pressure            ... 1.00 atm
Total Mass          ... 102.16 AMU

Throughout the following assumptions are being made:
  (1) The electronic state is orbitally nondegenerate
  (2) There are no thermally accessible electronically excited states
  (3) Hindered rotations indicated by low frequency modes) are not
      treated as such but are treated as vibrations and this may
      case some error
  (4) All equations used are the standard statistical mechanics
      equations for an ideal gas
  (5) All vibrations are strinctly harmonic

------------
INNER ENERGY
------------

The inner energy is: U= E(el) + E(ZPE) + E(vib) + E(rot) + E(trans)
    E(el)   - is the total energy from the electronic structure calculation
              = E(kin-el) + E(nuc-el) + E(el-el) + E(nuc-nuc)
    E(ZPE)  - the the zero temperature vibrational energy from the frequency calculation
    E(vib)  - the the finite temperature correction to E(ZPE) due to population
              of excietd vibrational states
    E(rot)  - is the rotational thermal energy
    E(trans)- is the translational thermal energy

Summary of contributions to the inner energy U:
Electronic energy                ...   -327.19017417 Eh
Zero point energy                ...      0.17578779 Eh     110.31 kcal/mol
Thermal vibrational correction   ...      0.00523804 Eh       3.29 kcal/mol
Thermal rotational correction    ...      0.00141627 Eh       0.89 kcal/mol
Thermal translational correction ...      0.00141627 Eh       0.89 kcal/mol
-----------------------------------------------------------------------
Total thermal energy                   -327.00631581 Eh

Summary of corrections to the electronic energy:
(perhaps to be used in another calculation)
Total thermal correction                  0.00807058 Eh       5.06 kcal/mol
Non-thermal (ZPE) correction              0.17578779 Eh     110.31 kcal/mol
-----------------------------------------------------------------------
Total correction                          0.18385837 Eh     115.37 kcal/mol

--------
ENTHALPY
--------

The enthalpy is H = U + kB*T
                kB is Boltzmann's constant
Total free energy                 ...   -327.00631581 Eh
Thermal Enthalpy correction       ...      0.00094421 Eh       0.59 kcal/mol
-----------------------------------------------------------------------
Total Enthalpy                    ...   -327.00537160 Eh

-------
ENTROPY
-------

The entropy contributions are T*S = T*(S(el)+S(vib)+S(rot)+S(trans)
     S(el)   - electronic entropy
     S(vib)  - vibrational entropy
     S(rot)  - rotational entropy
     S(trans)- translational entropy
The entropies will be listed as mutliplied by the temperature to get
units of energy

Electronic entropy                ...      0.00000000 Eh      0.00 kcal/mol
Vibrational entropy               ...      0.00982060 Eh      6.16 kcal/mol
Rotational entropy                ...      0.01217217 Eh      7.64 kcal/mol
Translational entropy             ...      0.01890147 Eh     11.86 kcal/mol
-----------------------------------------------------------------------
Final entropy term                ...      0.04089424 Eh     25.66 kcal/mol

CAUTION: The rotational entropy is not quite correctly treated here
         because it includes a symmetry number that is not yet correctly
         implemented in ORCA!
For a nonlinear molecule the correct rotational entropy is:
    S(rot) = R*(ln(qrot/sn)+1.5)
    R    = 8.31441 J/mol/K = 1.987191683e-3 kcal/mol/K
    qrot = 265769.5210058
    sn is the rotational symmetry number. We have assumed 3 here
       if it is different for your molecule then you should correct
       the printed rotational entropy by manually evaluating the equation
       as given above

For convenience we print out the resulting values for sn=1 - 12:
 sn= 1  qrot/sn=  265769.5210 T*S(rot)=     8.29 kcal/mol T*S(tot)=    26.31 kcal/mol
 sn= 2  qrot/sn=  132884.7605 T*S(rot)=     7.88 kcal/mol T*S(tot)=    25.90 kcal/mol
 sn= 3  qrot/sn=   88589.8403 T*S(rot)=     7.64 kcal/mol T*S(tot)=    25.66 kcal/mol
 sn= 4  qrot/sn=   66442.3803 T*S(rot)=     7.47 kcal/mol T*S(tot)=    25.49 kcal/mol
 sn= 5  qrot/sn=   53153.9042 T*S(rot)=     7.34 kcal/mol T*S(tot)=    25.36 kcal/mol
 sn= 6  qrot/sn=   44294.9202 T*S(rot)=     7.23 kcal/mol T*S(tot)=    25.25 kcal/mol
 sn= 7  qrot/sn=   37967.0744 T*S(rot)=     7.14 kcal/mol T*S(tot)=    25.16 kcal/mol
 sn= 8  qrot/sn=   33221.1901 T*S(rot)=     7.06 kcal/mol T*S(tot)=    25.08 kcal/mol
 sn= 9  qrot/sn=   29529.9468 T*S(rot)=     6.99 kcal/mol T*S(tot)=    25.01 kcal/mol
 sn=10  qrot/sn=   26576.9521 T*S(rot)=     6.92 kcal/mol T*S(tot)=    24.95 kcal/mol
 sn=11  qrot/sn=   24160.8655 T*S(rot)=     6.87 kcal/mol T*S(tot)=    24.89 kcal/mol
 sn=12  qrot/sn=   22147.4601 T*S(rot)=     6.82 kcal/mol T*S(tot)=    24.84 kcal/mol

-------------------
GIBBS FREE ENTHALPY
-------------------

The Gibbs free enthalpy is G = H - T*S

Total enthalpy                    ...   -327.00537160 Eh
Total entropy correction          ...     -0.04089424 Eh    -25.66 kcal/mol
-----------------------------------------------------------------------
Final Gibbs free enthalpy         ...   -327.04626583 Eh

For completeness - the Gibbs free enthalpy minus the electronic energy
G-E(el)                           ...      0.14390834 Eh     90.30 kcal/mol

                             ****ORCA TERMINATED NORMALLY****
TOTAL RUN TIME: 0 days 0 hours 38 minutes 8 seconds 298 msec
