                         Program Version 3.0.3 - RELEASE   -
|  1> ! NORI PBE0 def2-TZVP UseSym TightOPT Freq TightSCF Grid3 FinalGrid5 XYZFile
|  2> % pal
|  3>     nprocs 8
|  4> end
|  5> %method
|  6>     SymThresh 5.0e-2
|  7> end
|  8> % geom
|  9>     MaxIter 10
| 10> end
| 11> % maxcore 2000
| 12> % output
| 13>     printlevel mini
| 14>     print[ P_Basis ] 0
| 15>     print[ P_SCFInfo ] 1
| 16>     print[ P_SCFIterInfo ] 1
| 17>     print[ P_OrbEn ] 0
| 18>     print[ P_Cartesian ] 0
| 19> end
| 20> % elprop
| 21>     Dipole false
| 22> end
| 23> *xyz 1 1
| 24>  N        0.7689444057     0.7515032582     0.4172877907
| 25>  C        2.0732427845    -0.0142762154     0.2864033144
| 26>  C        3.1736490909     0.9946729055     0.5536597274
| 27>  O        2.8479656951     2.1276943341    -0.2201414641
| 28>  C        2.0725359001    -1.2049079466     1.1813226020
| 29>  C        1.3291003024    -2.4495407970     0.7700544061
| 30>  C        2.8181025411    -2.4354421376     0.7505695942
| 31>  H        0.8922316245     1.6532273250    -0.0622502682
| 32>  H        0.5534087315     0.9364155429     1.3983393810
| 33>  H       -0.0122440398     0.2339761363     0.0158121911
| 34>  H        2.1116451476    -0.3119168094    -0.7648664106
| 35>  H        3.2214802892     1.2351080659     1.6246395360
| 36>  H        4.1278434062     0.5460483684     0.2618381585
| 37>  H        3.5277531636     2.8035279772    -0.1481558776
| 38>  H        2.0987145343    -0.9747785053     2.2436106189
| 39>  H        0.8273594360    -3.0113810218     1.5468170401
| 40>  H        0.8171419154    -2.4498329609    -0.1861356434
| 41>  H        3.3126844216    -2.4161943444    -0.2131994935
| 42>  H        3.3509606503    -2.9827031751     1.5164147970
| 43> *
| 44>
| 45>                          ****END OF INPUT****
 Total Charge           Charge          ....    1
 Multiplicity           Mult            ....    1
 Number of Electrons    NEL             ....   56
FINAL SINGLE POINT ENERGY      -327.211232574286
FINAL SINGLE POINT ENERGY      -327.211233935227

CARTESIAN COORDINATES (ANGSTROEM)
---------------------------------
  N      1.597295    0.001157    0.530819
  C      0.119820   -0.169852    0.225077
  C     -0.619156    0.482675    1.377675
  O     -0.002445   -0.002386    2.549565
  C     -0.202592    0.372016   -1.124426
  C      0.118552   -0.438375   -2.353516
  C     -1.297448   -0.275823   -1.922434
  H      1.730187   -0.202799    1.530519
  H      1.895543    0.962580    0.357222
  H      2.173257   -0.615122   -0.041679
  H     -0.044256   -1.250093    0.264317
  H     -0.551097    1.576890    1.306954
  H     -1.674094    0.201141    1.310568
  H     -0.449942    0.321603    3.336238
  H     -0.120273    1.452278   -1.211711
  H      0.457057    0.097293   -3.230427
  H      0.571105   -1.415343   -2.222549
  H     -1.798208   -1.134768   -1.492207
  H     -1.941340    0.376663   -2.496293

FINAL SINGLE POINT ENERGY      -327.211234637316
                    ***********************HURRAY********************
 Multiplicity           Mult            ....    1
 Number of Electrons    NEL             ....   56
 Basis Dimension        Dim             ....  289
FINAL SINGLE POINT ENERGY      -327.211234842911

VIBRATIONAL FREQUENCIES
-----------------------

   0:         0.00 cm**-1
   1:         0.00 cm**-1
   2:         0.00 cm**-1
   3:         0.00 cm**-1
   4:         0.00 cm**-1
   5:         0.00 cm**-1
   6:        90.98 cm**-1
   7:       130.40 cm**-1
   8:       168.13 cm**-1
   9:       218.01 cm**-1
  10:       266.57 cm**-1
  11:       301.21 cm**-1
  12:       305.94 cm**-1
  13:       416.94 cm**-1
  14:       447.41 cm**-1
  15:       524.24 cm**-1
  16:       775.89 cm**-1
  17:       815.52 cm**-1
  18:       844.41 cm**-1
  19:       890.86 cm**-1
  20:       933.79 cm**-1
  21:       955.41 cm**-1
  22:       992.48 cm**-1
  23:       994.89 cm**-1
  24:      1062.78 cm**-1
  25:      1070.61 cm**-1
  26:      1102.96 cm**-1
  27:      1106.82 cm**-1
  28:      1132.14 cm**-1
  29:      1175.37 cm**-1
  30:      1199.86 cm**-1
  31:      1217.19 cm**-1
  32:      1238.91 cm**-1
  33:      1247.70 cm**-1
  34:      1271.36 cm**-1
  35:      1322.25 cm**-1
  36:      1388.99 cm**-1
  37:      1431.11 cm**-1
  38:      1456.47 cm**-1
  39:      1465.79 cm**-1
  40:      1471.71 cm**-1
  41:      1512.06 cm**-1
  42:      1513.23 cm**-1
  43:      1635.51 cm**-1
  44:      1662.77 cm**-1
  45:      3020.88 cm**-1
  46:      3090.57 cm**-1
  47:      3102.39 cm**-1
  48:      3150.45 cm**-1
  49:      3153.35 cm**-1
  50:      3163.70 cm**-1
  51:      3241.23 cm**-1
  52:      3256.85 cm**-1
  53:      3360.89 cm**-1
  54:      3480.96 cm**-1
  55:      3533.43 cm**-1
  56:      3868.37 cm**-1

IR SPECTRUM
-----------

 Mode    freq (cm**-1)   T**2         TX         TY         TZ
-------------------------------------------------------------------
   6:        90.98    3.028635  ( -0.919101  -1.338878  -0.625536)
   7:       130.40    7.937208  ( -1.608544  -2.144392   0.866820)
   8:       168.13    3.032819  ( -1.735446   0.101661  -0.103491)
   9:       218.01   12.972905  (  0.892014   3.121427   1.560100)
  10:       266.57   49.196315  ( -4.054497  -4.662105   3.319962)
  11:       301.21   74.529886  ( -3.643836  -7.353057  -2.680465)
  12:       305.94   34.352477  (  3.803187   3.197959  -3.108264)
  13:       416.94    6.433618  (  1.195301  -0.630486  -2.146476)
  14:       447.41    2.533406  ( -1.469288   0.595629  -0.140795)
  15:       524.24   12.276729  ( -2.379817   0.556369  -2.510708)
  16:       775.89    0.835363  (  0.251955  -0.004066   0.878558)
  17:       815.52    0.736199  (  0.714665   0.315864   0.354518)
  18:       844.41    3.889292  ( -1.929139  -0.060182   0.405085)
  19:       890.86   18.274450  (  1.316090  -1.888226  -3.602354)
  20:       933.79   14.731315  (  1.464698   1.610948   3.160826)
  21:       955.41   16.362046  ( -1.110208   0.924713   3.778146)
  22:       992.48   18.225344  (  0.079772  -3.059800   2.976005)
  23:       994.89   44.068447  ( -3.251898   0.811588  -5.730177)
  24:      1062.78   34.888096  (  4.729043  -0.158028   3.535431)
  25:      1070.61   13.021432  (  1.683854   1.475316   2.830108)
  26:      1102.96   13.477210  ( -1.243801  -0.459877   3.423256)
  27:      1106.82   64.125260  ( -2.482544   2.155885  -7.301671)
  28:      1132.14    1.596454  (  0.950322   0.365066  -0.748377)
  29:      1175.37    7.420300  ( -2.180760   1.129104   1.178859)
  30:      1199.86    2.064170  ( -0.042590  -0.695521   1.256426)
  31:      1217.19   44.085492  (  1.611472  -2.948546   5.726668)
  32:      1238.91   10.502431  (  1.580157   0.972321   2.657090)
  33:      1247.70    6.266792  ( -1.624370   1.771466   0.700088)
  34:      1271.36    1.664117  (  0.099191  -0.353244  -1.236728)
  35:      1322.25    5.919653  ( -0.919164   2.234750  -0.284044)
  36:      1388.99    3.025988  ( -0.505802   1.530194  -0.654721)
  37:      1431.11   63.680452  ( -7.547318   0.116756  -2.589365)
  38:      1456.47    9.006958  (  2.416242  -0.730210  -1.623430)
  39:      1465.79    7.338023  (  2.604542  -0.366612  -0.648058)
  40:      1471.71  149.461171  ( 12.082323  -0.097968   1.862538)
  41:      1512.06    2.395240  (  0.820542   1.029482  -0.813707)
  42:      1513.23    7.336614  ( -1.621497   1.147893   1.841114)
  43:      1635.51   40.818918  ( -0.227130  -6.262486   1.244426)
  44:      1662.77   35.097085  (  1.670779  -3.081324  -4.776089)
  45:      3020.88   21.213409  ( -0.839890   3.865918  -2.358532)
  46:      3090.57    3.206230  ( -1.410096  -0.176389  -1.089379)
  47:      3102.39    3.487338  ( -0.933263  -1.563243  -0.415487)
  48:      3150.45    3.728017  (  1.509754  -1.195764   0.137147)
  49:      3153.35    3.574471  (  0.685744   1.542620   0.851205)
  50:      3163.70    1.318479  (  0.547316   0.723305  -0.704098)
  51:      3241.23    0.303259  ( -0.347694   0.402073  -0.143893)
  52:      3256.85    0.113782  (  0.026612   0.286976  -0.175267)
  53:      3360.89   97.397997  ( -1.897752   0.744061  -9.656237)
  54:      3480.96   90.101256  ( -5.237330  -4.003921   6.829367)
  55:      3533.43   82.721314  ( -3.212245   7.514792   3.991327)
  56:      3868.37  134.608048  (  3.434583  -2.230532 -10.855248)

--------------------------
THERMOCHEMISTRY AT 298.15K
--------------------------

Temperature         ... 298.15 K
Pressure            ... 1.00 atm
Total Mass          ... 102.16 AMU

Throughout the following assumptions are being made:
  (1) The electronic state is orbitally nondegenerate
  (2) There are no thermally accessible electronically excited states
  (3) Hindered rotations indicated by low frequency modes) are not
      treated as such but are treated as vibrations and this may
      case some error
  (4) All equations used are the standard statistical mechanics
      equations for an ideal gas
  (5) All vibrations are strinctly harmonic

------------
INNER ENERGY
------------

The inner energy is: U= E(el) + E(ZPE) + E(vib) + E(rot) + E(trans)
    E(el)   - is the total energy from the electronic structure calculation
              = E(kin-el) + E(nuc-el) + E(el-el) + E(nuc-nuc)
    E(ZPE)  - the the zero temperature vibrational energy from the frequency calculation
    E(vib)  - the the finite temperature correction to E(ZPE) due to population
              of excietd vibrational states
    E(rot)  - is the rotational thermal energy
    E(trans)- is the translational thermal energy

Summary of contributions to the inner energy U:
Electronic energy                ...   -327.21123484 Eh
Zero point energy                ...      0.17583294 Eh     110.34 kcal/mol
Thermal vibrational correction   ...      0.00536137 Eh       3.36 kcal/mol
Thermal rotational correction    ...      0.00141627 Eh       0.89 kcal/mol
Thermal translational correction ...      0.00141627 Eh       0.89 kcal/mol
-----------------------------------------------------------------------
Total thermal energy                   -327.02720799 Eh

Summary of corrections to the electronic energy:
(perhaps to be used in another calculation)
Total thermal correction                  0.00819391 Eh       5.14 kcal/mol
Non-thermal (ZPE) correction              0.17583294 Eh     110.34 kcal/mol
-----------------------------------------------------------------------
Total correction                          0.18402686 Eh     115.48 kcal/mol

--------
ENTHALPY
--------

The enthalpy is H = U + kB*T
                kB is Boltzmann's constant
Total free energy                 ...   -327.02720799 Eh
Thermal Enthalpy correction       ...      0.00094421 Eh       0.59 kcal/mol
-----------------------------------------------------------------------
Total Enthalpy                    ...   -327.02626378 Eh

-------
ENTROPY
-------

The entropy contributions are T*S = T*(S(el)+S(vib)+S(rot)+S(trans)
     S(el)   - electronic entropy
     S(vib)  - vibrational entropy
     S(rot)  - rotational entropy
     S(trans)- translational entropy
The entropies will be listed as mutliplied by the temperature to get
units of energy

Electronic entropy                ...      0.00000000 Eh      0.00 kcal/mol
Vibrational entropy               ...      0.00930238 Eh      5.84 kcal/mol
Rotational entropy                ...      0.01216575 Eh      7.63 kcal/mol
Translational entropy             ...      0.01890147 Eh     11.86 kcal/mol
-----------------------------------------------------------------------
Final entropy term                ...      0.04036960 Eh     25.33 kcal/mol

CAUTION: The rotational entropy is not quite correctly treated here
         because it includes a symmetry number that is not yet correctly
         implemented in ORCA!
For a nonlinear molecule the correct rotational entropy is:
    S(rot) = R*(ln(qrot/sn)+1.5)
    R    = 8.31441 J/mol/K = 1.987191683e-3 kcal/mol/K
    qrot = 263969.6043938
    sn is the rotational symmetry number. We have assumed 3 here
       if it is different for your molecule then you should correct
       the printed rotational entropy by manually evaluating the equation
       as given above

For convenience we print out the resulting values for sn=1 - 12:
 sn= 1  qrot/sn=  263969.6044 T*S(rot)=     8.29 kcal/mol T*S(tot)=    25.98 kcal/mol
 sn= 2  qrot/sn=  131984.8022 T*S(rot)=     7.87 kcal/mol T*S(tot)=    25.57 kcal/mol
 sn= 3  qrot/sn=   87989.8681 T*S(rot)=     7.63 kcal/mol T*S(tot)=    25.33 kcal/mol
 sn= 4  qrot/sn=   65992.4011 T*S(rot)=     7.46 kcal/mol T*S(tot)=    25.16 kcal/mol
 sn= 5  qrot/sn=   52793.9209 T*S(rot)=     7.33 kcal/mol T*S(tot)=    25.03 kcal/mol
 sn= 6  qrot/sn=   43994.9341 T*S(rot)=     7.22 kcal/mol T*S(tot)=    24.92 kcal/mol
 sn= 7  qrot/sn=   37709.9435 T*S(rot)=     7.13 kcal/mol T*S(tot)=    24.83 kcal/mol
 sn= 8  qrot/sn=   32996.2005 T*S(rot)=     7.05 kcal/mol T*S(tot)=    24.75 kcal/mol
 sn= 9  qrot/sn=   29329.9560 T*S(rot)=     6.98 kcal/mol T*S(tot)=    24.68 kcal/mol
 sn=10  qrot/sn=   26396.9604 T*S(rot)=     6.92 kcal/mol T*S(tot)=    24.62 kcal/mol
 sn=11  qrot/sn=   23997.2368 T*S(rot)=     6.86 kcal/mol T*S(tot)=    24.56 kcal/mol
 sn=12  qrot/sn=   21997.4670 T*S(rot)=     6.81 kcal/mol T*S(tot)=    24.51 kcal/mol

-------------------
GIBBS FREE ENTHALPY
-------------------

The Gibbs free enthalpy is G = H - T*S

Total enthalpy                    ...   -327.02626378 Eh
Total entropy correction          ...     -0.04036960 Eh    -25.33 kcal/mol
-----------------------------------------------------------------------
Final Gibbs free enthalpy         ...   -327.06663337 Eh

For completeness - the Gibbs free enthalpy minus the electronic energy
G-E(el)                           ...      0.14460147 Eh     90.74 kcal/mol

                             ****ORCA TERMINATED NORMALLY****
TOTAL RUN TIME: 0 days 0 hours 42 minutes 55 seconds 718 msec
