                         Program Version 3.0.3 - RELEASE   -
|  1> ! NORI PBE0 def2-TZVP UseSym TightOPT Freq TightSCF Grid3 FinalGrid5 XYZFile
|  2> % pal
|  3>     nprocs 8
|  4> end
|  5> %method
|  6>     SymThresh 5.0e-2
|  7> end
|  8> % geom
|  9>     MaxIter 10
| 10> end
| 11> % maxcore 2000
| 12> % output
| 13>     printlevel mini
| 14>     print[ P_Basis ] 0
| 15>     print[ P_SCFInfo ] 1
| 16>     print[ P_SCFIterInfo ] 1
| 17>     print[ P_OrbEn ] 0
| 18>     print[ P_Cartesian ] 0
| 19> end
| 20> % elprop
| 21>     Dipole false
| 22> end
| 23> *xyz 1 1
| 24>  N        1.0471280488    -0.2058857870    -0.8831887021
| 25>  C        1.8542988834    -0.5360910959     0.3328601194
| 26>  C        2.9636514766    -1.4757045347    -0.1131966341
| 27>  O        2.2752678716    -2.4068218248    -0.9362356268
| 28>  C        4.1080002338    -0.8032324339    -0.8400569834
| 29>  C        4.1336231028     0.6377334540    -1.2848268225
| 30>  C        4.9956628388     0.1806966698    -0.1511912391
| 31>  H        0.1626555117     0.2507667049    -0.6652609847
| 32>  H        0.8829738077    -1.1007781984    -1.3669988494
| 33>  H        1.5866186200     0.3843174754    -1.5205936534
| 34>  H        1.1832714171    -1.0356825426     1.0306030225
| 35>  H        2.2233832369     0.3859809410     0.7783800084
| 36>  H        3.3460038995    -1.9783946581     0.7829095195
| 37>  H        2.8614148108    -3.1152633359    -1.2165345665
| 38>  H        4.6185910051    -1.4895661372    -1.5089198310
| 39>  H        3.3288878671     1.3194965497    -1.0238919446
| 40>  H        4.5979132219     0.8643693840    -2.2359221444
| 41>  H        4.7184704504     0.5058543721     0.8453759775
| 42>  H        6.0634336961     0.1017749975    -0.3080606653
| 43> *
| 44>
| 45>                          ****END OF INPUT****
 Total Charge           Charge          ....    1
 Multiplicity           Mult            ....    1
 Number of Electrons    NEL             ....   56
FINAL SINGLE POINT ENERGY      -327.204218380109
FINAL SINGLE POINT ENERGY      -327.204221236258
FINAL SINGLE POINT ENERGY      -327.204222001186

CARTESIAN COORDINATES (ANGSTROEM)
---------------------------------
  N      1.981315    0.000229    0.330066
  C      0.966213   -1.076528    0.104522
  C     -0.359914   -0.551763    0.631667
  O     -0.001200   -0.000697    1.890895
  C     -1.043427    0.459552   -0.262965
  C     -0.440881    1.086677   -1.496042
  C     -1.545697    0.085683   -1.618573
  H      2.939880   -0.319424    0.198614
  H      1.838615    0.328485    1.296178
  H      1.799798    0.795342   -0.286700
  H      1.292782   -1.943828    0.676911
  H      0.940221   -1.326868   -0.954840
  H     -1.019036   -1.416003    0.774739
  H     -0.780824    0.289812    2.372491
  H     -1.697262    1.117630    0.301347
  H      0.528525    0.770098   -1.871938
  H     -0.656774    2.129504   -1.688607
  H     -1.286628   -0.893793   -2.005631
  H     -2.528695    0.429138   -1.911493

FINAL SINGLE POINT ENERGY      -327.204222406959
                    ***********************HURRAY********************
 Multiplicity           Mult            ....    1
 Number of Electrons    NEL             ....   56
 Basis Dimension        Dim             ....  289
FINAL SINGLE POINT ENERGY      -327.204222802033

VIBRATIONAL FREQUENCIES
-----------------------

   0:         0.00 cm**-1
   1:         0.00 cm**-1
   2:         0.00 cm**-1
   3:         0.00 cm**-1
   4:         0.00 cm**-1
   5:         0.00 cm**-1
   6:        68.25 cm**-1
   7:       151.94 cm**-1
   8:       192.65 cm**-1
   9:       231.70 cm**-1
  10:       266.96 cm**-1
  11:       280.24 cm**-1
  12:       330.62 cm**-1
  13:       427.55 cm**-1
  14:       456.67 cm**-1
  15:       671.83 cm**-1
  16:       757.84 cm**-1
  17:       802.55 cm**-1
  18:       845.13 cm**-1
  19:       867.20 cm**-1
  20:       895.31 cm**-1
  21:       943.66 cm**-1
  22:       994.21 cm**-1
  23:      1005.86 cm**-1
  24:      1032.75 cm**-1
  25:      1060.04 cm**-1
  26:      1100.13 cm**-1
  27:      1111.18 cm**-1
  28:      1127.52 cm**-1
  29:      1145.85 cm**-1
  30:      1158.95 cm**-1
  31:      1198.90 cm**-1
  32:      1237.02 cm**-1
  33:      1252.25 cm**-1
  34:      1331.90 cm**-1
  35:      1357.81 cm**-1
  36:      1393.90 cm**-1
  37:      1408.29 cm**-1
  38:      1436.14 cm**-1
  39:      1461.89 cm**-1
  40:      1481.14 cm**-1
  41:      1492.04 cm**-1
  42:      1515.01 cm**-1
  43:      1617.96 cm**-1
  44:      1670.57 cm**-1
  45:      3052.62 cm**-1
  46:      3119.14 cm**-1
  47:      3126.87 cm**-1
  48:      3153.85 cm**-1
  49:      3164.45 cm**-1
  50:      3180.98 cm**-1
  51:      3227.41 cm**-1
  52:      3246.89 cm**-1
  53:      3348.36 cm**-1
  54:      3456.42 cm**-1
  55:      3534.34 cm**-1
  56:      3867.09 cm**-1

IR SPECTRUM
-----------

 Mode    freq (cm**-1)   T**2         TX         TY         TZ
-------------------------------------------------------------------
   6:        68.25    2.391467  (  0.462304  -1.369670   0.549315)
   7:       151.94   16.982063  ( -2.573164   0.563301  -3.169161)
   8:       192.65   26.214093  ( -0.865701   3.962709  -3.124355)
   9:       231.70   17.713801  ( -2.200770   3.314225  -1.373434)
  10:       266.96   58.506162  (  2.860638   4.905479  -5.124372)
  11:       280.24   59.609637  ( -0.853250   6.929869  -3.295227)
  12:       330.62   33.234327  ( -5.189776   0.146401   2.505818)
  13:       427.55    6.328099  (  0.884742   2.352444   0.106482)
  14:       456.67    4.199325  (  0.264925  -0.230075  -2.018961)
  15:       671.83   13.934320  ( -2.118288  -0.624512  -3.009512)
  16:       757.84    0.882240  (  0.908061   0.237046  -0.038383)
  17:       802.55    0.533423  (  0.498339  -0.011587   0.533804)
  18:       845.13    4.168106  (  1.537211   1.238651   0.520415)
  19:       867.20   10.396926  (  0.199447  -2.742646   1.683758)
  20:       895.31   12.011474  ( -1.840653   0.823396   2.818774)
  21:       943.66    9.864439  (  3.133517   0.162224  -0.138540)
  22:       994.21   13.683338  ( -2.974780   1.351975  -1.733836)
  23:      1005.86   13.285469  (  0.594903   2.020270  -2.974906)
  24:      1032.75  114.535190  (  0.274178  -3.624318 -10.065999)
  25:      1060.04    7.601442  ( -0.883067   0.486001   2.566211)
  26:      1100.13    7.560431  (  2.651217   0.694093  -0.222972)
  27:      1111.18   13.974807  ( -3.088985   1.647908  -1.310488)
  28:      1127.52    0.230818  ( -0.188972   0.363403  -0.251090)
  29:      1145.85    8.793720  ( -1.667004  -1.549688  -1.900864)
  30:      1158.95   20.379820  ( -1.132735  -1.727572  -4.014004)
  31:      1198.90    0.341780  (  0.520311   0.086225  -0.252234)
  32:      1237.02   34.252149  (  3.364268   0.131128   4.787135)
  33:      1252.25   14.774190  (  1.967438   0.165374   3.297883)
  34:      1331.90    5.092299  (  0.997886  -0.546774   1.948733)
  35:      1357.81   12.304111  (  0.829697  -0.825036   3.306816)
  36:      1393.90    1.167269  ( -0.473371  -0.552530   0.798687)
  37:      1408.29   40.012960  ( -1.081038   0.834674  -6.176377)
  38:      1436.14    9.300913  (  2.690634   1.367700   0.436805)
  39:      1461.89    1.720072  (  0.033574   1.308990   0.074091)
  40:      1481.14  158.952642  (  9.249522   7.998261   3.070312)
  41:      1492.04   76.030673  (  8.592560   1.119525   0.972238)
  42:      1515.01    6.297763  ( -0.699014   1.984972   1.367124)
  43:      1617.96   28.137011  (  0.011502   2.710069  -4.559869)
  44:      1670.57   28.194427  (  4.191466  -2.927811  -1.433166)
  45:      3052.62    8.788926  ( -1.121785  -2.741628  -0.118321)
  46:      3119.14    0.687096  (  0.013809  -0.680600  -0.472958)
  47:      3126.87   22.339226  (  4.690654  -0.573713  -0.088594)
  48:      3153.85    3.718996  ( -0.596115   1.760920   0.512645)
  49:      3164.45    2.342079  ( -0.532394   0.134721   1.428456)
  50:      3180.98    0.352980  ( -0.238681  -0.034015  -0.543005)
  51:      3227.41    2.385387  ( -1.446392   0.508204  -0.187260)
  52:      3246.89    1.049138  ( -0.828046   0.592756   0.110083)
  53:      3348.36   89.999273  ( -2.306591   3.705269   8.423176)
  54:      3456.42   88.102646  ( -0.825042  -3.801193   8.542417)
  55:      3534.34  142.396747  ( 10.800718  -5.069086   0.213540)
  56:      3867.09  112.885223  ( -6.257955   3.056118   8.023925)

--------------------------
THERMOCHEMISTRY AT 298.15K
--------------------------

Temperature         ... 298.15 K
Pressure            ... 1.00 atm
Total Mass          ... 102.16 AMU

Throughout the following assumptions are being made:
  (1) The electronic state is orbitally nondegenerate
  (2) There are no thermally accessible electronically excited states
  (3) Hindered rotations indicated by low frequency modes) are not
      treated as such but are treated as vibrations and this may
      case some error
  (4) All equations used are the standard statistical mechanics
      equations for an ideal gas
  (5) All vibrations are strinctly harmonic

------------
INNER ENERGY
------------

The inner energy is: U= E(el) + E(ZPE) + E(vib) + E(rot) + E(trans)
    E(el)   - is the total energy from the electronic structure calculation
              = E(kin-el) + E(nuc-el) + E(el-el) + E(nuc-nuc)
    E(ZPE)  - the the zero temperature vibrational energy from the frequency calculation
    E(vib)  - the the finite temperature correction to E(ZPE) due to population
              of excietd vibrational states
    E(rot)  - is the rotational thermal energy
    E(trans)- is the translational thermal energy

Summary of contributions to the inner energy U:
Electronic energy                ...   -327.20422280 Eh
Zero point energy                ...      0.17601083 Eh     110.45 kcal/mol
Thermal vibrational correction   ...      0.00523571 Eh       3.29 kcal/mol
Thermal rotational correction    ...      0.00141627 Eh       0.89 kcal/mol
Thermal translational correction ...      0.00141627 Eh       0.89 kcal/mol
-----------------------------------------------------------------------
Total thermal energy                   -327.02014372 Eh

Summary of corrections to the electronic energy:
(perhaps to be used in another calculation)
Total thermal correction                  0.00806825 Eh       5.06 kcal/mol
Non-thermal (ZPE) correction              0.17601083 Eh     110.45 kcal/mol
-----------------------------------------------------------------------
Total correction                          0.18407908 Eh     115.51 kcal/mol

--------
ENTHALPY
--------

The enthalpy is H = U + kB*T
                kB is Boltzmann's constant
Total free energy                 ...   -327.02014372 Eh
Thermal Enthalpy correction       ...      0.00094421 Eh       0.59 kcal/mol
-----------------------------------------------------------------------
Total Enthalpy                    ...   -327.01919951 Eh

-------
ENTROPY
-------

The entropy contributions are T*S = T*(S(el)+S(vib)+S(rot)+S(trans)
     S(el)   - electronic entropy
     S(vib)  - vibrational entropy
     S(rot)  - rotational entropy
     S(trans)- translational entropy
The entropies will be listed as mutliplied by the temperature to get
units of energy

Electronic entropy                ...      0.00000000 Eh      0.00 kcal/mol
Vibrational entropy               ...      0.00914162 Eh      5.74 kcal/mol
Rotational entropy                ...      0.01206718 Eh      7.57 kcal/mol
Translational entropy             ...      0.01890147 Eh     11.86 kcal/mol
-----------------------------------------------------------------------
Final entropy term                ...      0.04011027 Eh     25.17 kcal/mol

CAUTION: The rotational entropy is not quite correctly treated here
         because it includes a symmetry number that is not yet correctly
         implemented in ORCA!
For a nonlinear molecule the correct rotational entropy is:
    S(rot) = R*(ln(qrot/sn)+1.5)
    R    = 8.31441 J/mol/K = 1.987191683e-3 kcal/mol/K
    qrot = 237802.4750885
    sn is the rotational symmetry number. We have assumed 3 here
       if it is different for your molecule then you should correct
       the printed rotational entropy by manually evaluating the equation
       as given above

For convenience we print out the resulting values for sn=1 - 12:
 sn= 1  qrot/sn=  237802.4751 T*S(rot)=     8.22 kcal/mol T*S(tot)=    25.82 kcal/mol
 sn= 2  qrot/sn=  118901.2375 T*S(rot)=     7.81 kcal/mol T*S(tot)=    25.41 kcal/mol
 sn= 3  qrot/sn=   79267.4917 T*S(rot)=     7.57 kcal/mol T*S(tot)=    25.17 kcal/mol
 sn= 4  qrot/sn=   59450.6188 T*S(rot)=     7.40 kcal/mol T*S(tot)=    25.00 kcal/mol
 sn= 5  qrot/sn=   47560.4950 T*S(rot)=     7.27 kcal/mol T*S(tot)=    24.87 kcal/mol
 sn= 6  qrot/sn=   39633.7458 T*S(rot)=     7.16 kcal/mol T*S(tot)=    24.76 kcal/mol
 sn= 7  qrot/sn=   33971.7822 T*S(rot)=     7.07 kcal/mol T*S(tot)=    24.67 kcal/mol
 sn= 8  qrot/sn=   29725.3094 T*S(rot)=     6.99 kcal/mol T*S(tot)=    24.59 kcal/mol
 sn= 9  qrot/sn=   26422.4972 T*S(rot)=     6.92 kcal/mol T*S(tot)=    24.52 kcal/mol
 sn=10  qrot/sn=   23780.2475 T*S(rot)=     6.86 kcal/mol T*S(tot)=    24.46 kcal/mol
 sn=11  qrot/sn=   21618.4068 T*S(rot)=     6.80 kcal/mol T*S(tot)=    24.40 kcal/mol
 sn=12  qrot/sn=   19816.8729 T*S(rot)=     6.75 kcal/mol T*S(tot)=    24.35 kcal/mol

-------------------
GIBBS FREE ENTHALPY
-------------------

The Gibbs free enthalpy is G = H - T*S

Total enthalpy                    ...   -327.01919951 Eh
Total entropy correction          ...     -0.04011027 Eh    -25.17 kcal/mol
-----------------------------------------------------------------------
Final Gibbs free enthalpy         ...   -327.05930978 Eh

For completeness - the Gibbs free enthalpy minus the electronic energy
G-E(el)                           ...      0.14491302 Eh     90.93 kcal/mol

                             ****ORCA TERMINATED NORMALLY****
TOTAL RUN TIME: 0 days 0 hours 49 minutes 3 seconds 818 msec
