                         Program Version 3.0.3 - RELEASE   -
|  1> ! NORI PBE0 def2-TZVP UseSym TightOPT Freq TightSCF Grid3 FinalGrid5 XYZFile
|  2> % pal
|  3>     nprocs 8
|  4> end
|  5> %method
|  6>     SymThresh 5.0e-2
|  7> end
|  8> % geom
|  9>     MaxIter 10
| 10> end
| 11> % maxcore 2000
| 12> % output
| 13>     printlevel mini
| 14>     print[ P_Basis ] 0
| 15>     print[ P_SCFInfo ] 1
| 16>     print[ P_SCFIterInfo ] 1
| 17>     print[ P_OrbEn ] 0
| 18>     print[ P_Cartesian ] 0
| 19> end
| 20> % elprop
| 21>     Dipole false
| 22> end
| 23> *xyz 1 1
| 24>  N        1.2861443703    -0.2491609581    -0.6858012245
| 25>  C        1.8788320949    -0.2441797361     0.6914790191
| 26>  C        2.7443088426    -1.4864599511     0.8441477629
| 27>  O        2.0509169846    -2.5054266018     0.1513550745
| 28>  C        4.1669191916    -1.3295109946     0.3524084165
| 29>  C        4.6585100433    -0.2651802755    -0.5232934147
| 30>  O        4.8557380942    -0.2178805805     0.8764463959
| 31>  H        0.4952734202     0.3888644839    -0.7704377229
| 32>  H        0.9828532590    -1.2160764011    -0.8718447727
| 33>  H        1.9770791712    -0.0068529739    -1.3971843188
| 34>  H        1.0402169183    -0.2740911619     1.3853948584
| 35>  H        2.4485165551     0.6717245614     0.8436533037
| 36>  H        2.7959140982    -1.7040024194     1.9176562507
| 37>  H        2.3297134849    -3.3804578307     0.4355299885
| 38>  H        4.7286105224    -2.2637590644     0.3645066748
| 39>  H        4.0028513327     0.5107919588    -0.9197038293
| 40>  H        5.5488616164    -0.4409820553    -1.1198924619
| 41> *
| 42>
| 43>                          ****END OF INPUT****
 Total Charge           Charge          ....    1
 Multiplicity           Mult            ....    1
 Number of Electrons    NEL             ....   56
FINAL SINGLE POINT ENERGY      -363.085341955666
FINAL SINGLE POINT ENERGY      -363.085343756712
FINAL SINGLE POINT ENERGY      -363.085346047555
FINAL SINGLE POINT ENERGY      -363.085346682051

CARTESIAN COORDINATES (ANGSTROEM)
---------------------------------
  N     -2.041766    0.028801    0.397370
  C     -0.982514    1.024165    0.029555
  C      0.338593    0.555178    0.620057
  O      0.002355    0.009026    1.880505
  C      1.102720   -0.428533   -0.239391
  C      0.561443   -1.175043   -1.375700
  O      1.333872   -0.004857   -1.562914
  H     -2.983348    0.400513    0.275120
  H     -1.883041   -0.216390    1.385538
  H     -1.958240   -0.831911   -0.145211
  H     -1.285182    1.971413    0.473586
  H     -0.935077    1.127738   -1.053746
  H      0.968114    1.446157    0.731096
  H      0.764646   -0.029382    2.464930
  H      1.972303   -0.850667    0.264592
  H     -0.480374   -1.086897   -1.685058
  H      1.035941   -2.106505   -1.670474

FINAL SINGLE POINT ENERGY      -363.085347257354
                    ***********************HURRAY********************
 Multiplicity           Mult            ....    1
 Number of Electrons    NEL             ....   56
 Basis Dimension        Dim             ....  277
FINAL SINGLE POINT ENERGY      -363.085347445520

VIBRATIONAL FREQUENCIES
-----------------------

   0:         0.00 cm**-1
   1:         0.00 cm**-1
   2:         0.00 cm**-1
   3:         0.00 cm**-1
   4:         0.00 cm**-1
   5:         0.00 cm**-1
   6:        80.14 cm**-1
   7:       137.82 cm**-1
   8:       175.82 cm**-1
   9:       214.11 cm**-1
  10:       232.99 cm**-1
  11:       268.96 cm**-1
  12:       330.75 cm**-1
  13:       435.85 cm**-1
  14:       491.06 cm**-1
  15:       681.95 cm**-1
  16:       787.64 cm**-1
  17:       872.10 cm**-1
  18:       888.71 cm**-1
  19:       918.84 cm**-1
  20:       967.59 cm**-1
  21:       998.55 cm**-1
  22:      1040.70 cm**-1
  23:      1075.08 cm**-1
  24:      1107.23 cm**-1
  25:      1140.40 cm**-1
  26:      1144.63 cm**-1
  27:      1178.01 cm**-1
  28:      1183.32 cm**-1
  29:      1236.51 cm**-1
  30:      1297.47 cm**-1
  31:      1334.91 cm**-1
  32:      1374.83 cm**-1
  33:      1398.60 cm**-1
  34:      1414.30 cm**-1
  35:      1457.16 cm**-1
  36:      1488.76 cm**-1
  37:      1497.16 cm**-1
  38:      1537.02 cm**-1
  39:      1631.81 cm**-1
  40:      1669.11 cm**-1
  41:      3054.95 cm**-1
  42:      3087.78 cm**-1
  43:      3119.16 cm**-1
  44:      3125.92 cm**-1
  45:      3181.06 cm**-1
  46:      3193.25 cm**-1
  47:      3347.22 cm**-1
  48:      3477.25 cm**-1
  49:      3532.22 cm**-1
  50:      3869.01 cm**-1

IR SPECTRUM
-----------

 Mode    freq (cm**-1)   T**2         TX         TY         TZ
-------------------------------------------------------------------
   6:        80.14    7.335426  ( -1.196978  -1.778499  -1.655177)
   7:       137.82   22.583323  (  2.872266  -2.152034  -3.114829)
   8:       175.82   42.485191  ( -0.685925   6.082658   2.239636)
   9:       214.11   90.535986  (  0.890694  -8.393093  -4.393022)
  10:       232.99   19.812981  (  3.369009  -2.671334  -1.151840)
  11:       268.96    9.664857  ( -1.950544   1.523318  -1.881420)
  12:       330.75   33.685878  (  5.159170  -0.456812   2.619191)
  13:       435.85    7.597481  (  0.849585   0.288000  -2.606289)
  14:       491.06    1.163594  ( -0.832400   0.459670  -0.509321)
  15:       681.95   13.823938  (  2.679223   0.209880  -2.569368)
  16:       787.64    3.280734  ( -1.529592  -0.712019   0.658870)
  17:       872.10   10.565459  ( -0.257584  -2.383284  -2.195237)
  18:       888.71   22.551670  (  0.168835  -4.291080   2.027264)
  19:       918.84   14.706351  (  0.191650  -0.329709  -3.815877)
  20:       967.59    3.905863  ( -0.750318  -1.325169  -1.259688)
  21:       998.55   31.598444  (  4.251622   2.302063  -2.867519)
  22:      1040.70   99.363764  ( -2.123588   3.928799  -8.911716)
  23:      1075.08   14.302173  (  0.203010  -1.567648   3.435613)
  24:      1107.23    4.693931  ( -1.888613   0.690023   0.806809)
  25:      1140.40   19.768221  ( -2.596077   0.603681   3.558676)
  26:      1144.63   13.677112  ( -1.340256  -1.758973   2.964261)
  27:      1178.01    1.045841  (  0.802664  -0.550152  -0.314491)
  28:      1183.32    1.233620  ( -1.093083   0.077688   0.180979)
  29:      1236.51   49.561540  ( -3.789967  -1.254228   5.798673)
  30:      1297.47   10.956548  (  0.636391   2.788923  -1.665373)
  31:      1334.91   13.296582  (  1.652483  -1.124177  -3.049936)
  32:      1374.83    9.774795  (  0.744316  -0.690979  -2.956913)
  33:      1398.60    8.488673  ( -0.184661   0.378002   2.883000)
  34:      1414.30    5.629237  ( -0.860309  -0.931552  -2.005322)
  35:      1457.16    9.711816  ( -2.933613  -0.902685   0.539342)
  36:      1488.76  153.752158  ( -8.879204  -7.575452   4.186219)
  37:      1497.16   66.688058  ( -8.121299  -0.215127   0.828417)
  38:      1537.02    4.251368  ( -1.012674   0.578545  -1.700337)
  39:      1631.81   35.276289  ( -0.267017  -3.513350  -4.781356)
  40:      1669.11   30.978795  ( -4.352255   2.966384  -1.799232)
  41:      3054.95    4.819515  (  0.780551   1.889791  -0.799340)
  42:      3087.78   38.326450  ( -6.146617  -0.704516  -0.221815)
  43:      3119.16    0.757716  ( -0.743138   0.421125   0.167674)
  44:      3125.92    6.528950  (  1.198655  -0.857479   2.087320)
  45:      3181.06    0.264461  (  0.136870   0.077407  -0.489628)
  46:      3193.25    9.139480  ( -2.673455   1.411306  -0.018288)
  47:      3347.22   95.087665  ( -2.201021   2.829955  -9.068325)
  48:      3477.25   83.149246  (  4.888522   3.141056   7.027472)
  49:      3532.22  128.059028  ( -9.223732   6.480344   0.993450)
  50:      3869.01  136.146234  ( -6.801781   0.847131  -9.442690)

--------------------------
THERMOCHEMISTRY AT 298.15K
--------------------------

Temperature         ... 298.15 K
Pressure            ... 1.00 atm
Total Mass          ... 104.13 AMU

Throughout the following assumptions are being made:
  (1) The electronic state is orbitally nondegenerate
  (2) There are no thermally accessible electronically excited states
  (3) Hindered rotations indicated by low frequency modes) are not
      treated as such but are treated as vibrations and this may
      case some error
  (4) All equations used are the standard statistical mechanics
      equations for an ideal gas
  (5) All vibrations are strinctly harmonic

------------
INNER ENERGY
------------

The inner energy is: U= E(el) + E(ZPE) + E(vib) + E(rot) + E(trans)
    E(el)   - is the total energy from the electronic structure calculation
              = E(kin-el) + E(nuc-el) + E(el-el) + E(nuc-nuc)
    E(ZPE)  - the the zero temperature vibrational energy from the frequency calculation
    E(vib)  - the the finite temperature correction to E(ZPE) due to population
              of excietd vibrational states
    E(rot)  - is the rotational thermal energy
    E(trans)- is the translational thermal energy

Summary of contributions to the inner energy U:
Electronic energy                ...   -363.08534745 Eh
Zero point energy                ...      0.15190299 Eh      95.32 kcal/mol
Thermal vibrational correction   ...      0.00513097 Eh       3.22 kcal/mol
Thermal rotational correction    ...      0.00141627 Eh       0.89 kcal/mol
Thermal translational correction ...      0.00141627 Eh       0.89 kcal/mol
-----------------------------------------------------------------------
Total thermal energy                   -362.92548094 Eh

Summary of corrections to the electronic energy:
(perhaps to be used in another calculation)
Total thermal correction                  0.00796351 Eh       5.00 kcal/mol
Non-thermal (ZPE) correction              0.15190299 Eh      95.32 kcal/mol
-----------------------------------------------------------------------
Total correction                          0.15986650 Eh     100.32 kcal/mol

--------
ENTHALPY
--------

The enthalpy is H = U + kB*T
                kB is Boltzmann's constant
Total free energy                 ...   -362.92548094 Eh
Thermal Enthalpy correction       ...      0.00094421 Eh       0.59 kcal/mol
-----------------------------------------------------------------------
Total Enthalpy                    ...   -362.92453673 Eh

-------
ENTROPY
-------

The entropy contributions are T*S = T*(S(el)+S(vib)+S(rot)+S(trans)
     S(el)   - electronic entropy
     S(vib)  - vibrational entropy
     S(rot)  - rotational entropy
     S(trans)- translational entropy
The entropies will be listed as mutliplied by the temperature to get
units of energy

Electronic entropy                ...      0.00000000 Eh      0.00 kcal/mol
Vibrational entropy               ...      0.00908555 Eh      5.70 kcal/mol
Rotational entropy                ...      0.01204539 Eh      7.56 kcal/mol
Translational entropy             ...      0.01892854 Eh     11.88 kcal/mol
-----------------------------------------------------------------------
Final entropy term                ...      0.04005948 Eh     25.14 kcal/mol

CAUTION: The rotational entropy is not quite correctly treated here
         because it includes a symmetry number that is not yet correctly
         implemented in ORCA!
For a nonlinear molecule the correct rotational entropy is:
    S(rot) = R*(ln(qrot/sn)+1.5)
    R    = 8.31441 J/mol/K = 1.987191683e-3 kcal/mol/K
    qrot = 232376.1788573
    sn is the rotational symmetry number. We have assumed 3 here
       if it is different for your molecule then you should correct
       the printed rotational entropy by manually evaluating the equation
       as given above

For convenience we print out the resulting values for sn=1 - 12:
 sn= 1  qrot/sn=  232376.1789 T*S(rot)=     8.21 kcal/mol T*S(tot)=    25.79 kcal/mol
 sn= 2  qrot/sn=  116188.0894 T*S(rot)=     7.80 kcal/mol T*S(tot)=    25.38 kcal/mol
 sn= 3  qrot/sn=   77458.7263 T*S(rot)=     7.56 kcal/mol T*S(tot)=    25.14 kcal/mol
 sn= 4  qrot/sn=   58094.0447 T*S(rot)=     7.39 kcal/mol T*S(tot)=    24.97 kcal/mol
 sn= 5  qrot/sn=   46475.2358 T*S(rot)=     7.26 kcal/mol T*S(tot)=    24.83 kcal/mol
 sn= 6  qrot/sn=   38729.3631 T*S(rot)=     7.15 kcal/mol T*S(tot)=    24.73 kcal/mol
 sn= 7  qrot/sn=   33196.5970 T*S(rot)=     7.06 kcal/mol T*S(tot)=    24.64 kcal/mol
 sn= 8  qrot/sn=   29047.0224 T*S(rot)=     6.98 kcal/mol T*S(tot)=    24.56 kcal/mol
 sn= 9  qrot/sn=   25819.5754 T*S(rot)=     6.91 kcal/mol T*S(tot)=    24.49 kcal/mol
 sn=10  qrot/sn=   23237.6179 T*S(rot)=     6.85 kcal/mol T*S(tot)=    24.42 kcal/mol
 sn=11  qrot/sn=   21125.1072 T*S(rot)=     6.79 kcal/mol T*S(tot)=    24.37 kcal/mol
 sn=12  qrot/sn=   19364.6816 T*S(rot)=     6.74 kcal/mol T*S(tot)=    24.32 kcal/mol

-------------------
GIBBS FREE ENTHALPY
-------------------

The Gibbs free enthalpy is G = H - T*S

Total enthalpy                    ...   -362.92453673 Eh
Total entropy correction          ...     -0.04005948 Eh    -25.14 kcal/mol
-----------------------------------------------------------------------
Final Gibbs free enthalpy         ...   -362.96459622 Eh

For completeness - the Gibbs free enthalpy minus the electronic energy
G-E(el)                           ...      0.12075123 Eh     75.77 kcal/mol

                             ****ORCA TERMINATED NORMALLY****
TOTAL RUN TIME: 0 days 0 hours 40 minutes 18 seconds 843 msec
