                         Program Version 3.0.3 - RELEASE   -
|  1> ! NORI PBE0 def2-TZVP UseSym TightOPT Freq TightSCF Grid3 FinalGrid5 XYZFile
|  2> % pal
|  3>     nprocs 8
|  4> end
|  5> %method
|  6>     SymThresh 5.0e-2
|  7> end
|  8> % geom
|  9>     MaxIter 10
| 10> end
| 11> % maxcore 2000
| 12> % output
| 13>     printlevel mini
| 14>     print[ P_Basis ] 0
| 15>     print[ P_SCFInfo ] 1
| 16>     print[ P_SCFIterInfo ] 1
| 17>     print[ P_OrbEn ] 0
| 18>     print[ P_Cartesian ] 0
| 19> end
| 20> % elprop
| 21>     Dipole false
| 22> end
| 23> *xyz 1 1
| 24>  N        1.7746627489     0.9573930134     0.0716377929
| 25>  C        2.7228336224    -0.1590398496     0.4435496788
| 26>  C        3.1258938465     0.1050121070     1.8821503774
| 27>  O        3.4383359178     1.4801287070     1.9365871363
| 28>  C        2.0848772801    -1.5139902972     0.1945283648
| 29>  C        3.0501225968    -2.6325330350     0.4458395441
| 30>  C        2.8598384265    -3.5875410924     1.3431073747
| 31>  H        1.6865345695     1.0744302085    -0.9372894847
| 32>  H        2.1556743074     1.8164789279     0.4962890433
| 33>  H        0.8421092459     0.7956738173     0.4568064539
| 34>  H        3.5943387636    -0.0082269616    -0.1989713989
| 35>  H        3.9804042803    -0.5314777620     2.1259090968
| 36>  H        2.3034233618    -0.1500792153     2.5649051264
| 37>  H        3.7818241186     1.7256662194     2.8000431887
| 38>  H        1.2053179991    -1.6332063182     0.8372387506
| 39>  H        1.7397848175    -1.5582006264    -0.8463083085
| 40>  H        3.9419024800    -2.6467057063    -0.1771031905
| 41>  H        1.9737127750    -3.6182512671     1.9697390272
| 42>  H        3.5782388424    -4.3879008693     1.4724914267
| 43> *
| 44>
| 45>                          ****END OF INPUT****
 Total Charge           Charge          ....    1
 Multiplicity           Mult            ....    1
 Number of Electrons    NEL             ....   56
FINAL SINGLE POINT ENERGY      -327.209533559501

CARTESIAN COORDINATES (ANGSTROEM)
---------------------------------
  N      1.897959   -0.000287    0.752363
  C      0.530749   -0.365681    0.222514
  C     -0.464732    0.290855    1.160543
  O     -0.001581   -0.000028    2.461555
  C      0.394502    0.031095   -1.236601
  C     -0.909929   -0.428483   -1.813309
  C     -1.821940    0.384589   -2.323460
  H      2.628056   -0.624589    0.410856
  H      1.836381   -0.055423    1.780405
  H      2.150874    0.956263    0.497187
  H      0.466550   -1.450080    0.344939
  H     -1.455252   -0.126375    0.962711
  H     -0.507146    1.373811    0.978992
  H     -0.617898    0.313767    3.129033
  H      0.479450    1.119426   -1.334581
  H      1.220759   -0.415332   -1.804729
  H     -1.080063   -1.503022   -1.820010
  H     -1.679955    1.460462   -2.352684
  H     -2.741052    0.000967   -2.749164

FINAL SINGLE POINT ENERGY      -327.209534392519
                    ***********************HURRAY********************
 Multiplicity           Mult            ....    1
 Number of Electrons    NEL             ....   56
 Basis Dimension        Dim             ....  289
FINAL SINGLE POINT ENERGY      -327.209534801045

VIBRATIONAL FREQUENCIES
-----------------------

   0:         0.00 cm**-1
   1:         0.00 cm**-1
   2:         0.00 cm**-1
   3:         0.00 cm**-1
   4:         0.00 cm**-1
   5:         0.00 cm**-1
   6:        80.27 cm**-1
   7:        87.38 cm**-1
   8:       140.07 cm**-1
   9:       207.16 cm**-1
  10:       231.52 cm**-1
  11:       289.34 cm**-1
  12:       304.91 cm**-1
  13:       363.21 cm**-1
  14:       411.96 cm**-1
  15:       452.27 cm**-1
  16:       519.32 cm**-1
  17:       659.61 cm**-1
  18:       833.45 cm**-1
  19:       886.52 cm**-1
  20:       931.32 cm**-1
  21:       959.15 cm**-1
  22:       986.53 cm**-1
  23:       998.60 cm**-1
  24:      1028.11 cm**-1
  25:      1046.19 cm**-1
  26:      1062.61 cm**-1
  27:      1108.30 cm**-1
  28:      1178.77 cm**-1
  29:      1188.27 cm**-1
  30:      1221.62 cm**-1
  31:      1242.85 cm**-1
  32:      1303.25 cm**-1
  33:      1322.61 cm**-1
  34:      1340.94 cm**-1
  35:      1367.47 cm**-1
  36:      1409.81 cm**-1
  37:      1444.25 cm**-1
  38:      1455.29 cm**-1
  39:      1470.57 cm**-1
  40:      1482.87 cm**-1
  41:      1512.84 cm**-1
  42:      1639.04 cm**-1
  43:      1664.46 cm**-1
  44:      1728.53 cm**-1
  45:      3019.46 cm**-1
  46:      3025.15 cm**-1
  47:      3073.43 cm**-1
  48:      3099.76 cm**-1
  49:      3112.37 cm**-1
  50:      3157.03 cm**-1
  51:      3162.45 cm**-1
  52:      3253.69 cm**-1
  53:      3328.21 cm**-1
  54:      3471.51 cm**-1
  55:      3530.82 cm**-1
  56:      3870.50 cm**-1

IR SPECTRUM
-----------

 Mode    freq (cm**-1)   T**2         TX         TY         TZ
-------------------------------------------------------------------
   6:        80.27    0.521386  (  0.665364  -0.147908   0.238328)
   7:        87.38    0.642885  (  0.177175  -0.746926   0.231506)
   8:       140.07   11.941645  (  2.062770   2.667342  -0.756248)
   9:       207.16    6.953005  ( -0.254834   2.554008  -0.604242)
  10:       231.52   23.387823  ( -1.190788  -4.548293  -1.132643)
  11:       289.34  100.732006  ( -5.890478  -7.559001   2.982578)
  12:       304.91   42.501742  (  0.490139  -5.222665  -3.871082)
  13:       363.21    2.321763  ( -0.321150  -0.411947   1.431407)
  14:       411.96    4.059972  (  1.835659  -0.115650  -0.822772)
  15:       452.27    3.382277  (  1.804016  -0.161167   0.319105)
  16:       519.32    7.104920  ( -2.208541   0.208206  -1.477808)
  17:       659.61   20.441997  ( -0.559311   0.702863   4.431157)
  18:       833.45    0.450556  ( -0.123461  -0.438412   0.493060)
  19:       886.52    1.625432  (  0.108648  -1.118740  -0.601704)
  20:       931.32    6.782472  ( -1.222095  -0.989436   2.076047)
  21:       959.15   20.938055  ( -1.492716   1.331462   4.115466)
  22:       986.53   36.176953  ( -0.473186  -1.212604   5.872192)
  23:       998.60   47.819018  (  2.757920  -0.568003  -6.315874)
  24:      1028.11    9.883210  ( -2.096652   0.909829   2.158581)
  25:      1046.19   63.247188  (  4.539338  -1.238240   6.411581)
  26:      1062.61    2.407296  ( -0.043628  -0.549772  -1.450222)
  27:      1108.30   75.925326  (  1.727433  -1.393977   8.426039)
  28:      1178.77    3.771930  ( -1.452924   0.936146   0.885761)
  29:      1188.27   18.415559  (  0.148878   1.231000  -4.108288)
  30:      1221.62   14.218176  ( -2.156455   1.235986  -2.835528)
  31:      1242.85    5.877776  (  1.274137  -1.877426   0.854180)
  32:      1303.25    5.622132  (  0.454711  -0.591047   2.250785)
  33:      1322.61    8.057563  ( -0.491257   1.639142  -2.264827)
  34:      1340.94    1.274956  ( -1.078148   0.115573   0.314956)
  35:      1367.47    0.865306  ( -0.572034  -0.652906  -0.334362)
  36:      1409.81    7.344573  ( -1.994068   1.042667  -1.510335)
  37:      1444.25   41.274698  (  6.268884   1.004424   0.983324)
  38:      1455.29    3.866491  (  0.590076   1.851407   0.300987)
  39:      1470.57   78.446501  ( -7.812905   1.192021  -3.998013)
  40:      1482.87  103.493377  ( -9.482049  -2.954323  -2.203654)
  41:      1512.84    5.590898  (  1.866200  -0.732324  -1.253753)
  42:      1639.04   36.017470  (  0.436454   5.383625  -2.616021)
  43:      1664.46   35.490089  ( -2.661645   3.759412   3.777904)
  44:      1728.53    3.050130  (  1.324571  -1.061053   0.412079)
  45:      3019.46   20.101018  (  1.248565  -3.278093   2.792169)
  46:      3025.15   13.538131  ( -3.409498  -1.348734   0.307201)
  47:      3073.43    4.242564  (  0.358912  -1.890936  -0.733558)
  48:      3099.76    3.223677  ( -0.900238   1.141220  -1.053976)
  49:      3112.37    5.146144  (  0.757472   1.865223   1.045621)
  50:      3157.03    4.595941  ( -0.556130  -2.065395  -0.144233)
  51:      3162.45    0.159188  ( -0.044927   0.395857   0.021602)
  52:      3253.69    0.867925  ( -0.208331  -0.901428  -0.109320)
  53:      3328.21  124.383848  ( -0.860595  -0.015658  11.119486)
  54:      3471.51   86.483219  ( -6.642841  -3.222461   5.654346)
  55:      3530.82   92.423676  ( -5.209680   7.883750   1.769011)
  56:      3870.50  137.881946  (  5.336400  -2.414856 -10.177095)

--------------------------
THERMOCHEMISTRY AT 298.15K
--------------------------

Temperature         ... 298.15 K
Pressure            ... 1.00 atm
Total Mass          ... 102.16 AMU

Throughout the following assumptions are being made:
  (1) The electronic state is orbitally nondegenerate
  (2) There are no thermally accessible electronically excited states
  (3) Hindered rotations indicated by low frequency modes) are not
      treated as such but are treated as vibrations and this may
      case some error
  (4) All equations used are the standard statistical mechanics
      equations for an ideal gas
  (5) All vibrations are strinctly harmonic

------------
INNER ENERGY
------------

The inner energy is: U= E(el) + E(ZPE) + E(vib) + E(rot) + E(trans)
    E(el)   - is the total energy from the electronic structure calculation
              = E(kin-el) + E(nuc-el) + E(el-el) + E(nuc-nuc)
    E(ZPE)  - the the zero temperature vibrational energy from the frequency calculation
    E(vib)  - the the finite temperature correction to E(ZPE) due to population
              of excietd vibrational states
    E(rot)  - is the rotational thermal energy
    E(trans)- is the translational thermal energy

Summary of contributions to the inner energy U:
Electronic energy                ...   -327.20953480 Eh
Zero point energy                ...      0.17465712 Eh     109.60 kcal/mol
Thermal vibrational correction   ...      0.00590660 Eh       3.71 kcal/mol
Thermal rotational correction    ...      0.00141627 Eh       0.89 kcal/mol
Thermal translational correction ...      0.00141627 Eh       0.89 kcal/mol
-----------------------------------------------------------------------
Total thermal energy                   -327.02613854 Eh

Summary of corrections to the electronic energy:
(perhaps to be used in another calculation)
Total thermal correction                  0.00873914 Eh       5.48 kcal/mol
Non-thermal (ZPE) correction              0.17465712 Eh     109.60 kcal/mol
-----------------------------------------------------------------------
Total correction                          0.18339627 Eh     115.08 kcal/mol

--------
ENTHALPY
--------

The enthalpy is H = U + kB*T
                kB is Boltzmann's constant
Total free energy                 ...   -327.02613854 Eh
Thermal Enthalpy correction       ...      0.00094421 Eh       0.59 kcal/mol
-----------------------------------------------------------------------
Total Enthalpy                    ...   -327.02519433 Eh

-------
ENTROPY
-------

The entropy contributions are T*S = T*(S(el)+S(vib)+S(rot)+S(trans)
     S(el)   - electronic entropy
     S(vib)  - vibrational entropy
     S(rot)  - rotational entropy
     S(trans)- translational entropy
The entropies will be listed as mutliplied by the temperature to get
units of energy

Electronic entropy                ...      0.00000000 Eh      0.00 kcal/mol
Vibrational entropy               ...      0.01064356 Eh      6.68 kcal/mol
Rotational entropy                ...      0.01231115 Eh      7.73 kcal/mol
Translational entropy             ...      0.01890147 Eh     11.86 kcal/mol
-----------------------------------------------------------------------
Final entropy term                ...      0.04185618 Eh     26.27 kcal/mol

CAUTION: The rotational entropy is not quite correctly treated here
         because it includes a symmetry number that is not yet correctly
         implemented in ORCA!
For a nonlinear molecule the correct rotational entropy is:
    S(rot) = R*(ln(qrot/sn)+1.5)
    R    = 8.31441 J/mol/K = 1.987191683e-3 kcal/mol/K
    qrot = 307917.9725584
    sn is the rotational symmetry number. We have assumed 3 here
       if it is different for your molecule then you should correct
       the printed rotational entropy by manually evaluating the equation
       as given above

For convenience we print out the resulting values for sn=1 - 12:
 sn= 1  qrot/sn=  307917.9726 T*S(rot)=     8.38 kcal/mol T*S(tot)=    26.92 kcal/mol
 sn= 2  qrot/sn=  153958.9863 T*S(rot)=     7.97 kcal/mol T*S(tot)=    26.51 kcal/mol
 sn= 3  qrot/sn=  102639.3242 T*S(rot)=     7.73 kcal/mol T*S(tot)=    26.27 kcal/mol
 sn= 4  qrot/sn=   76979.4931 T*S(rot)=     7.55 kcal/mol T*S(tot)=    26.09 kcal/mol
 sn= 5  qrot/sn=   61583.5945 T*S(rot)=     7.42 kcal/mol T*S(tot)=    25.96 kcal/mol
 sn= 6  qrot/sn=   51319.6621 T*S(rot)=     7.31 kcal/mol T*S(tot)=    25.85 kcal/mol
 sn= 7  qrot/sn=   43988.2818 T*S(rot)=     7.22 kcal/mol T*S(tot)=    25.76 kcal/mol
 sn= 8  qrot/sn=   38489.7466 T*S(rot)=     7.14 kcal/mol T*S(tot)=    25.68 kcal/mol
 sn= 9  qrot/sn=   34213.1081 T*S(rot)=     7.07 kcal/mol T*S(tot)=    25.61 kcal/mol
 sn=10  qrot/sn=   30791.7973 T*S(rot)=     7.01 kcal/mol T*S(tot)=    25.55 kcal/mol
 sn=11  qrot/sn=   27992.5430 T*S(rot)=     6.96 kcal/mol T*S(tot)=    25.50 kcal/mol
 sn=12  qrot/sn=   25659.8310 T*S(rot)=     6.90 kcal/mol T*S(tot)=    25.44 kcal/mol

-------------------
GIBBS FREE ENTHALPY
-------------------

The Gibbs free enthalpy is G = H - T*S

Total enthalpy                    ...   -327.02519433 Eh
Total entropy correction          ...     -0.04185618 Eh    -26.27 kcal/mol
-----------------------------------------------------------------------
Final Gibbs free enthalpy         ...   -327.06705051 Eh

For completeness - the Gibbs free enthalpy minus the electronic energy
G-E(el)                           ...      0.14248429 Eh     89.41 kcal/mol

                             ****ORCA TERMINATED NORMALLY****
TOTAL RUN TIME: 0 days 0 hours 39 minutes 34 seconds 267 msec
