                         Program Version 3.0.3 - RELEASE   -
|  1> ! NORI PBE0 def2-TZVP UseSym TightOPT Freq TightSCF Grid3 FinalGrid5 XYZFile
|  2> % pal
|  3>     nprocs 8
|  4> end
|  5> %method
|  6>     SymThresh 5.0e-2
|  7> end
|  8> % geom
|  9>     MaxIter 10
| 10> end
| 11> % maxcore 2000
| 12> % output
| 13>     printlevel mini
| 14>     print[ P_Basis ] 0
| 15>     print[ P_SCFInfo ] 1
| 16>     print[ P_SCFIterInfo ] 1
| 17>     print[ P_OrbEn ] 0
| 18>     print[ P_Cartesian ] 0
| 19> end
| 20> % elprop
| 21>     Dipole false
| 22> end
| 23> *xyz 1 1
| 24>  N        1.0867466723    -0.1659988909     0.1969097635
| 25>  C        2.5563164117     0.0422931641    -0.0724592447
| 26>  C        2.7491806259    -0.2281975819    -1.5535289743
| 27>  O        2.0406987304    -1.4222889980    -1.8032713867
| 28>  C        2.9919214099     1.4268893503     0.3859187933
| 29>  C        4.4139529506     1.6222589179     0.1717492806
| 30>  C        5.5895710483     1.7715139740    -0.0041761612
| 31>  H        0.8097354041    -0.9889920883    -0.3614720884
| 32>  H        0.5295148606     0.6320122794    -0.1158822587
| 33>  H        0.8864463289    -0.3299259000     1.1833276227
| 34>  H        3.0661874972    -0.7347172568     0.5007224511
| 35>  H        2.3586919253     0.6064721437    -2.1522557672
| 36>  H        3.8199464453    -0.3215521473    -1.7502170962
| 37>  H        2.1914412927    -1.7377408537    -2.6986861673
| 38>  H        2.7633953428     1.5572501078     1.4501691367
| 39>  H        2.4286137704     2.1942539166    -0.1612138920
| 40>  H        6.6352092835     1.9221698631    -0.1528740113
| 41> *
| 42>
| 43>                          ****END OF INPUT****
 Total Charge           Charge          ....    1
 Multiplicity           Mult            ....    1
 Number of Electrons    NEL             ....   54
FINAL SINGLE POINT ENERGY      -325.953794834029
FINAL SINGLE POINT ENERGY      -325.953796215488
FINAL SINGLE POINT ENERGY      -325.953797229822

CARTESIAN COORDINATES (ANGSTROEM)
---------------------------------
  N      1.888931   -0.003302    0.689154
  C      0.507014   -0.270055    0.145253
  C     -0.457516    0.381340    1.119320
  O     -0.002130   -0.001786    2.398520
  C      0.392853    0.220948   -1.290746
  C     -0.916791   -0.080758   -1.838381
  C     -1.998905   -0.339481   -2.282519
  H      1.817213   -0.113810    1.712975
  H      2.193211    0.952701    0.493851
  H      2.588577   -0.645127    0.316934
  H      0.384688   -1.354102    0.194806
  H     -0.449558    1.473416    0.997482
  H     -1.464495    0.017835    0.901242
  H     -0.610787    0.282831    3.085933
  H      1.163027   -0.253727   -1.909969
  H      0.569383    1.303831   -1.330458
  H     -2.957211   -0.563242   -2.694288

FINAL SINGLE POINT ENERGY      -325.953797679570
                    ***********************HURRAY********************
 Multiplicity           Mult            ....    1
 Number of Electrons    NEL             ....   54
 Basis Dimension        Dim             ....  277
FINAL SINGLE POINT ENERGY      -325.953798218523

VIBRATIONAL FREQUENCIES
-----------------------

   0:         0.00 cm**-1
   1:         0.00 cm**-1
   2:         0.00 cm**-1
   3:         0.00 cm**-1
   4:         0.00 cm**-1
   5:         0.00 cm**-1
   6:        79.03 cm**-1
   7:       114.97 cm**-1
   8:       162.81 cm**-1
   9:       230.36 cm**-1
  10:       278.22 cm**-1
  11:       291.65 cm**-1
  12:       332.45 cm**-1
  13:       340.12 cm**-1
  14:       427.91 cm**-1
  15:       442.54 cm**-1
  16:       579.09 cm**-1
  17:       721.66 cm**-1
  18:       742.03 cm**-1
  19:       823.63 cm**-1
  20:       891.10 cm**-1
  21:       948.00 cm**-1
  22:       965.17 cm**-1
  23:      1006.59 cm**-1
  24:      1048.52 cm**-1
  25:      1106.50 cm**-1
  26:      1135.57 cm**-1
  27:      1186.07 cm**-1
  28:      1211.95 cm**-1
  29:      1242.72 cm**-1
  30:      1305.12 cm**-1
  31:      1343.68 cm**-1
  32:      1367.28 cm**-1
  33:      1411.38 cm**-1
  34:      1445.30 cm**-1
  35:      1465.66 cm**-1
  36:      1483.15 cm**-1
  37:      1514.16 cm**-1
  38:      1638.85 cm**-1
  39:      1664.06 cm**-1
  40:      2256.20 cm**-1
  41:      3020.00 cm**-1
  42:      3027.28 cm**-1
  43:      3069.88 cm**-1
  44:      3109.03 cm**-1
  45:      3120.21 cm**-1
  46:      3315.90 cm**-1
  47:      3462.92 cm**-1
  48:      3466.38 cm**-1
  49:      3527.47 cm**-1
  50:      3869.91 cm**-1

IR SPECTRUM
-----------

 Mode    freq (cm**-1)   T**2         TX         TY         TZ
-------------------------------------------------------------------
   6:        79.03    0.827920  ( -0.431003   0.795395  -0.097490)
   7:       114.97    1.712412  (  1.170715   0.581924   0.056596)
   8:       162.81   20.363206  ( -1.950091  -3.958957   0.941812)
   9:       230.36   36.294530  ( -1.697980  -5.612660  -1.381824)
  10:       278.22   53.773488  ( -5.329826  -3.438061   3.680514)
  11:       291.65   66.925269  (  2.607488   7.606263   1.506998)
  12:       332.45   12.094860  (  0.903901  -0.474375  -3.324574)
  13:       340.12   13.956091  (  0.731772  -3.371420  -1.433222)
  14:       427.91    9.882330  ( -3.086423   0.107698   0.587130)
  15:       442.54    1.785275  ( -0.106096  -1.029817   0.844687)
  16:       579.09   26.943905  ( -1.614725   1.010493  -4.828610)
  17:       721.66   41.635010  (  2.293823  -5.517111  -2.436158)
  18:       742.03   37.655262  ( -1.768163  -2.944379   5.085223)
  19:       823.63    0.655447  (  0.229894   0.736416   0.245536)
  20:       891.10    2.967475  (  0.305131   0.259190   1.675467)
  21:       948.00   19.842706  ( -2.223943  -1.477731   3.565543)
  22:       965.17   17.932723  ( -1.898878   1.886537   3.281457)
  23:      1006.59   32.946302  (  0.717719  -1.240843   5.558011)
  24:      1048.52   40.637447  (  4.373598  -0.791224   4.569797)
  25:      1106.50   70.028469  ( -1.718265   1.569259  -8.038250)
  26:      1135.57    8.766670  ( -0.290017   1.135841  -2.718902)
  27:      1186.07   15.276753  (  1.334480   0.201102  -3.668170)
  28:      1211.95   22.868187  ( -2.149450   2.125422  -3.705487)
  29:      1242.72    8.062760  ( -1.125374   2.560198  -0.491609)
  30:      1305.12    7.368735  (  0.276098  -1.035869   2.493889)
  31:      1343.68    5.988381  (  1.571372   0.235706   1.861079)
  32:      1367.28    0.418772  (  0.264594  -0.563371   0.177133)
  33:      1411.38    4.716566  ( -0.957053   1.614414  -1.092832)
  34:      1445.30   34.002539  ( -5.780435  -0.289944  -0.710663)
  35:      1465.66   28.362288  ( -4.049752   1.134335  -3.267274)
  36:      1483.15  158.785331  (-11.985563  -1.606091  -3.542891)
  37:      1514.16    8.172805  ( -2.387852   0.966269   1.239876)
  38:      1638.85   36.651655  (  0.916495   5.491798  -2.377361)
  39:      1664.06   36.794002  (  2.521211  -3.914935  -3.887258)
  40:      2256.20    4.692339  ( -1.829596  -0.351810  -1.105056)
  41:      3020.00   19.987559  (  0.832552  -3.536952   2.604686)
  42:      3027.28   13.212118  ( -3.035392  -1.715882  -1.026772)
  43:      3069.88    0.826825  (  0.616231  -0.607328  -0.279709)
  44:      3109.03    2.216652  ( -0.832101  -0.346883  -1.184877)
  45:      3120.21    1.562863  ( -0.233187  -1.124953  -0.492917)
  46:      3315.90  140.054233  (  0.996716   0.332094 -11.787727)
  47:      3462.92   96.888864  ( -8.792341  -2.091430  -3.899939)
  48:      3466.38   84.056405  ( -6.549130  -3.245842   5.534421)
  49:      3527.47   96.157167  ( -4.984384   8.159629   2.175669)
  50:      3869.91  144.372603  ( -5.360445   2.168260  10.532658)

--------------------------
THERMOCHEMISTRY AT 298.15K
--------------------------

Temperature         ... 298.15 K
Pressure            ... 1.00 atm
Total Mass          ... 100.14 AMU

Throughout the following assumptions are being made:
  (1) The electronic state is orbitally nondegenerate
  (2) There are no thermally accessible electronically excited states
  (3) Hindered rotations indicated by low frequency modes) are not
      treated as such but are treated as vibrations and this may
      case some error
  (4) All equations used are the standard statistical mechanics
      equations for an ideal gas
  (5) All vibrations are strinctly harmonic

------------
INNER ENERGY
------------

The inner energy is: U= E(el) + E(ZPE) + E(vib) + E(rot) + E(trans)
    E(el)   - is the total energy from the electronic structure calculation
              = E(kin-el) + E(nuc-el) + E(el-el) + E(nuc-nuc)
    E(ZPE)  - the the zero temperature vibrational energy from the frequency calculation
    E(vib)  - the the finite temperature correction to E(ZPE) due to population
              of excietd vibrational states
    E(rot)  - is the rotational thermal energy
    E(trans)- is the translational thermal energy

Summary of contributions to the inner energy U:
Electronic energy                ...   -325.95379822 Eh
Zero point energy                ...      0.15079758 Eh      94.63 kcal/mol
Thermal vibrational correction   ...      0.00561499 Eh       3.52 kcal/mol
Thermal rotational correction    ...      0.00141627 Eh       0.89 kcal/mol
Thermal translational correction ...      0.00141627 Eh       0.89 kcal/mol
-----------------------------------------------------------------------
Total thermal energy                   -325.79455311 Eh

Summary of corrections to the electronic energy:
(perhaps to be used in another calculation)
Total thermal correction                  0.00844753 Eh       5.30 kcal/mol
Non-thermal (ZPE) correction              0.15079758 Eh      94.63 kcal/mol
-----------------------------------------------------------------------
Total correction                          0.15924511 Eh      99.93 kcal/mol

--------
ENTHALPY
--------

The enthalpy is H = U + kB*T
                kB is Boltzmann's constant
Total free energy                 ...   -325.79455311 Eh
Thermal Enthalpy correction       ...      0.00094421 Eh       0.59 kcal/mol
-----------------------------------------------------------------------
Total Enthalpy                    ...   -325.79360890 Eh

-------
ENTROPY
-------

The entropy contributions are T*S = T*(S(el)+S(vib)+S(rot)+S(trans)
     S(el)   - electronic entropy
     S(vib)  - vibrational entropy
     S(rot)  - rotational entropy
     S(trans)- translational entropy
The entropies will be listed as mutliplied by the temperature to get
units of energy

Electronic entropy                ...      0.00000000 Eh      0.00 kcal/mol
Vibrational entropy               ...      0.00987419 Eh      6.20 kcal/mol
Rotational entropy                ...      0.01225391 Eh      7.69 kcal/mol
Translational entropy             ...      0.01887324 Eh     11.84 kcal/mol
-----------------------------------------------------------------------
Final entropy term                ...      0.04100134 Eh     25.73 kcal/mol

CAUTION: The rotational entropy is not quite correctly treated here
         because it includes a symmetry number that is not yet correctly
         implemented in ORCA!
For a nonlinear molecule the correct rotational entropy is:
    S(rot) = R*(ln(qrot/sn)+1.5)
    R    = 8.31441 J/mol/K = 1.987191683e-3 kcal/mol/K
    qrot = 289805.1224491
    sn is the rotational symmetry number. We have assumed 3 here
       if it is different for your molecule then you should correct
       the printed rotational entropy by manually evaluating the equation
       as given above

For convenience we print out the resulting values for sn=1 - 12:
 sn= 1  qrot/sn=  289805.1224 T*S(rot)=     8.34 kcal/mol T*S(tot)=    26.38 kcal/mol
 sn= 2  qrot/sn=  144902.5612 T*S(rot)=     7.93 kcal/mol T*S(tot)=    25.97 kcal/mol
 sn= 3  qrot/sn=   96601.7075 T*S(rot)=     7.69 kcal/mol T*S(tot)=    25.73 kcal/mol
 sn= 4  qrot/sn=   72451.2806 T*S(rot)=     7.52 kcal/mol T*S(tot)=    25.56 kcal/mol
 sn= 5  qrot/sn=   57961.0245 T*S(rot)=     7.39 kcal/mol T*S(tot)=    25.43 kcal/mol
 sn= 6  qrot/sn=   48300.8537 T*S(rot)=     7.28 kcal/mol T*S(tot)=    25.32 kcal/mol
 sn= 7  qrot/sn=   41400.7318 T*S(rot)=     7.19 kcal/mol T*S(tot)=    25.23 kcal/mol
 sn= 8  qrot/sn=   36225.6403 T*S(rot)=     7.11 kcal/mol T*S(tot)=    25.15 kcal/mol
 sn= 9  qrot/sn=   32200.5692 T*S(rot)=     7.04 kcal/mol T*S(tot)=    25.08 kcal/mol
 sn=10  qrot/sn=   28980.5122 T*S(rot)=     6.98 kcal/mol T*S(tot)=    25.02 kcal/mol
 sn=11  qrot/sn=   26345.9202 T*S(rot)=     6.92 kcal/mol T*S(tot)=    24.96 kcal/mol
 sn=12  qrot/sn=   24150.4269 T*S(rot)=     6.87 kcal/mol T*S(tot)=    24.91 kcal/mol

-------------------
GIBBS FREE ENTHALPY
-------------------

The Gibbs free enthalpy is G = H - T*S

Total enthalpy                    ...   -325.79360890 Eh
Total entropy correction          ...     -0.04100134 Eh    -25.73 kcal/mol
-----------------------------------------------------------------------
Final Gibbs free enthalpy         ...   -325.83461024 Eh

For completeness - the Gibbs free enthalpy minus the electronic energy
G-E(el)                           ...      0.11918798 Eh     74.79 kcal/mol

                             ****ORCA TERMINATED NORMALLY****
TOTAL RUN TIME: 0 days 0 hours 35 minutes 23 seconds 573 msec
