                         Program Version 3.0.3 - RELEASE   -
|  1> ! NORI PBE0 def2-TZVP UseSym TightOPT Freq TightSCF Grid3 FinalGrid5 XYZFile
|  2> % pal
|  3>     nprocs 8
|  4> end
|  5> %method
|  6>     SymThresh 5.0e-2
|  7> end
|  8> % geom
|  9>     MaxIter 10
| 10> end
| 11> % maxcore 2000
| 12> % output
| 13>     printlevel mini
| 14>     print[ P_Basis ] 0
| 15>     print[ P_SCFInfo ] 1
| 16>     print[ P_SCFIterInfo ] 1
| 17>     print[ P_OrbEn ] 0
| 18>     print[ P_Cartesian ] 0
| 19> end
| 20> % elprop
| 21>     Dipole false
| 22> end
| 23> *xyz 1 1
| 24>  N        1.2059651121    -0.6051678321    -0.3369515738
| 25>  C        2.6906795723    -0.5299488103    -0.1386007472
| 26>  C        3.1619322661     0.7947747423    -0.7113943665
| 27>  O        2.2322857125     1.7286510379    -0.1879988075
| 28>  C        4.6055519570     1.0887749083    -0.3231348241
| 29>  C        5.0439899690     2.4455818127    -0.7826870618
| 30>  C        5.8593342434     2.6615699103    -1.8043180311
| 31>  H        0.7553095878    -1.2818596421     0.2784591556
| 32>  H        0.9594759278    -0.8345931159    -1.3006089026
| 33>  H        0.8558886438     0.3458761628    -0.1369228984
| 34>  H        2.8621292569    -0.5600711777     0.9379922793
| 35>  H        3.1602515050    -1.3906031121    -0.6115013566
| 36>  H        3.0882394743     0.7716189859    -1.8089589968
| 37>  H        2.4162767174     2.6081078502    -0.5341086206
| 38>  H        4.6976906403     1.0130734321     0.7664166672
| 39>  H        5.2463942682     0.3204940766    -0.7669816504
| 40>  H        4.6732332031     3.2952210800    -0.2126652319
| 41>  H        6.2863863486     1.8450996015    -2.3784572531
| 42>  H        6.1469055944     3.6648300896    -2.0942077797
| 43> *
| 44>
| 45>                          ****END OF INPUT****
 Total Charge           Charge          ....    1
 Multiplicity           Mult            ....    1
 Number of Electrons    NEL             ....   56
FINAL SINGLE POINT ENERGY      -327.209503774176

CARTESIAN COORDINATES (ANGSTROEM)
---------------------------------
  N      2.536945   -0.000550    1.143728
  C      1.720939    0.522176   -0.001102
  C      0.353588   -0.133002    0.075041
  O      0.000503    0.000731    1.441678
  C     -0.634989    0.526893   -0.878136
  C     -2.015940   -0.034234   -0.729698
  C     -2.584107   -0.860337   -1.595911
  H      3.333168    0.594901    1.370273
  H      2.882578   -0.944990    0.968087
  H      1.885837   -0.044007    1.944638
  H      1.634008    1.599278    0.145858
  H      2.240631    0.317803   -0.935409
  H      0.438265   -1.198611   -0.184948
  H     -0.843630   -0.430982    1.609111
  H     -0.644598    1.605022   -0.682295
  H     -0.280524    0.376559   -1.902751
  H     -2.580087    0.286895    0.143758
  H     -2.076321   -1.178308   -2.501440
  H     -3.588359   -1.236097   -1.441834

FINAL SINGLE POINT ENERGY      -327.209504668863
                    ***********************HURRAY********************
 Multiplicity           Mult            ....    1
 Number of Electrons    NEL             ....   56
 Basis Dimension        Dim             ....  289
FINAL SINGLE POINT ENERGY      -327.209505136959

VIBRATIONAL FREQUENCIES
-----------------------

   0:         0.00 cm**-1
   1:         0.00 cm**-1
   2:         0.00 cm**-1
   3:         0.00 cm**-1
   4:         0.00 cm**-1
   5:         0.00 cm**-1
   6:        57.96 cm**-1
   7:        78.68 cm**-1
   8:       145.80 cm**-1
   9:       191.31 cm**-1
  10:       237.75 cm**-1
  11:       314.49 cm**-1
  12:       352.13 cm**-1
  13:       372.24 cm**-1
  14:       421.62 cm**-1
  15:       476.22 cm**-1
  16:       507.77 cm**-1
  17:       686.08 cm**-1
  18:       845.74 cm**-1
  19:       863.99 cm**-1
  20:       921.10 cm**-1
  21:       959.41 cm**-1
  22:       970.90 cm**-1
  23:       997.75 cm**-1
  24:      1015.61 cm**-1
  25:      1038.10 cm**-1
  26:      1054.01 cm**-1
  27:      1099.39 cm**-1
  28:      1162.38 cm**-1
  29:      1173.89 cm**-1
  30:      1259.68 cm**-1
  31:      1270.11 cm**-1
  32:      1303.45 cm**-1
  33:      1328.24 cm**-1
  34:      1342.53 cm**-1
  35:      1381.65 cm**-1
  36:      1389.89 cm**-1
  37:      1435.30 cm**-1
  38:      1450.80 cm**-1
  39:      1465.70 cm**-1
  40:      1481.46 cm**-1
  41:      1487.98 cm**-1
  42:      1640.52 cm**-1
  43:      1670.40 cm**-1
  44:      1724.59 cm**-1
  45:      3007.05 cm**-1
  46:      3046.33 cm**-1
  47:      3099.61 cm**-1
  48:      3110.38 cm**-1
  49:      3151.78 cm**-1
  50:      3158.04 cm**-1
  51:      3180.69 cm**-1
  52:      3250.14 cm**-1
  53:      3306.67 cm**-1
  54:      3477.61 cm**-1
  55:      3532.12 cm**-1
  56:      3844.32 cm**-1

IR SPECTRUM
-----------

 Mode    freq (cm**-1)   T**2         TX         TY         TZ
-------------------------------------------------------------------
   6:        57.96    0.487564  ( -0.620278  -0.188706  -0.259248)
   7:        78.68    4.659543  (  0.018353   1.942180   0.941882)
   8:       145.80    7.209769  (  1.708977  -1.897482  -0.829896)
   9:       191.31    8.085428  (  2.655156   0.860935  -0.542556)
  10:       237.75    4.719564  ( -1.163436  -1.771340   0.477841)
  11:       314.49   22.194065  ( -4.433541   1.546394   0.382679)
  12:       352.13   76.490978  (  2.428993  -7.838496   3.024724)
  13:       372.24   52.712227  (  6.532759  -2.413967   2.051352)
  14:       421.62    8.443152  (  2.277536  -1.727981   0.519674)
  15:       476.22    3.399203  ( -0.049437   1.158356  -1.433516)
  16:       507.77   18.271587  ( -0.451758   1.321278  -4.040016)
  17:       686.08   13.377356  (  1.646571  -3.131186   0.928350)
  18:       845.74   17.801936  (  3.180716  -1.904485   2.014427)
  19:       863.99    2.295707  ( -0.180449   0.646961  -1.358156)
  20:       921.10   10.916890  ( -2.741078  -0.775897   1.673728)
  21:       959.41    8.524454  ( -1.241959   2.203811   1.457809)
  22:       970.90   16.130547  (  3.865346   0.521090  -0.958182)
  23:       997.75   41.989437  (  2.265073  -5.329654   2.907518)
  24:      1015.61   50.843406  (  0.242736   0.490049   7.109454)
  25:      1038.10   18.379640  ( -2.122890   2.012659  -3.134036)
  26:      1054.01   71.635042  ( -6.128145  -0.084473   5.837272)
  27:      1099.39    4.698815  (  0.791913   1.934267   0.574716)
  28:      1162.38   24.700052  ( -3.249636  -1.537188  -3.431759)
  29:      1173.89   26.211783  ( -1.650145  -1.669349  -4.549954)
  30:      1259.68   34.198578  ( -1.319282  -0.683086  -5.656100)
  31:      1270.11   19.398511  (  0.684817   0.105735   4.349524)
  32:      1303.45    3.161232  ( -0.876794  -0.907912  -1.252262)
  33:      1328.24    1.597960  ( -0.087626   0.468775   1.170697)
  34:      1342.53   12.556809  (  2.067755  -1.143144  -2.640912)
  35:      1381.65    1.115860  (  0.792457   0.571990   0.400873)
  36:      1389.89   16.551022  (  0.250906  -1.197916   3.879828)
  37:      1435.30    4.461276  (  0.020298   2.106412   0.154568)
  38:      1450.80    6.681459  (  1.408946   1.119511   1.855539)
  39:      1465.70    7.458492  ( -0.176580   0.378164   2.698945)
  40:      1481.46  209.683247  ( -8.924323   2.965843 -11.011061)
  41:      1487.98   18.810319  (  3.735077   2.195541   0.197789)
  42:      1640.52   36.372666  (  2.668245  -4.613105  -2.823543)
  43:      1670.40   35.788627  (  4.588260   3.751087  -0.815992)
  44:      1724.59    3.019079  (  0.972697   1.287919   0.643586)
  45:      3007.05   17.401560  ( -1.815685   3.422487   1.546425)
  46:      3046.33   11.356436  (  1.968311   2.698819  -0.445606)
  47:      3099.61    5.396912  ( -0.617814   1.630591   1.535054)
  48:      3110.38    0.855679  (  0.324047   0.839494  -0.214295)
  49:      3151.78    6.884849  ( -1.378015   0.724806   2.112008)
  50:      3158.04    0.063374  (  0.172832   0.046004   0.177163)
  51:      3180.69    0.191145  (  0.222310  -0.212705  -0.310613)
  52:      3250.14    1.573260  (  0.936487  -0.089205  -0.829636)
  53:      3306.67  120.528065  (  8.388119   0.890651  -7.026683)
  54:      3477.61  114.675779  (-10.346528   2.710696   0.526550)
  55:      3532.12  102.269419  (  4.422150   8.778656   2.376807)
  56:      3844.32  100.011454  ( -8.715815  -3.673155   3.248685)

--------------------------
THERMOCHEMISTRY AT 298.15K
--------------------------

Temperature         ... 298.15 K
Pressure            ... 1.00 atm
Total Mass          ... 102.16 AMU

Throughout the following assumptions are being made:
  (1) The electronic state is orbitally nondegenerate
  (2) There are no thermally accessible electronically excited states
  (3) Hindered rotations indicated by low frequency modes) are not
      treated as such but are treated as vibrations and this may
      case some error
  (4) All equations used are the standard statistical mechanics
      equations for an ideal gas
  (5) All vibrations are strinctly harmonic

------------
INNER ENERGY
------------

The inner energy is: U= E(el) + E(ZPE) + E(vib) + E(rot) + E(trans)
    E(el)   - is the total energy from the electronic structure calculation
              = E(kin-el) + E(nuc-el) + E(el-el) + E(nuc-nuc)
    E(ZPE)  - the the zero temperature vibrational energy from the frequency calculation
    E(vib)  - the the finite temperature correction to E(ZPE) due to population
              of excietd vibrational states
    E(rot)  - is the rotational thermal energy
    E(trans)- is the translational thermal energy

Summary of contributions to the inner energy U:
Electronic energy                ...   -327.20950514 Eh
Zero point energy                ...      0.17482965 Eh     109.71 kcal/mol
Thermal vibrational correction   ...      0.00585695 Eh       3.68 kcal/mol
Thermal rotational correction    ...      0.00141627 Eh       0.89 kcal/mol
Thermal translational correction ...      0.00141627 Eh       0.89 kcal/mol
-----------------------------------------------------------------------
Total thermal energy                   -327.02598599 Eh

Summary of corrections to the electronic energy:
(perhaps to be used in another calculation)
Total thermal correction                  0.00868949 Eh       5.45 kcal/mol
Non-thermal (ZPE) correction              0.17482965 Eh     109.71 kcal/mol
-----------------------------------------------------------------------
Total correction                          0.18351915 Eh     115.16 kcal/mol

--------
ENTHALPY
--------

The enthalpy is H = U + kB*T
                kB is Boltzmann's constant
Total free energy                 ...   -327.02598599 Eh
Thermal Enthalpy correction       ...      0.00094421 Eh       0.59 kcal/mol
-----------------------------------------------------------------------
Total Enthalpy                    ...   -327.02504178 Eh

-------
ENTROPY
-------

The entropy contributions are T*S = T*(S(el)+S(vib)+S(rot)+S(trans)
     S(el)   - electronic entropy
     S(vib)  - vibrational entropy
     S(rot)  - rotational entropy
     S(trans)- translational entropy
The entropies will be listed as mutliplied by the temperature to get
units of energy

Electronic entropy                ...      0.00000000 Eh      0.00 kcal/mol
Vibrational entropy               ...      0.01082278 Eh      6.79 kcal/mol
Rotational entropy                ...      0.01223110 Eh      7.68 kcal/mol
Translational entropy             ...      0.01890147 Eh     11.86 kcal/mol
-----------------------------------------------------------------------
Final entropy term                ...      0.04195534 Eh     26.33 kcal/mol

CAUTION: The rotational entropy is not quite correctly treated here
         because it includes a symmetry number that is not yet correctly
         implemented in ORCA!
For a nonlinear molecule the correct rotational entropy is:
    S(rot) = R*(ln(qrot/sn)+1.5)
    R    = 8.31441 J/mol/K = 1.987191683e-3 kcal/mol/K
    qrot = 282887.2994289
    sn is the rotational symmetry number. We have assumed 3 here
       if it is different for your molecule then you should correct
       the printed rotational entropy by manually evaluating the equation
       as given above

For convenience we print out the resulting values for sn=1 - 12:
 sn= 1  qrot/sn=  282887.2994 T*S(rot)=     8.33 kcal/mol T*S(tot)=    26.98 kcal/mol
 sn= 2  qrot/sn=  141443.6497 T*S(rot)=     7.92 kcal/mol T*S(tot)=    26.57 kcal/mol
 sn= 3  qrot/sn=   94295.7665 T*S(rot)=     7.68 kcal/mol T*S(tot)=    26.33 kcal/mol
 sn= 4  qrot/sn=   70721.8249 T*S(rot)=     7.50 kcal/mol T*S(tot)=    26.16 kcal/mol
 sn= 5  qrot/sn=   56577.4599 T*S(rot)=     7.37 kcal/mol T*S(tot)=    26.02 kcal/mol
 sn= 6  qrot/sn=   47147.8832 T*S(rot)=     7.26 kcal/mol T*S(tot)=    25.92 kcal/mol
 sn= 7  qrot/sn=   40412.4713 T*S(rot)=     7.17 kcal/mol T*S(tot)=    25.83 kcal/mol
 sn= 8  qrot/sn=   35360.9124 T*S(rot)=     7.09 kcal/mol T*S(tot)=    25.75 kcal/mol
 sn= 9  qrot/sn=   31431.9222 T*S(rot)=     7.02 kcal/mol T*S(tot)=    25.68 kcal/mol
 sn=10  qrot/sn=   28288.7299 T*S(rot)=     6.96 kcal/mol T*S(tot)=    25.61 kcal/mol
 sn=11  qrot/sn=   25717.0272 T*S(rot)=     6.91 kcal/mol T*S(tot)=    25.56 kcal/mol
 sn=12  qrot/sn=   23573.9416 T*S(rot)=     6.85 kcal/mol T*S(tot)=    25.51 kcal/mol

-------------------
GIBBS FREE ENTHALPY
-------------------

The Gibbs free enthalpy is G = H - T*S

Total enthalpy                    ...   -327.02504178 Eh
Total entropy correction          ...     -0.04195534 Eh    -26.33 kcal/mol
-----------------------------------------------------------------------
Final Gibbs free enthalpy         ...   -327.06699713 Eh

For completeness - the Gibbs free enthalpy minus the electronic energy
G-E(el)                           ...      0.14250801 Eh     89.42 kcal/mol

                             ****ORCA TERMINATED NORMALLY****
TOTAL RUN TIME: 0 days 0 hours 40 minutes 46 seconds 477 msec
