                         Program Version 3.0.3 - RELEASE   -
|  1> ! NORI PBE0 def2-TZVP UseSym TightOPT Freq TightSCF Grid3 FinalGrid5 XYZFile
|  2> % pal
|  3>     nprocs 8
|  4> end
|  5> %method
|  6>     SymThresh 5.0e-2
|  7> end
|  8> % geom
|  9>     MaxIter 10
| 10> end
| 11> % maxcore 2000
| 12> % output
| 13>     printlevel mini
| 14>     print[ P_Basis ] 0
| 15>     print[ P_SCFInfo ] 1
| 16>     print[ P_SCFIterInfo ] 1
| 17>     print[ P_OrbEn ] 0
| 18>     print[ P_Cartesian ] 0
| 19> end
| 20> % elprop
| 21>     Dipole false
| 22> end
| 23> *xyz 1 1
| 24>  N        2.7116293635     0.8764329582    -1.1323760582
| 25>  C        2.4678198299    -0.0885378986    -0.0084947502
| 26>  C        3.0879933608    -1.4207945703    -0.3882481177
| 27>  O        2.6072409999    -1.6587324433    -1.6938046810
| 28>  C        4.6223395239    -1.4283721057    -0.3427448279
| 29>  C        5.1450814823    -0.9435495593     0.9209730574
| 30>  C        5.5445584362    -0.5259707459     1.9723844269
| 31>  H        2.0961817841     1.6882049675    -1.0852320119
| 32>  H        2.5387085458     0.3633166374    -2.0081060012
| 33>  H        3.6761891736     1.2113617905    -1.1415643076
| 34>  H        1.3873268249    -0.1889742195     0.0839402322
| 35>  H        2.8923125429     0.3186616401     0.9071894129
| 36>  H        2.7050426911    -2.1584534944     0.3252807112
| 37>  H        2.8305698244    -2.5442438365    -1.9956722065
| 38>  H        5.0225033584    -0.8372477296    -1.1754933868
| 39>  H        4.9678226602    -2.4523217122    -0.5200372881
| 40>  H        5.9264195981    -0.1777096784     2.9054257963
| 41> *
| 42>
| 43>                          ****END OF INPUT****
 Total Charge           Charge          ....    1
 Multiplicity           Mult            ....    1
 Number of Electrons    NEL             ....   54
FINAL SINGLE POINT ENERGY      -325.956806337063
FINAL SINGLE POINT ENERGY      -325.956807776985

CARTESIAN COORDINATES (ANGSTROEM)
---------------------------------
  N      2.021142    0.001096    0.405589
  C      0.911992   -0.979971    0.161257
  C     -0.365648   -0.397892    0.737285
  O     -0.000757   -0.001024    2.041822
  C     -0.932149    0.778332   -0.071175
  C     -1.079869    0.467609   -1.480708
  C     -1.177699    0.182741   -2.641944
  H      2.942715   -0.424834    0.308478
  H      1.902905    0.351148    1.366533
  H      1.970489    0.795672   -0.233931
  H      1.182618   -1.892660    0.690395
  H      0.833804   -1.168340   -0.908038
  H     -1.100701   -1.210117    0.751328
  H     -0.768215    0.267268    2.555840
  H     -0.295433    1.662184    0.061558
  H     -1.903288    1.053286    0.353605
  H     -1.294018   -0.050964   -3.676299

FINAL SINGLE POINT ENERGY      -325.956808516869
                    ***********************HURRAY********************
 Multiplicity           Mult            ....    1
 Number of Electrons    NEL             ....   54
 Basis Dimension        Dim             ....  277
FINAL SINGLE POINT ENERGY      -325.956808876537

VIBRATIONAL FREQUENCIES
-----------------------

   0:         0.00 cm**-1
   1:         0.00 cm**-1
   2:         0.00 cm**-1
   3:         0.00 cm**-1
   4:         0.00 cm**-1
   5:         0.00 cm**-1
   6:        39.22 cm**-1
   7:       145.94 cm**-1
   8:       149.05 cm**-1
   9:       222.61 cm**-1
  10:       271.08 cm**-1
  11:       288.90 cm**-1
  12:       350.98 cm**-1
  13:       360.84 cm**-1
  14:       404.62 cm**-1
  15:       524.81 cm**-1
  16:       614.66 cm**-1
  17:       718.57 cm**-1
  18:       733.00 cm**-1
  19:       815.45 cm**-1
  20:       851.28 cm**-1
  21:       929.54 cm**-1
  22:       990.40 cm**-1
  23:      1002.78 cm**-1
  24:      1034.45 cm**-1
  25:      1047.29 cm**-1
  26:      1128.60 cm**-1
  27:      1146.93 cm**-1
  28:      1223.58 cm**-1
  29:      1245.55 cm**-1
  30:      1306.30 cm**-1
  31:      1343.11 cm**-1
  32:      1382.80 cm**-1
  33:      1399.86 cm**-1
  34:      1432.72 cm**-1
  35:      1471.71 cm**-1
  36:      1484.21 cm**-1
  37:      1489.47 cm**-1
  38:      1647.14 cm**-1
  39:      1667.13 cm**-1
  40:      2245.09 cm**-1
  41:      3034.01 cm**-1
  42:      3066.30 cm**-1
  43:      3084.63 cm**-1
  44:      3119.83 cm**-1
  45:      3186.39 cm**-1
  46:      3359.27 cm**-1
  47:      3461.32 cm**-1
  48:      3481.26 cm**-1
  49:      3529.20 cm**-1
  50:      3859.57 cm**-1

IR SPECTRUM
-----------

 Mode    freq (cm**-1)   T**2         TX         TY         TZ
-------------------------------------------------------------------
   6:        39.22   10.217886  ( -1.642743   0.540150  -2.688405)
   7:       145.94   11.300078  ( -0.703223   1.786171  -2.759556)
   8:       149.05    2.237163  (  0.223451   1.153210  -0.925926)
   9:       222.61   17.789797  ( -0.823414   4.013429  -1.002084)
  10:       271.08   45.028094  (  5.883600   0.268943  -3.215433)
  11:       288.90  109.862460  (  0.430719   9.367607  -4.682401)
  12:       350.98   14.660881  ( -3.101263  -2.094422   0.810215)
  13:       360.84   15.782615  (  0.217150  -2.956795   2.644395)
  14:       404.62    5.847582  ( -0.303884   2.123251   1.116710)
  15:       524.81    7.438297  ( -1.485578   2.280999   0.168518)
  16:       614.66   15.033900  (  2.520836  -0.167511   2.941296)
  17:       718.57   42.753603  (  5.918754   2.267112  -1.606911)
  18:       733.00   40.098647  (  2.493795  -5.790266   0.593678)
  19:       815.45    4.291832  ( -1.452269   1.110380   0.974578)
  20:       851.28    5.889754  ( -0.060468  -2.211075   0.998622)
  21:       929.54    8.898411  ( -1.598714  -0.648764   2.433440)
  22:       990.40    6.523558  ( -1.540179   0.569656  -1.956246)
  23:      1002.78   10.424839  ( -2.802509   0.449351  -1.539113)
  24:      1034.45   36.335624  ( -0.816942   0.530023   5.948723)
  25:      1047.29   74.133878  ( -1.718602   3.710970   7.576872)
  26:      1128.60   30.445439  ( -3.557425  -0.303218  -4.206926)
  27:      1146.93   11.314693  (  1.258826   0.611129   3.058851)
  28:      1223.58   14.155528  ( -0.865100  -0.388091  -3.640950)
  29:      1245.55   46.328542  (  3.692636   0.006139   5.717775)
  30:      1306.30    0.430070  ( -0.436829   0.453277  -0.183824)
  31:      1343.11   14.065125  (  0.860381  -0.977164   3.517104)
  32:      1382.80   10.888377  (  1.367519  -1.014261   2.826578)
  33:      1399.86   14.400133  ( -0.905131   0.478888  -3.653975)
  34:      1432.72    6.375812  (  0.327235   1.662113  -1.872461)
  35:      1471.71   22.435743  (  4.627279   0.625417   0.795543)
  36:      1484.21   58.971158  (  1.993527   7.045853   2.313647)
  37:      1489.47  150.843974  (-11.026106  -4.790642  -2.513706)
  38:      1647.14   36.722542  ( -0.060093  -2.895426   5.323104)
  39:      1667.13   36.002186  ( -5.146792   2.919598   0.994318)
  40:      2245.09    0.967403  (  0.534888  -0.053726   0.823658)
  41:      3034.01   10.164859  ( -1.810234  -1.572176  -2.101470)
  42:      3066.30    5.783049  ( -0.923184  -1.637401  -1.499899)
  43:      3084.63    2.012457  ( -0.850787  -1.131553   0.090592)
  44:      3119.83    1.069734  ( -0.659565   0.661888  -0.443409)
  45:      3186.39    0.842217  (  0.474846  -0.306421   0.723080)
  46:      3359.27   78.692101  (  0.840108  -3.549251  -8.086355)
  47:      3461.32   94.014297  (  1.530118   1.779376   9.407808)
  48:      3481.26  100.271822  ( -6.019932  -1.953567   7.759885)
  49:      3529.20  115.854972  (  8.201177  -6.699823   1.925626)
  50:      3859.57  121.123921  ( -6.217994   2.619899   8.694630)

--------------------------
THERMOCHEMISTRY AT 298.15K
--------------------------

Temperature         ... 298.15 K
Pressure            ... 1.00 atm
Total Mass          ... 100.14 AMU

Throughout the following assumptions are being made:
  (1) The electronic state is orbitally nondegenerate
  (2) There are no thermally accessible electronically excited states
  (3) Hindered rotations indicated by low frequency modes) are not
      treated as such but are treated as vibrations and this may
      case some error
  (4) All equations used are the standard statistical mechanics
      equations for an ideal gas
  (5) All vibrations are strinctly harmonic

------------
INNER ENERGY
------------

The inner energy is: U= E(el) + E(ZPE) + E(vib) + E(rot) + E(trans)
    E(el)   - is the total energy from the electronic structure calculation
              = E(kin-el) + E(nuc-el) + E(el-el) + E(nuc-nuc)
    E(ZPE)  - the the zero temperature vibrational energy from the frequency calculation
    E(vib)  - the the finite temperature correction to E(ZPE) due to population
              of excietd vibrational states
    E(rot)  - is the rotational thermal energy
    E(trans)- is the translational thermal energy

Summary of contributions to the inner energy U:
Electronic energy                ...   -325.95680888 Eh
Zero point energy                ...      0.15102302 Eh      94.77 kcal/mol
Thermal vibrational correction   ...      0.00561013 Eh       3.52 kcal/mol
Thermal rotational correction    ...      0.00141627 Eh       0.89 kcal/mol
Thermal translational correction ...      0.00141627 Eh       0.89 kcal/mol
-----------------------------------------------------------------------
Total thermal energy                   -325.79734319 Eh

Summary of corrections to the electronic energy:
(perhaps to be used in another calculation)
Total thermal correction                  0.00844267 Eh       5.30 kcal/mol
Non-thermal (ZPE) correction              0.15102302 Eh      94.77 kcal/mol
-----------------------------------------------------------------------
Total correction                          0.15946569 Eh     100.07 kcal/mol

--------
ENTHALPY
--------

The enthalpy is H = U + kB*T
                kB is Boltzmann's constant
Total free energy                 ...   -325.79734319 Eh
Thermal Enthalpy correction       ...      0.00094421 Eh       0.59 kcal/mol
-----------------------------------------------------------------------
Total Enthalpy                    ...   -325.79639898 Eh

-------
ENTROPY
-------

The entropy contributions are T*S = T*(S(el)+S(vib)+S(rot)+S(trans)
     S(el)   - electronic entropy
     S(vib)  - vibrational entropy
     S(rot)  - rotational entropy
     S(trans)- translational entropy
The entropies will be listed as mutliplied by the temperature to get
units of energy

Electronic entropy                ...      0.00000000 Eh      0.00 kcal/mol
Vibrational entropy               ...      0.01030456 Eh      6.47 kcal/mol
Rotational entropy                ...      0.01218227 Eh      7.64 kcal/mol
Translational entropy             ...      0.01887324 Eh     11.84 kcal/mol
-----------------------------------------------------------------------
Final entropy term                ...      0.04136007 Eh     25.95 kcal/mol

CAUTION: The rotational entropy is not quite correctly treated here
         because it includes a symmetry number that is not yet correctly
         implemented in ORCA!
For a nonlinear molecule the correct rotational entropy is:
    S(rot) = R*(ln(qrot/sn)+1.5)
    R    = 8.31441 J/mol/K = 1.987191683e-3 kcal/mol/K
    qrot = 268629.1946994
    sn is the rotational symmetry number. We have assumed 3 here
       if it is different for your molecule then you should correct
       the printed rotational entropy by manually evaluating the equation
       as given above

For convenience we print out the resulting values for sn=1 - 12:
 sn= 1  qrot/sn=  268629.1947 T*S(rot)=     8.30 kcal/mol T*S(tot)=    26.60 kcal/mol
 sn= 2  qrot/sn=  134314.5973 T*S(rot)=     7.88 kcal/mol T*S(tot)=    26.19 kcal/mol
 sn= 3  qrot/sn=   89543.0649 T*S(rot)=     7.64 kcal/mol T*S(tot)=    25.95 kcal/mol
 sn= 4  qrot/sn=   67157.2987 T*S(rot)=     7.47 kcal/mol T*S(tot)=    25.78 kcal/mol
 sn= 5  qrot/sn=   53725.8389 T*S(rot)=     7.34 kcal/mol T*S(tot)=    25.65 kcal/mol
 sn= 6  qrot/sn=   44771.5324 T*S(rot)=     7.23 kcal/mol T*S(tot)=    25.54 kcal/mol
 sn= 7  qrot/sn=   38375.5992 T*S(rot)=     7.14 kcal/mol T*S(tot)=    25.45 kcal/mol
 sn= 8  qrot/sn=   33578.6493 T*S(rot)=     7.06 kcal/mol T*S(tot)=    25.37 kcal/mol
 sn= 9  qrot/sn=   29847.6883 T*S(rot)=     6.99 kcal/mol T*S(tot)=    25.30 kcal/mol
 sn=10  qrot/sn=   26862.9195 T*S(rot)=     6.93 kcal/mol T*S(tot)=    25.24 kcal/mol
 sn=11  qrot/sn=   24420.8359 T*S(rot)=     6.87 kcal/mol T*S(tot)=    25.18 kcal/mol
 sn=12  qrot/sn=   22385.7662 T*S(rot)=     6.82 kcal/mol T*S(tot)=    25.13 kcal/mol

-------------------
GIBBS FREE ENTHALPY
-------------------

The Gibbs free enthalpy is G = H - T*S

Total enthalpy                    ...   -325.79639898 Eh
Total entropy correction          ...     -0.04136007 Eh    -25.95 kcal/mol
-----------------------------------------------------------------------
Final Gibbs free enthalpy         ...   -325.83775904 Eh

For completeness - the Gibbs free enthalpy minus the electronic energy
G-E(el)                           ...      0.11904983 Eh     74.70 kcal/mol

                             ****ORCA TERMINATED NORMALLY****
TOTAL RUN TIME: 0 days 0 hours 36 minutes 19 seconds 537 msec
