                         Program Version 3.0.3 - RELEASE   -
|  1> ! NORI PBE0 def2-TZVP UseSym TightOPT Freq TightSCF Grid3 FinalGrid5 XYZFile
|  2> % pal
|  3>     nprocs 8
|  4> end
|  5> %method
|  6>     SymThresh 5.0e-2
|  7> end
|  8> % geom
|  9>     MaxIter 10
| 10> end
| 11> % maxcore 2000
| 12> % output
| 13>     printlevel mini
| 14>     print[ P_Basis ] 0
| 15>     print[ P_SCFInfo ] 1
| 16>     print[ P_SCFIterInfo ] 1
| 17>     print[ P_OrbEn ] 0
| 18>     print[ P_Cartesian ] 0
| 19> end
| 20> % elprop
| 21>     Dipole false
| 22> end
| 23> *xyz 1 1
| 24>  N        2.6472699191    -0.0184941051    -1.4801144251
| 25>  C        1.9589892631    -0.4730049712    -0.2260270479
| 26>  C        2.1979011637     0.5996676359     0.8152250858
| 27>  O        3.5688841437     0.8728630296     0.7461071350
| 28>  C        3.9976911550     1.9516321831     1.5679551923
| 29>  C        5.4606943314     2.1772401904     1.4236354556
| 30>  C        6.3118636057     1.3782222023     0.8006459287
| 31>  H        2.8442672194    -0.7822539595    -2.1262779971
| 32>  H        3.5299772170     0.4150843064    -1.1584455328
| 33>  H        2.1091108237     0.6924120353    -1.9776599192
| 34>  H        2.4352630858    -1.4082492326     0.0666226127
| 35>  H        0.9044434253    -0.6458452872    -0.4331999809
| 36>  H        1.8949424584     0.2207009122     1.7981583069
| 37>  H        1.6017469786     1.5002791291     0.6037819972
| 38>  H        3.7497943904     1.7280815616     2.6150049851
| 39>  H        3.4452729258     2.8610559753     1.2913838318
| 40>  H        5.8151971498     3.0876633247     1.8984806667
| 41>  H        5.9981833153     0.4489170288     0.3397417573
| 42>  H        7.3658274289     1.6205980411     0.7491719481
| 43> *
| 44>
| 45>                          ****END OF INPUT****
 Total Charge           Charge          ....    1
 Multiplicity           Mult            ....    1
 Number of Electrons    NEL             ....   56
FINAL SINGLE POINT ENERGY      -327.191650676279
FINAL SINGLE POINT ENERGY      -327.191652657569
FINAL SINGLE POINT ENERGY      -327.191654111589

CARTESIAN COORDINATES (ANGSTROEM)
---------------------------------
  N      1.939142    0.009956   -1.386654
  C      2.291794    0.203800    0.059083
  C      1.195894   -0.456680    0.868451
  O      0.000099   -0.003587    0.298678
  C     -1.173399   -0.591157    0.848211
  C     -2.393263   -0.064997    0.179767
  C     -2.439471    0.950543   -0.667345
  H      2.402282    0.677108   -2.003014
  H      0.912921    0.133674   -1.431210
  H      2.157426   -0.932725   -1.712371
  H      2.305134    1.279539    0.232613
  H      3.279099   -0.212755    0.251040
  H      1.297674   -0.161327    1.919205
  H      1.269291   -1.553439    0.818006
  H     -1.210980   -0.379267    1.925806
  H     -1.120452   -1.683220    0.734104
  H     -3.305127   -0.588650    0.453251
  H     -1.554894    1.513009   -0.942503
  H     -3.378037    1.269087   -1.102373

FINAL SINGLE POINT ENERGY      -327.191654452771
                    ***********************HURRAY********************
 Multiplicity           Mult            ....    1
 Number of Electrons    NEL             ....   56
 Basis Dimension        Dim             ....  289
FINAL SINGLE POINT ENERGY      -327.191654669540

VIBRATIONAL FREQUENCIES
-----------------------

   0:         0.00 cm**-1
   1:         0.00 cm**-1
   2:         0.00 cm**-1
   3:         0.00 cm**-1
   4:         0.00 cm**-1
   5:         0.00 cm**-1
   6:        53.68 cm**-1
   7:        78.01 cm**-1
   8:       127.30 cm**-1
   9:       175.40 cm**-1
  10:       204.86 cm**-1
  11:       253.49 cm**-1
  12:       296.78 cm**-1
  13:       361.67 cm**-1
  14:       502.94 cm**-1
  15:       571.05 cm**-1
  16:       609.12 cm**-1
  17:       822.35 cm**-1
  18:       892.18 cm**-1
  19:       945.39 cm**-1
  20:       961.75 cm**-1
  21:       965.57 cm**-1
  22:       987.59 cm**-1
  23:      1021.02 cm**-1
  24:      1027.08 cm**-1
  25:      1042.37 cm**-1
  26:      1085.30 cm**-1
  27:      1147.00 cm**-1
  28:      1187.63 cm**-1
  29:      1189.64 cm**-1
  30:      1269.05 cm**-1
  31:      1279.47 cm**-1
  32:      1320.82 cm**-1
  33:      1341.55 cm**-1
  34:      1376.72 cm**-1
  35:      1406.57 cm**-1
  36:      1435.20 cm**-1
  37:      1451.61 cm**-1
  38:      1474.15 cm**-1
  39:      1489.18 cm**-1
  40:      1495.42 cm**-1
  41:      1518.33 cm**-1
  42:      1641.04 cm**-1
  43:      1671.43 cm**-1
  44:      1734.85 cm**-1
  45:      3002.25 cm**-1
  46:      3006.06 cm**-1
  47:      3038.47 cm**-1
  48:      3070.20 cm**-1
  49:      3117.21 cm**-1
  50:      3170.02 cm**-1
  51:      3181.90 cm**-1
  52:      3182.54 cm**-1
  53:      3259.70 cm**-1
  54:      3283.48 cm**-1
  55:      3476.54 cm**-1
  56:      3533.46 cm**-1

IR SPECTRUM
-----------

 Mode    freq (cm**-1)   T**2         TX         TY         TZ
-------------------------------------------------------------------
   6:        53.68    4.768764  (  1.714894  -1.348695   0.094473)
   7:        78.01   10.193330  (  2.677278   1.617067   0.640788)
   8:       127.30    8.998982  (  2.533862  -1.157768  -1.112700)
   9:       175.40    3.614051  ( -0.043178  -1.859156  -0.394622)
  10:       204.86   24.421849  (  3.296633  -1.613285  -3.309285)
  11:       253.49    2.296677  (  0.921706   0.858330  -0.842855)
  12:       296.78    7.288722  (  2.275361   0.356282  -1.408729)
  13:       361.67   22.642359  ( -2.990539  -1.146961   3.519022)
  14:       502.94    7.526228  ( -1.481362  -1.056600   2.053142)
  15:       571.05   10.805787  ( -0.370539   2.232256   2.384433)
  16:       609.12    2.559583  ( -1.397794  -0.359974  -0.690053)
  17:       822.35   16.301410  ( -3.197275   0.449756   2.424162)
  18:       892.18    8.447937  (  2.002011   0.291631  -2.086825)
  19:       945.39    3.347652  ( -1.027023   1.513265  -0.053907)
  20:       961.75    4.593499  ( -0.072436  -2.099258   0.425872)
  21:       965.57   48.542291  (  0.647114  -4.441249  -5.329056)
  22:       987.59    1.611573  ( -0.517373   0.940545  -0.677697)
  23:      1021.02    2.596901  (  0.566784  -0.839944  -1.253057)
  24:      1027.08   31.331881  (  4.379067   1.308101  -3.231799)
  25:      1042.37   13.686580  (  0.800960   2.135916   2.912543)
  26:      1085.30   79.586063  ( -8.787139   1.538622   0.069974)
  27:      1147.00   68.402374  ( -5.267830  -3.760964   5.148542)
  28:      1187.63   36.739054  (  5.884178   1.351069  -0.538623)
  29:      1189.64  119.721384  ( 10.859012  -0.755523   1.110149)
  30:      1269.05    0.714004  (  0.164770   0.527977  -0.638824)
  31:      1279.47    6.121052  (  0.333547   2.031395   1.372309)
  32:      1320.82    4.546981  ( -2.061225   0.198373   0.508900)
  33:      1341.55   14.433885  ( -3.015921   2.247435  -0.535856)
  34:      1376.72   22.676512  ( -4.648168   0.694834  -0.766976)
  35:      1406.57    4.480502  (  1.856157  -0.767107  -0.668379)
  36:      1435.20    9.425118  ( -0.430594   0.299093  -3.024938)
  37:      1451.61   10.578372  (  0.365604  -2.597114  -1.923462)
  38:      1474.15  105.420171  (  0.394111  -0.710573 -10.235230)
  39:      1489.18   17.007589  ( -3.580983  -2.016669   0.342338)
  40:      1495.42   43.352913  (  2.214862  -1.853820   5.916980)
  41:      1518.33   23.979705  ( -0.302815  -2.186806   4.371028)
  42:      1641.04   30.513999  ( -2.569673   4.633040   1.563881)
  43:      1671.43   31.146458  ( -4.077216  -3.123135   2.183757)
  44:      1734.85    6.438000  (  0.625419  -1.670068   1.804917)
  45:      3002.25   11.774618  ( -3.070301   1.106004   1.060484)
  46:      3006.06   38.177423  ( -0.499445   5.576779  -2.612951)
  47:      3038.47   13.680442  ( -0.352636   2.573046   2.633538)
  48:      3070.20    6.572270  ( -1.071768  -1.258428  -1.959577)
  49:      3117.21    0.780923  ( -0.731180  -0.493567  -0.051868)
  50:      3170.02    6.493791  ( -2.000426  -1.290479   0.909258)
  51:      3181.90    0.017518  (  0.117536  -0.041003   0.044967)
  52:      3182.54    0.308015  (  0.551870   0.016456  -0.056429)
  53:      3259.70    7.702395  ( -2.537681  -0.838462   0.748031)
  54:      3283.48  194.310091  (-13.632860   0.342345   2.887564)
  55:      3476.54  119.341318  ( -7.604661   2.761099   7.340761)
  56:      3533.46  105.114995  (  2.963726   9.233868  -3.326711)

--------------------------
THERMOCHEMISTRY AT 298.15K
--------------------------

Temperature         ... 298.15 K
Pressure            ... 1.00 atm
Total Mass          ... 102.16 AMU

Throughout the following assumptions are being made:
  (1) The electronic state is orbitally nondegenerate
  (2) There are no thermally accessible electronically excited states
  (3) Hindered rotations indicated by low frequency modes) are not
      treated as such but are treated as vibrations and this may
      case some error
  (4) All equations used are the standard statistical mechanics
      equations for an ideal gas
  (5) All vibrations are strinctly harmonic

------------
INNER ENERGY
------------

The inner energy is: U= E(el) + E(ZPE) + E(vib) + E(rot) + E(trans)
    E(el)   - is the total energy from the electronic structure calculation
              = E(kin-el) + E(nuc-el) + E(el-el) + E(nuc-nuc)
    E(ZPE)  - the the zero temperature vibrational energy from the frequency calculation
    E(vib)  - the the finite temperature correction to E(ZPE) due to population
              of excietd vibrational states
    E(rot)  - is the rotational thermal energy
    E(trans)- is the translational thermal energy

Summary of contributions to the inner energy U:
Electronic energy                ...   -327.19165467 Eh
Zero point energy                ...      0.17481836 Eh     109.70 kcal/mol
Thermal vibrational correction   ...      0.00582692 Eh       3.66 kcal/mol
Thermal rotational correction    ...      0.00141627 Eh       0.89 kcal/mol
Thermal translational correction ...      0.00141627 Eh       0.89 kcal/mol
-----------------------------------------------------------------------
Total thermal energy                   -327.00817685 Eh

Summary of corrections to the electronic energy:
(perhaps to be used in another calculation)
Total thermal correction                  0.00865946 Eh       5.43 kcal/mol
Non-thermal (ZPE) correction              0.17481836 Eh     109.70 kcal/mol
-----------------------------------------------------------------------
Total correction                          0.18347782 Eh     115.13 kcal/mol

--------
ENTHALPY
--------

The enthalpy is H = U + kB*T
                kB is Boltzmann's constant
Total free energy                 ...   -327.00817685 Eh
Thermal Enthalpy correction       ...      0.00094421 Eh       0.59 kcal/mol
-----------------------------------------------------------------------
Total Enthalpy                    ...   -327.00723264 Eh

-------
ENTROPY
-------

The entropy contributions are T*S = T*(S(el)+S(vib)+S(rot)+S(trans)
     S(el)   - electronic entropy
     S(vib)  - vibrational entropy
     S(rot)  - rotational entropy
     S(trans)- translational entropy
The entropies will be listed as mutliplied by the temperature to get
units of energy

Electronic entropy                ...      0.00000000 Eh      0.00 kcal/mol
Vibrational entropy               ...      0.01110501 Eh      6.97 kcal/mol
Rotational entropy                ...      0.01230170 Eh      7.72 kcal/mol
Translational entropy             ...      0.01890147 Eh     11.86 kcal/mol
-----------------------------------------------------------------------
Final entropy term                ...      0.04230818 Eh     26.55 kcal/mol

CAUTION: The rotational entropy is not quite correctly treated here
         because it includes a symmetry number that is not yet correctly
         implemented in ORCA!
For a nonlinear molecule the correct rotational entropy is:
    S(rot) = R*(ln(qrot/sn)+1.5)
    R    = 8.31441 J/mol/K = 1.987191683e-3 kcal/mol/K
    qrot = 304851.5349937
    sn is the rotational symmetry number. We have assumed 3 here
       if it is different for your molecule then you should correct
       the printed rotational entropy by manually evaluating the equation
       as given above

For convenience we print out the resulting values for sn=1 - 12:
 sn= 1  qrot/sn=  304851.5350 T*S(rot)=     8.37 kcal/mol T*S(tot)=    27.20 kcal/mol
 sn= 2  qrot/sn=  152425.7675 T*S(rot)=     7.96 kcal/mol T*S(tot)=    26.79 kcal/mol
 sn= 3  qrot/sn=  101617.1783 T*S(rot)=     7.72 kcal/mol T*S(tot)=    26.55 kcal/mol
 sn= 4  qrot/sn=   76212.8837 T*S(rot)=     7.55 kcal/mol T*S(tot)=    26.38 kcal/mol
 sn= 5  qrot/sn=   60970.3070 T*S(rot)=     7.42 kcal/mol T*S(tot)=    26.25 kcal/mol
 sn= 6  qrot/sn=   50808.5892 T*S(rot)=     7.31 kcal/mol T*S(tot)=    26.14 kcal/mol
 sn= 7  qrot/sn=   43550.2193 T*S(rot)=     7.22 kcal/mol T*S(tot)=    26.05 kcal/mol
 sn= 8  qrot/sn=   38106.4419 T*S(rot)=     7.14 kcal/mol T*S(tot)=    25.97 kcal/mol
 sn= 9  qrot/sn=   33872.3928 T*S(rot)=     7.07 kcal/mol T*S(tot)=    25.90 kcal/mol
 sn=10  qrot/sn=   30485.1535 T*S(rot)=     7.01 kcal/mol T*S(tot)=    25.84 kcal/mol
 sn=11  qrot/sn=   27713.7759 T*S(rot)=     6.95 kcal/mol T*S(tot)=    25.78 kcal/mol
 sn=12  qrot/sn=   25404.2946 T*S(rot)=     6.90 kcal/mol T*S(tot)=    25.73 kcal/mol

-------------------
GIBBS FREE ENTHALPY
-------------------

The Gibbs free enthalpy is G = H - T*S

Total enthalpy                    ...   -327.00723264 Eh
Total entropy correction          ...     -0.04230818 Eh    -26.55 kcal/mol
-----------------------------------------------------------------------
Final Gibbs free enthalpy         ...   -327.04954082 Eh

For completeness - the Gibbs free enthalpy minus the electronic energy
G-E(el)                           ...      0.14211385 Eh     89.18 kcal/mol

                             ****ORCA TERMINATED NORMALLY****
TOTAL RUN TIME: 0 days 0 hours 41 minutes 23 seconds 139 msec
