                         Program Version 3.0.3 - RELEASE   -
|  1> ! NORI PBE0 def2-TZVP UseSym TightOPT Freq TightSCF Grid3 FinalGrid5 XYZFile
|  2> % pal
|  3>     nprocs 8
|  4> end
|  5> %method
|  6>     SymThresh 5.0e-2
|  7> end
|  8> % geom
|  9>     MaxIter 10
| 10> end
| 11> % maxcore 2000
| 12> % output
| 13>     printlevel mini
| 14>     print[ P_Basis ] 0
| 15>     print[ P_SCFInfo ] 1
| 16>     print[ P_SCFIterInfo ] 1
| 17>     print[ P_OrbEn ] 0
| 18>     print[ P_Cartesian ] 0
| 19> end
| 20> % elprop
| 21>     Dipole false
| 22> end
| 23> *xyz 1 1
| 24>  N        3.0009141675     0.9521291229     0.7378835935
| 25>  C        2.1801317971    -0.0346040898    -0.0387395137
| 26>  C        2.7056361323    -1.4149898006     0.2953340081
| 27>  O        4.0993322994    -1.2950768300     0.2102271500
| 28>  C        4.8183195238    -2.5058892545     0.4632563383
| 29>  C        6.2318307189    -2.2109970851     0.5396262402
| 30>  C        7.4077888173    -1.9917755070     0.6083922549
| 31>  H        2.9410465336     1.8980602367     0.3616928332
| 32>  H        3.9739171353     0.6080196282     0.6812789908
| 33>  H        2.7358288196     0.9809979947     1.7236197047
| 34>  H        1.1281962331     0.0957364506     0.2108116583
| 35>  H        2.3400979202     0.1941096021    -1.0924008202
| 36>  H        2.2999829786    -2.1345783831    -0.4253808289
| 37>  H        2.3940237682    -1.7319428324     1.3015064592
| 38>  H        4.6165787247    -3.2212260350    -0.3429560946
| 39>  H        4.4705209619    -2.9476780498     1.4060680970
| 40>  H        8.4560834687    -1.8050151679     0.6665799292
| 41> *
| 42>
| 43>                          ****END OF INPUT****
 Total Charge           Charge          ....    1
 Multiplicity           Mult            ....    1
 Number of Electrons    NEL             ....   54
FINAL SINGLE POINT ENERGY      -325.936038046930

CARTESIAN COORDINATES (ANGSTROEM)
---------------------------------
  N      2.294113   -0.000988   -0.843287
  C      2.263416   -0.311806    0.624279
  C      0.889114   -0.867056    0.934704
  O      0.000037    0.000066    0.285242
  C     -1.383032   -0.318968    0.466511
  C     -2.180897    0.519895   -0.399869
  C     -2.863634    1.202615   -1.109442
  H      3.039619    0.648003   -1.093998
  H      1.372949    0.416000   -1.057188
  H      2.396356   -0.842753   -1.412349
  H      3.069390   -1.003519    0.863457
  H      2.423172    0.633455    1.142254
  H      0.747129   -0.879072    2.021750
  H      0.778726   -1.898286    0.567693
  H     -1.656158   -0.158791    1.516310
  H     -1.548828   -1.377739    0.228700
  H     -3.478102    1.809550   -1.734823

FINAL SINGLE POINT ENERGY      -325.936038683156
                    ***********************HURRAY********************
 Multiplicity           Mult            ....    1
 Number of Electrons    NEL             ....   54
 Basis Dimension        Dim             ....  277
FINAL SINGLE POINT ENERGY      -325.936038877885

VIBRATIONAL FREQUENCIES
-----------------------

   0:         0.00 cm**-1
   1:         0.00 cm**-1
   2:         0.00 cm**-1
   3:         0.00 cm**-1
   4:         0.00 cm**-1
   5:         0.00 cm**-1
   6:        54.55 cm**-1
   7:        85.60 cm**-1
   8:       119.02 cm**-1
   9:       198.00 cm**-1
  10:       234.04 cm**-1
  11:       277.27 cm**-1
  12:       332.80 cm**-1
  13:       356.20 cm**-1
  14:       470.73 cm**-1
  15:       579.89 cm**-1
  16:       700.59 cm**-1
  17:       759.18 cm**-1
  18:       822.12 cm**-1
  19:       892.27 cm**-1
  20:       954.97 cm**-1
  21:       994.75 cm**-1
  22:      1006.73 cm**-1
  23:      1021.89 cm**-1
  24:      1039.21 cm**-1
  25:      1114.86 cm**-1
  26:      1171.56 cm**-1
  27:      1188.13 cm**-1
  28:      1257.61 cm**-1
  29:      1275.71 cm**-1
  30:      1343.02 cm**-1
  31:      1372.03 cm**-1
  32:      1404.65 cm**-1
  33:      1438.69 cm**-1
  34:      1481.08 cm**-1
  35:      1488.94 cm**-1
  36:      1491.77 cm**-1
  37:      1516.66 cm**-1
  38:      1640.18 cm**-1
  39:      1669.51 cm**-1
  40:      2256.82 cm**-1
  41:      3005.74 cm**-1
  42:      3024.28 cm**-1
  43:      3064.61 cm**-1
  44:      3070.34 cm**-1
  45:      3117.81 cm**-1
  46:      3182.65 cm**-1
  47:      3301.82 cm**-1
  48:      3467.14 cm**-1
  49:      3475.52 cm**-1
  50:      3531.74 cm**-1

IR SPECTRUM
-----------

 Mode    freq (cm**-1)   T**2         TX         TY         TZ
-------------------------------------------------------------------
   6:        54.55    5.157805  ( -1.825373   0.748167  -1.125197)
   7:        85.60    7.613598  ( -1.841676  -1.169817  -1.689188)
   8:       119.02    7.809440  ( -0.894946   2.390110   1.138370)
   9:       198.00   31.397668  (  4.717015  -1.465186  -2.645877)
  10:       234.04    6.651355  ( -2.256187  -1.202895   0.337667)
  11:       277.27    9.261156  (  2.939124   0.764285  -0.196407)
  12:       332.80    9.828556  (  0.038974  -2.275442  -2.156247)
  13:       356.20   18.956922  (  3.678715   0.991266  -2.107455)
  14:       470.73    1.992933  ( -1.145144  -0.504563   0.653448)
  15:       579.89    7.645582  (  1.638988   1.784072  -1.332811)
  16:       700.59   45.375865  (  0.205348  -4.634326  -4.884334)
  17:       759.18   31.476452  (  4.329484   2.698380  -2.334687)
  18:       822.12   26.046688  (  4.656891  -0.463782  -2.035919)
  19:       892.27    9.675524  (  2.791935   0.210615  -1.355089)
  20:       954.97    6.820997  ( -0.014121  -2.422376  -0.976161)
  21:       994.75   12.385900  (  1.152080   2.421391  -2.279359)
  22:      1006.73    4.483458  (  1.143530  -1.745488   0.359262)
  23:      1021.89    5.372220  (  0.956259   1.710197   1.238149)
  24:      1039.21   35.605861  (  5.400635   1.819188  -1.769057)
  25:      1114.86  214.715172  ( 14.648489  -0.218472   0.298692)
  26:      1171.56   96.473455  ( -8.091914   4.081923  -3.785801)
  27:      1188.13   35.200156  ( -4.886042   2.750943  -1.938831)
  28:      1257.61    4.132186  ( -1.106293   1.534498   0.744054)
  29:      1275.71    6.998892  ( -0.139329   2.121294   1.574672)
  30:      1343.02   14.309548  (  2.392490  -2.918787   0.257337)
  31:      1372.03   46.200100  ( -5.628302   2.897534  -2.475200)
  32:      1404.65    5.958054  ( -1.862154   1.515588  -0.439807)
  33:      1438.69    7.058988  (  1.795419  -0.634798  -1.852698)
  34:      1481.08  105.178797  ( -1.987243  -2.391709   9.772890)
  35:      1488.94   14.742387  (  3.107408   0.362379   2.226001)
  36:      1491.77   58.426739  ( -2.391168  -3.933361   6.102272)
  37:      1516.66   18.214280  ( -2.336273  -2.117092   2.876462)
  38:      1640.18   32.937257  ( -1.137105   5.125830   2.317350)
  39:      1669.51   37.403910  (  5.657313   2.315022  -0.198480)
  40:      2256.82   16.688225  ( -3.151248   1.872890  -1.802815)
  41:      3005.74   23.079987  ( -1.740883   4.477617  -0.016196)
  42:      3024.28   15.097445  (  1.646483   3.171793  -1.525211)
  43:      3064.61   10.426946  (  0.191136  -1.382786  -2.911755)
  44:      3070.34    2.772896  (  0.919510   0.023157   1.388114)
  45:      3117.81    0.694991  (  0.719625   0.233162   0.350380)
  46:      3182.65    0.191849  (  0.414512  -0.073675   0.120831)
  47:      3301.82  172.119781  ( 12.652117  -3.326387   0.989373)
  48:      3467.14   83.222812  (  5.750469  -5.128181   4.884330)
  49:      3475.52  116.721741  ( -8.526675   2.625514   6.092965)
  50:      3531.74  108.423591  ( -5.779749  -8.643077  -0.561524)

--------------------------
THERMOCHEMISTRY AT 298.15K
--------------------------

Temperature         ... 298.15 K
Pressure            ... 1.00 atm
Total Mass          ... 100.14 AMU

Throughout the following assumptions are being made:
  (1) The electronic state is orbitally nondegenerate
  (2) There are no thermally accessible electronically excited states
  (3) Hindered rotations indicated by low frequency modes) are not
      treated as such but are treated as vibrations and this may
      case some error
  (4) All equations used are the standard statistical mechanics
      equations for an ideal gas
  (5) All vibrations are strinctly harmonic

------------
INNER ENERGY
------------

The inner energy is: U= E(el) + E(ZPE) + E(vib) + E(rot) + E(trans)
    E(el)   - is the total energy from the electronic structure calculation
              = E(kin-el) + E(nuc-el) + E(el-el) + E(nuc-nuc)
    E(ZPE)  - the the zero temperature vibrational energy from the frequency calculation
    E(vib)  - the the finite temperature correction to E(ZPE) due to population
              of excietd vibrational states
    E(rot)  - is the rotational thermal energy
    E(trans)- is the translational thermal energy

Summary of contributions to the inner energy U:
Electronic energy                ...   -325.93603888 Eh
Zero point energy                ...      0.15093468 Eh      94.71 kcal/mol
Thermal vibrational correction   ...      0.00561926 Eh       3.53 kcal/mol
Thermal rotational correction    ...      0.00141627 Eh       0.89 kcal/mol
Thermal translational correction ...      0.00141627 Eh       0.89 kcal/mol
-----------------------------------------------------------------------
Total thermal energy                   -325.77665240 Eh

Summary of corrections to the electronic energy:
(perhaps to be used in another calculation)
Total thermal correction                  0.00845180 Eh       5.30 kcal/mol
Non-thermal (ZPE) correction              0.15093468 Eh      94.71 kcal/mol
-----------------------------------------------------------------------
Total correction                          0.15938648 Eh     100.02 kcal/mol

--------
ENTHALPY
--------

The enthalpy is H = U + kB*T
                kB is Boltzmann's constant
Total free energy                 ...   -325.77665240 Eh
Thermal Enthalpy correction       ...      0.00094421 Eh       0.59 kcal/mol
-----------------------------------------------------------------------
Total Enthalpy                    ...   -325.77570819 Eh

-------
ENTROPY
-------

The entropy contributions are T*S = T*(S(el)+S(vib)+S(rot)+S(trans)
     S(el)   - electronic entropy
     S(vib)  - vibrational entropy
     S(rot)  - rotational entropy
     S(trans)- translational entropy
The entropies will be listed as mutliplied by the temperature to get
units of energy

Electronic entropy                ...      0.00000000 Eh      0.00 kcal/mol
Vibrational entropy               ...      0.01062919 Eh      6.67 kcal/mol
Rotational entropy                ...      0.01230072 Eh      7.72 kcal/mol
Translational entropy             ...      0.01887324 Eh     11.84 kcal/mol
-----------------------------------------------------------------------
Final entropy term                ...      0.04180315 Eh     26.23 kcal/mol

CAUTION: The rotational entropy is not quite correctly treated here
         because it includes a symmetry number that is not yet correctly
         implemented in ORCA!
For a nonlinear molecule the correct rotational entropy is:
    S(rot) = R*(ln(qrot/sn)+1.5)
    R    = 8.31441 J/mol/K = 1.987191683e-3 kcal/mol/K
    qrot = 304535.2869892
    sn is the rotational symmetry number. We have assumed 3 here
       if it is different for your molecule then you should correct
       the printed rotational entropy by manually evaluating the equation
       as given above

For convenience we print out the resulting values for sn=1 - 12:
 sn= 1  qrot/sn=  304535.2870 T*S(rot)=     8.37 kcal/mol T*S(tot)=    26.88 kcal/mol
 sn= 2  qrot/sn=  152267.6435 T*S(rot)=     7.96 kcal/mol T*S(tot)=    26.47 kcal/mol
 sn= 3  qrot/sn=  101511.7623 T*S(rot)=     7.72 kcal/mol T*S(tot)=    26.23 kcal/mol
 sn= 4  qrot/sn=   76133.8217 T*S(rot)=     7.55 kcal/mol T*S(tot)=    26.06 kcal/mol
 sn= 5  qrot/sn=   60907.0574 T*S(rot)=     7.42 kcal/mol T*S(tot)=    25.93 kcal/mol
 sn= 6  qrot/sn=   50755.8812 T*S(rot)=     7.31 kcal/mol T*S(tot)=    25.82 kcal/mol
 sn= 7  qrot/sn=   43505.0410 T*S(rot)=     7.22 kcal/mol T*S(tot)=    25.73 kcal/mol
 sn= 8  qrot/sn=   38066.9109 T*S(rot)=     7.14 kcal/mol T*S(tot)=    25.65 kcal/mol
 sn= 9  qrot/sn=   33837.2541 T*S(rot)=     7.07 kcal/mol T*S(tot)=    25.58 kcal/mol
 sn=10  qrot/sn=   30453.5287 T*S(rot)=     7.01 kcal/mol T*S(tot)=    25.52 kcal/mol
 sn=11  qrot/sn=   27685.0261 T*S(rot)=     6.95 kcal/mol T*S(tot)=    25.46 kcal/mol
 sn=12  qrot/sn=   25377.9406 T*S(rot)=     6.90 kcal/mol T*S(tot)=    25.41 kcal/mol

-------------------
GIBBS FREE ENTHALPY
-------------------

The Gibbs free enthalpy is G = H - T*S

Total enthalpy                    ...   -325.77570819 Eh
Total entropy correction          ...     -0.04180315 Eh    -26.23 kcal/mol
-----------------------------------------------------------------------
Final Gibbs free enthalpy         ...   -325.81751134 Eh

For completeness - the Gibbs free enthalpy minus the electronic energy
G-E(el)                           ...      0.11852754 Eh     74.38 kcal/mol

                             ****ORCA TERMINATED NORMALLY****
TOTAL RUN TIME: 0 days 0 hours 30 minutes 31 seconds 389 msec
