                         Program Version 3.0.3 - RELEASE   -
|  1> ! NORI PBE0 def2-TZVP UseSym TightOPT Freq TightSCF Grid3 FinalGrid5 XYZFile
|  2> % pal
|  3>     nprocs 8
|  4> end
|  5> %method
|  6>     SymThresh 5.0e-2
|  7> end
|  8> % geom
|  9>     MaxIter 10
| 10> end
| 11> % maxcore 2000
| 12> % output
| 13>     printlevel mini
| 14>     print[ P_Basis ] 0
| 15>     print[ P_SCFInfo ] 1
| 16>     print[ P_SCFIterInfo ] 1
| 17>     print[ P_OrbEn ] 0
| 18>     print[ P_Cartesian ] 0
| 19> end
| 20> % elprop
| 21>     Dipole false
| 22> end
| 23> *xyz 1 1
| 24>  N        1.8968413896    -0.9207359563    -1.0593011648
| 25>  C        1.6651469733    -0.5019935864     0.3555800911
| 26>  C        2.3756192538    -1.4847342116     1.2779036087
| 27>  O        3.6378853800    -1.8273865748     0.7812727437
| 28>  C        4.6695102293    -0.8664870930     0.9503799799
| 29>  C        5.4264740789    -0.7478335417    -0.3420982867
| 30>  O        4.5168114286    -0.2669790538    -1.3407974070
| 31>  H        1.3502288700    -0.3590003213    -1.7102024333
| 32>  H        1.6549544289    -1.9019247317    -1.2014286222
| 33>  H        2.9242099792    -0.7958156264    -1.2769816025
| 34>  H        0.5931003967    -0.4757522227     0.5534485887
| 35>  H        2.0607159288     0.5104717787     0.4412385695
| 36>  H        2.4140929310    -1.0613735943     2.2878763314
| 37>  H        1.8099388140    -2.4188283065     1.3360696628
| 38>  H        4.2598118741     0.1100606268     1.2326691804
| 39>  H        5.3482279387    -1.1912303726     1.7452437738
| 40>  H        6.2553078211    -0.0453485917    -0.2187603184
| 41>  H        5.8226663633    -1.7238980196    -0.6365259643
| 42>  H        4.9923359208    -0.1161906009    -2.1630167307
| 43> *
| 44>
| 45>                          ****END OF INPUT****
 Total Charge           Charge          ....    1
 Multiplicity           Mult            ....    1
 Number of Electrons    NEL             ....   58
FINAL SINGLE POINT ENERGY      -364.333315265070
FINAL SINGLE POINT ENERGY      -364.333306006088
FINAL SINGLE POINT ENERGY      -364.333315912523
FINAL SINGLE POINT ENERGY      -364.333315922020

CARTESIAN COORDINATES (ANGSTROEM)
---------------------------------
  N     -0.913043   -1.373976   -0.945544
  C     -1.799932   -0.302198   -0.402186
  C     -1.392591   -0.015607    1.037708
  O     -0.000576   -0.000794    1.178619
  C      0.671928    1.162751    0.720258
  C      1.875091    0.736890   -0.072526
  O      1.411926   -0.000477   -1.211695
  H     -1.217211   -1.678484   -1.869238
  H     -0.892386   -2.187819   -0.330420
  H      0.068125   -0.985700   -1.018142
  H     -2.838812   -0.627430   -0.464110
  H     -1.665194    0.561859   -1.053540
  H     -1.864966    0.918143    1.363196
  H     -1.754653   -0.811414    1.694593
  H      0.015412    1.780995    0.097462
  H      0.990813    1.764538    1.577173
  H      2.431788    1.620185   -0.397468
  H      2.525689    0.107100    0.541378
  H      2.158742   -0.225207   -1.774477

FINAL SINGLE POINT ENERGY      -364.333316197548
                    ***********************HURRAY********************
 Multiplicity           Mult            ....    1
 Number of Electrons    NEL             ....   58
 Basis Dimension        Dim             ....  289
FINAL SINGLE POINT ENERGY      -364.333316241156

VIBRATIONAL FREQUENCIES
-----------------------

   0:         0.00 cm**-1
   1:         0.00 cm**-1
   2:         0.00 cm**-1
   3:         0.00 cm**-1
   4:         0.00 cm**-1
   5:         0.00 cm**-1
   6:        84.34 cm**-1
   7:       163.94 cm**-1
   8:       191.86 cm**-1
   9:       245.00 cm**-1
  10:       267.26 cm**-1
  11:       326.23 cm**-1
  12:       330.61 cm**-1
  13:       369.78 cm**-1
  14:       400.60 cm**-1
  15:       507.61 cm**-1
  16:       571.88 cm**-1
  17:       810.12 cm**-1
  18:       872.85 cm**-1
  19:       886.90 cm**-1
  20:       897.42 cm**-1
  21:       975.62 cm**-1
  22:      1012.55 cm**-1
  23:      1040.54 cm**-1
  24:      1090.34 cm**-1
  25:      1113.14 cm**-1
  26:      1134.36 cm**-1
  27:      1183.32 cm**-1
  28:      1206.77 cm**-1
  29:      1245.83 cm**-1
  30:      1273.37 cm**-1
  31:      1316.26 cm**-1
  32:      1325.07 cm**-1
  33:      1343.51 cm**-1
  34:      1387.51 cm**-1
  35:      1411.10 cm**-1
  36:      1419.56 cm**-1
  37:      1458.69 cm**-1
  38:      1488.30 cm**-1
  39:      1493.97 cm**-1
  40:      1498.77 cm**-1
  41:      1504.39 cm**-1
  42:      1565.84 cm**-1
  43:      1657.58 cm**-1
  44:      1674.55 cm**-1
  45:      2856.27 cm**-1
  46:      3041.79 cm**-1
  47:      3052.12 cm**-1
  48:      3060.27 cm**-1
  49:      3096.33 cm**-1
  50:      3100.01 cm**-1
  51:      3109.14 cm**-1
  52:      3117.34 cm**-1
  53:      3162.07 cm**-1
  54:      3473.73 cm**-1
  55:      3539.19 cm**-1
  56:      3859.10 cm**-1

IR SPECTRUM
-----------

 Mode    freq (cm**-1)   T**2         TX         TY         TZ
-------------------------------------------------------------------
   6:        84.34    2.471436  (  1.457533  -0.587341   0.045435)
   7:       163.94    7.075907  ( -0.284949   0.522379  -2.592649)
   8:       191.86   12.965130  (  3.475485  -0.275305  -0.900189)
   9:       245.00   11.103841  ( -0.751171   0.898533   3.119651)
  10:       267.26   38.860054  (  5.008113   3.700595  -0.290612)
  11:       326.23   26.377594  ( -2.960589  -4.144531  -0.659825)
  12:       330.61   91.298689  ( -2.298928   6.548831  -6.567072)
  13:       369.78   34.527888  (  0.073223   4.626407  -3.622000)
  14:       400.60    1.901066  (  0.246359  -1.252642  -0.520827)
  15:       507.61   11.041277  (  0.417981  -1.271336  -3.041426)
  16:       571.88    5.491240  ( -1.634363   1.390798   0.941158)
  17:       810.12   14.265248  ( -1.340303  -3.064777   1.753847)
  18:       872.85    6.378840  ( -0.593207   1.013869   2.235848)
  19:       886.90   25.490574  ( -0.711588  -2.382871  -4.393875)
  20:       897.42    2.670556  (  0.418584  -1.475130   0.565096)
  21:       975.62   13.588702  (  2.344836   1.706124  -2.275871)
  22:      1012.55   13.869790  (  2.573651  -1.227144   2.395877)
  23:      1040.54    9.862038  ( -0.587476   3.068791  -0.315328)
  24:      1090.34   37.838301  (  0.266021   4.382881   4.307886)
  25:      1113.14   25.913188  ( -4.466003  -2.393214   0.490440)
  26:      1134.36   51.366044  (  5.876183   2.818861   2.981700)
  27:      1183.32  109.462414  (  9.436888   4.415538   0.954250)
  28:      1206.77   36.890299  ( -5.040868  -2.944078  -1.677008)
  29:      1245.83   15.616538  (  1.009656  -0.070651  -3.819966)
  30:      1273.37   15.982658  (  3.840766   0.317693   1.063129)
  31:      1316.26    7.015619  ( -0.062852  -2.250160   1.395868)
  32:      1325.07   30.819175  ( -3.148719  -2.961239  -3.483649)
  33:      1343.51   31.716146  ( -5.235364  -1.949318   0.712230)
  34:      1387.51    2.350176  (  1.380075   0.125986   0.655513)
  35:      1411.10    0.352136  (  0.581242  -0.030138   0.115694)
  36:      1419.56    6.095389  ( -2.440955  -0.367498   0.045521)
  37:      1458.69    1.896384  (  0.348560   1.317780  -0.195822)
  38:      1488.30    8.489902  (  0.561014  -0.359034  -2.836593)
  39:      1493.97    5.769705  ( -0.924519   0.011034   2.216946)
  40:      1498.77   10.115913  ( -2.620481   1.800143   0.092071)
  41:      1504.39   15.271761  ( -2.978850   1.909085  -1.659400)
  42:      1565.84  127.631602  (  1.111795 -10.240592  -4.639590)
  43:      1657.58    7.371418  ( -1.373242  -1.295834  -1.951010)
  44:      1674.55   34.616955  ( -1.777519  -1.788822   5.315778)
  45:      2856.27  1021.071419  (-28.784110 -13.840652   0.991347)
  46:      3041.79   14.424285  ( -0.810830  -3.477453   1.293895)
  47:      3052.12   18.571900  ( -3.941174   1.042308   1.397370)
  48:      3060.27    6.767155  ( -1.718658  -0.370463  -1.917323)
  49:      3096.33   19.244558  ( -3.236722  -2.124662  -2.062523)
  50:      3100.01    0.397538  ( -0.151893  -0.611475  -0.023769)
  51:      3109.14    5.213117  ( -0.011600   2.099940  -0.896234)
  52:      3117.34   11.376493  ( -0.723960   2.691052  -1.900162)
  53:      3162.07    1.109594  ( -0.669133  -0.638528   0.504120)
  54:      3473.73   69.338807  (  2.987773   7.658829   1.324520)
  55:      3539.19   81.218598  ( -2.282765   1.378729  -8.608524)
  56:      3859.10  105.827621  ( -6.886492   2.865340   7.084749)

--------------------------
THERMOCHEMISTRY AT 298.15K
--------------------------

Temperature         ... 298.15 K
Pressure            ... 1.00 atm
Total Mass          ... 106.14 AMU

Throughout the following assumptions are being made:
  (1) The electronic state is orbitally nondegenerate
  (2) There are no thermally accessible electronically excited states
  (3) Hindered rotations indicated by low frequency modes) are not
      treated as such but are treated as vibrations and this may
      case some error
  (4) All equations used are the standard statistical mechanics
      equations for an ideal gas
  (5) All vibrations are strinctly harmonic

------------
INNER ENERGY
------------

The inner energy is: U= E(el) + E(ZPE) + E(vib) + E(rot) + E(trans)
    E(el)   - is the total energy from the electronic structure calculation
              = E(kin-el) + E(nuc-el) + E(el-el) + E(nuc-nuc)
    E(ZPE)  - the the zero temperature vibrational energy from the frequency calculation
    E(vib)  - the the finite temperature correction to E(ZPE) due to population
              of excietd vibrational states
    E(rot)  - is the rotational thermal energy
    E(trans)- is the translational thermal energy

Summary of contributions to the inner energy U:
Electronic energy                ...   -364.33331624 Eh
Zero point energy                ...      0.17590799 Eh     110.38 kcal/mol
Thermal vibrational correction   ...      0.00530146 Eh       3.33 kcal/mol
Thermal rotational correction    ...      0.00141627 Eh       0.89 kcal/mol
Thermal translational correction ...      0.00141627 Eh       0.89 kcal/mol
-----------------------------------------------------------------------
Total thermal energy                   -364.14927424 Eh

Summary of corrections to the electronic energy:
(perhaps to be used in another calculation)
Total thermal correction                  0.00813401 Eh       5.10 kcal/mol
Non-thermal (ZPE) correction              0.17590799 Eh     110.38 kcal/mol
-----------------------------------------------------------------------
Total correction                          0.18404200 Eh     115.49 kcal/mol

--------
ENTHALPY
--------

The enthalpy is H = U + kB*T
                kB is Boltzmann's constant
Total free energy                 ...   -364.14927424 Eh
Thermal Enthalpy correction       ...      0.00094421 Eh       0.59 kcal/mol
-----------------------------------------------------------------------
Total Enthalpy                    ...   -364.14833003 Eh

-------
ENTROPY
-------

The entropy contributions are T*S = T*(S(el)+S(vib)+S(rot)+S(trans)
     S(el)   - electronic entropy
     S(vib)  - vibrational entropy
     S(rot)  - rotational entropy
     S(trans)- translational entropy
The entropies will be listed as mutliplied by the temperature to get
units of energy

Electronic entropy                ...      0.00000000 Eh      0.00 kcal/mol
Vibrational entropy               ...      0.00905045 Eh      5.68 kcal/mol
Rotational entropy                ...      0.01214053 Eh      7.62 kcal/mol
Translational entropy             ...      0.01895570 Eh     11.89 kcal/mol
-----------------------------------------------------------------------
Final entropy term                ...      0.04014668 Eh     25.19 kcal/mol

CAUTION: The rotational entropy is not quite correctly treated here
         because it includes a symmetry number that is not yet correctly
         implemented in ORCA!
For a nonlinear molecule the correct rotational entropy is:
    S(rot) = R*(ln(qrot/sn)+1.5)
    R    = 8.31441 J/mol/K = 1.987191683e-3 kcal/mol/K
    qrot = 257011.0502276
    sn is the rotational symmetry number. We have assumed 3 here
       if it is different for your molecule then you should correct
       the printed rotational entropy by manually evaluating the equation
       as given above

For convenience we print out the resulting values for sn=1 - 12:
 sn= 1  qrot/sn=  257011.0502 T*S(rot)=     8.27 kcal/mol T*S(tot)=    25.84 kcal/mol
 sn= 2  qrot/sn=  128505.5251 T*S(rot)=     7.86 kcal/mol T*S(tot)=    25.43 kcal/mol
 sn= 3  qrot/sn=   85670.3501 T*S(rot)=     7.62 kcal/mol T*S(tot)=    25.19 kcal/mol
 sn= 4  qrot/sn=   64252.7626 T*S(rot)=     7.45 kcal/mol T*S(tot)=    25.02 kcal/mol
 sn= 5  qrot/sn=   51402.2100 T*S(rot)=     7.32 kcal/mol T*S(tot)=    24.89 kcal/mol
 sn= 6  qrot/sn=   42835.1750 T*S(rot)=     7.21 kcal/mol T*S(tot)=    24.78 kcal/mol
 sn= 7  qrot/sn=   36715.8643 T*S(rot)=     7.12 kcal/mol T*S(tot)=    24.69 kcal/mol
 sn= 8  qrot/sn=   32126.3813 T*S(rot)=     7.04 kcal/mol T*S(tot)=    24.61 kcal/mol
 sn= 9  qrot/sn=   28556.7834 T*S(rot)=     6.97 kcal/mol T*S(tot)=    24.54 kcal/mol
 sn=10  qrot/sn=   25701.1050 T*S(rot)=     6.90 kcal/mol T*S(tot)=    24.48 kcal/mol
 sn=11  qrot/sn=   23364.6409 T*S(rot)=     6.85 kcal/mol T*S(tot)=    24.42 kcal/mol
 sn=12  qrot/sn=   21417.5875 T*S(rot)=     6.80 kcal/mol T*S(tot)=    24.37 kcal/mol

-------------------
GIBBS FREE ENTHALPY
-------------------

The Gibbs free enthalpy is G = H - T*S

Total enthalpy                    ...   -364.14833003 Eh
Total entropy correction          ...     -0.04014668 Eh    -25.19 kcal/mol
-----------------------------------------------------------------------
Final Gibbs free enthalpy         ...   -364.18847671 Eh

For completeness - the Gibbs free enthalpy minus the electronic energy
G-E(el)                           ...      0.14483953 Eh     90.89 kcal/mol

                             ****ORCA TERMINATED NORMALLY****
TOTAL RUN TIME: 0 days 0 hours 43 minutes 41 seconds 445 msec
