                         Program Version 3.0.3 - RELEASE   -
|  1> ! NORI PBE0 def2-TZVP UseSym TightOPT Freq TightSCF Grid3 FinalGrid5 XYZFile
|  2> % pal
|  3>     nprocs 8
|  4> end
|  5> %method
|  6>     SymThresh 5.0e-2
|  7> end
|  8> % geom
|  9>     MaxIter 10
| 10> end
| 11> % maxcore 2000
| 12> % output
| 13>     printlevel mini
| 14>     print[ P_Basis ] 0
| 15>     print[ P_SCFInfo ] 1
| 16>     print[ P_SCFIterInfo ] 1
| 17>     print[ P_OrbEn ] 0
| 18>     print[ P_Cartesian ] 0
| 19> end
| 20> % elprop
| 21>     Dipole false
| 22> end
| 23> *xyz 1 1
| 24>  N        2.1865184993    -0.7842860676    -1.0349809629
| 25>  C        2.6180884615     0.4252553211    -0.2346697959
| 26>  C        2.5174452814     1.6033734718    -1.1871715073
| 27>  O        3.1223425409     1.1743466825    -2.3871760827
| 28>  C        1.7954407718     0.5723134007     1.0248257882
| 29>  C        2.0211173144    -0.5294219554     2.0587447017
| 30>  O        1.0960804716    -0.4479811353     3.1012300301
| 31>  H        2.5672143876    -0.6499269620    -1.9846538788
| 32>  H        1.1680510249    -0.8408584148    -1.0985069466
| 33>  H        2.5294481310    -1.6602145437    -0.6433358694
| 34>  H        3.6732344926     0.2444006501    -0.0109010767
| 35>  H        1.4670210472     1.8839551780    -1.3412687836
| 36>  H        3.0390340492     2.4547055880    -0.7398280940
| 37>  H        3.1028382184     1.8671394173    -3.0536383536
| 38>  H        0.7281274973     0.6132021497     0.7768610531
| 39>  H        2.0418256469     1.5422038908     1.4684330070
| 40>  H        3.0585069312    -0.5009348438     2.4166888778
| 41>  H        1.8713559463    -1.5184284927     1.6065003661
| 42>  H        1.4212892866     0.1349466654     3.7920675276
| 43> *
| 44>
| 45>                          ****END OF INPUT****
 Total Charge           Charge          ....    1
 Multiplicity           Mult            ....    1
 Number of Electrons    NEL             ....   58
FINAL SINGLE POINT ENERGY      -364.331514223045
FINAL SINGLE POINT ENERGY      -364.331516058535
FINAL SINGLE POINT ENERGY      -364.331518016814
FINAL SINGLE POINT ENERGY      -364.331518709826

CARTESIAN COORDINATES (ANGSTROEM)
---------------------------------
  N     -1.319617   -0.538372    0.742177
  C     -0.046459    0.256292    0.547327
  C      0.836418   -0.086488    1.734252
  O     -0.000538   -0.004423    2.866259
  C      0.578845   -0.030289   -0.798545
  C     -0.227444    0.479662   -1.992030
  O      0.288922    0.000813   -3.197923
  H     -1.515420   -0.522587    1.755158
  H     -1.196988   -1.510204    0.450623
  H     -2.109940   -0.150232    0.229329
  H     -0.358471    1.300940    0.635134
  H      1.264261   -1.091289    1.618751
  H      1.657986    0.635164    1.771817
  H      0.486141   -0.189106    3.674611
  H      0.744105   -1.107658   -0.917731
  H      1.570896    0.431463   -0.806749
  H     -0.283211    1.575539   -1.966777
  H     -1.260083    0.110475   -1.945555
  H      0.979812    0.585150   -3.520725

FINAL SINGLE POINT ENERGY      -364.331519385288
                    ***********************HURRAY********************
 Multiplicity           Mult            ....    1
 Number of Electrons    NEL             ....   58
 Basis Dimension        Dim             ....  289
FINAL SINGLE POINT ENERGY      -364.331519570456

VIBRATIONAL FREQUENCIES
-----------------------

   0:         0.00 cm**-1
   1:         0.00 cm**-1
   2:         0.00 cm**-1
   3:         0.00 cm**-1
   4:         0.00 cm**-1
   5:         0.00 cm**-1
   6:        78.40 cm**-1
   7:        84.54 cm**-1
   8:       128.82 cm**-1
   9:       172.94 cm**-1
  10:       190.76 cm**-1
  11:       234.84 cm**-1
  12:       301.07 cm**-1
  13:       304.67 cm**-1
  14:       356.33 cm**-1
  15:       377.63 cm**-1
  16:       456.96 cm**-1
  17:       581.53 cm**-1
  18:       760.44 cm**-1
  19:       828.96 cm**-1
  20:       942.77 cm**-1
  21:       974.84 cm**-1
  22:       976.44 cm**-1
  23:      1039.60 cm**-1
  24:      1073.21 cm**-1
  25:      1107.93 cm**-1
  26:      1111.69 cm**-1
  27:      1138.56 cm**-1
  28:      1177.69 cm**-1
  29:      1222.59 cm**-1
  30:      1230.41 cm**-1
  31:      1265.00 cm**-1
  32:      1303.97 cm**-1
  33:      1323.21 cm**-1
  34:      1376.38 cm**-1
  35:      1400.24 cm**-1
  36:      1413.31 cm**-1
  37:      1430.48 cm**-1
  38:      1444.32 cm**-1
  39:      1471.06 cm**-1
  40:      1480.42 cm**-1
  41:      1501.04 cm**-1
  42:      1514.81 cm**-1
  43:      1640.88 cm**-1
  44:      1662.86 cm**-1
  45:      3013.07 cm**-1
  46:      3025.09 cm**-1
  47:      3045.85 cm**-1
  48:      3052.58 cm**-1
  49:      3087.11 cm**-1
  50:      3096.47 cm**-1
  51:      3107.97 cm**-1
  52:      3319.39 cm**-1
  53:      3470.26 cm**-1
  54:      3534.93 cm**-1
  55:      3866.86 cm**-1
  56:      3869.04 cm**-1

IR SPECTRUM
-----------

 Mode    freq (cm**-1)   T**2         TX         TY         TZ
-------------------------------------------------------------------
   6:        78.40   10.436042  ( -2.023366  -0.685283   2.423308)
   7:        84.54   10.529357  ( -1.425341   2.808348  -0.781630)
   8:       128.82    3.984814  (  1.257528  -1.153121  -1.036219)
   9:       172.94   84.234714  (  5.922763  -2.961771   6.354802)
  10:       190.76   58.869240  (  2.831752  -6.620183   2.650209)
  11:       234.84   14.155979  ( -0.297610  -3.660901   0.815607)
  12:       301.07  104.426172  (  0.941455  10.165645   0.446659)
  13:       304.67   41.395865  ( -2.215452  -2.771048  -5.367395)
  14:       356.33    1.488482  ( -0.882644   0.538409  -0.647717)
  15:       377.63   15.604675  ( -0.324378   0.590333  -3.892423)
  16:       456.96    6.740527  ( -2.564404  -0.381469  -0.137263)
  17:       581.53   11.649224  (  1.494903   0.829070  -2.954172)
  18:       760.44    1.830757  (  0.245926   1.313070  -0.214767)
  19:       828.96    0.911161  (  0.622087   0.285553   0.665303)
  20:       942.77   36.732449  ( -1.309474   1.330589  -5.766044)
  21:       974.84   12.589333  ( -0.982757   0.924186   3.281677)
  22:       976.44   23.424680  ( -0.272681  -1.696534  -4.524610)
  23:      1039.60   11.906124  (  1.249042  -1.575749  -2.804110)
  24:      1073.21   96.760672  ( -6.276661   0.380471   7.564353)
  25:      1107.93  107.293116  ( -1.743125   1.348949  10.121016)
  26:      1111.69   10.858801  (  1.966236   0.924478  -2.477510)
  27:      1138.56   36.236008  (  1.395290  -0.681986  -5.815846)
  28:      1177.69   11.127585  ( -2.878805   1.092427   1.283226)
  29:      1222.59   25.173540  ( -2.623693   1.488660   4.009198)
  30:      1230.41   14.509739  ( -2.150609  -1.046559  -2.964681)
  31:      1265.00   23.481227  (  1.880621  -2.551980  -3.664954)
  32:      1303.97    8.966393  ( -1.646709   0.619432   2.423025)
  33:      1323.21    5.403662  (  0.155134  -1.235594  -1.962881)
  34:      1376.38    1.353746  (  0.027581  -1.157893   0.110766)
  35:      1400.24   10.634241  ( -0.238014   2.076056   2.503513)
  36:      1413.31    7.555713  ( -2.374314   1.071591   0.877517)
  37:      1430.48   37.247725  ( -3.257776  -0.625478   5.122831)
  38:      1444.32   40.865094  (  6.025764   2.131443   0.110545)
  39:      1471.06   52.869725  ( -7.008722  -1.666282   0.985413)
  40:      1480.42  117.497617  (  9.144750   5.802057  -0.455298)
  41:      1501.04    1.298708  (  0.632181  -0.886562   0.336247)
  42:      1514.81    8.831796  (  2.287706  -0.582555   1.805223)
  43:      1640.88   37.461295  ( -2.756941   4.659855   2.854176)
  44:      1662.86   38.429130  ( -3.074246   3.439134  -4.141316)
  45:      3013.07   44.841696  ( -5.679646   1.988096   2.937822)
  46:      3025.09   16.431524  (  2.293772  -2.466030  -2.255843)
  47:      3045.85    7.179795  (  2.630413   0.486754   0.154244)
  48:      3052.58   21.970540  ( -1.206486  -4.452397   0.831318)
  49:      3087.11    4.339963  (  1.811366   0.396655  -0.949517)
  50:      3096.47    1.096834  (  0.882477  -0.558699   0.076964)
  51:      3107.97   11.988606  ( -1.257805  -3.206650   0.352034)
  52:      3319.39  140.587658  ( -0.910045  -0.303856  11.818086)
  53:      3470.26   84.144539  (  3.154140   5.231421   6.843111)
  54:      3534.93   88.441058  ( -6.574826   5.765708  -3.459672)
  55:      3866.86  154.274604  (  2.787722  -1.960494  11.944023)
  56:      3869.04   67.964195  ( -5.821254  -3.361795   4.772371)

--------------------------
THERMOCHEMISTRY AT 298.15K
--------------------------

Temperature         ... 298.15 K
Pressure            ... 1.00 atm
Total Mass          ... 106.14 AMU

Throughout the following assumptions are being made:
  (1) The electronic state is orbitally nondegenerate
  (2) There are no thermally accessible electronically excited states
  (3) Hindered rotations indicated by low frequency modes) are not
      treated as such but are treated as vibrations and this may
      case some error
  (4) All equations used are the standard statistical mechanics
      equations for an ideal gas
  (5) All vibrations are strinctly harmonic

------------
INNER ENERGY
------------

The inner energy is: U= E(el) + E(ZPE) + E(vib) + E(rot) + E(trans)
    E(el)   - is the total energy from the electronic structure calculation
              = E(kin-el) + E(nuc-el) + E(el-el) + E(nuc-nuc)
    E(ZPE)  - the the zero temperature vibrational energy from the frequency calculation
    E(vib)  - the the finite temperature correction to E(ZPE) due to population
              of excietd vibrational states
    E(rot)  - is the rotational thermal energy
    E(trans)- is the translational thermal energy

Summary of contributions to the inner energy U:
Electronic energy                ...   -364.33151957 Eh
Zero point energy                ...      0.17443976 Eh     109.46 kcal/mol
Thermal vibrational correction   ...      0.00641837 Eh       4.03 kcal/mol
Thermal rotational correction    ...      0.00141627 Eh       0.89 kcal/mol
Thermal translational correction ...      0.00141627 Eh       0.89 kcal/mol
-----------------------------------------------------------------------
Total thermal energy                   -364.14782890 Eh

Summary of corrections to the electronic energy:
(perhaps to be used in another calculation)
Total thermal correction                  0.00925091 Eh       5.81 kcal/mol
Non-thermal (ZPE) correction              0.17443976 Eh     109.46 kcal/mol
-----------------------------------------------------------------------
Total correction                          0.18369067 Eh     115.27 kcal/mol

--------
ENTHALPY
--------

The enthalpy is H = U + kB*T
                kB is Boltzmann's constant
Total free energy                 ...   -364.14782890 Eh
Thermal Enthalpy correction       ...      0.00094421 Eh       0.59 kcal/mol
-----------------------------------------------------------------------
Total Enthalpy                    ...   -364.14688469 Eh

-------
ENTROPY
-------

The entropy contributions are T*S = T*(S(el)+S(vib)+S(rot)+S(trans)
     S(el)   - electronic entropy
     S(vib)  - vibrational entropy
     S(rot)  - rotational entropy
     S(trans)- translational entropy
The entropies will be listed as mutliplied by the temperature to get
units of energy

Electronic entropy                ...      0.00000000 Eh      0.00 kcal/mol
Vibrational entropy               ...      0.01178892 Eh      7.40 kcal/mol
Rotational entropy                ...      0.01233368 Eh      7.74 kcal/mol
Translational entropy             ...      0.01895570 Eh     11.89 kcal/mol
-----------------------------------------------------------------------
Final entropy term                ...      0.04307830 Eh     27.03 kcal/mol

CAUTION: The rotational entropy is not quite correctly treated here
         because it includes a symmetry number that is not yet correctly
         implemented in ORCA!
For a nonlinear molecule the correct rotational entropy is:
    S(rot) = R*(ln(qrot/sn)+1.5)
    R    = 8.31441 J/mol/K = 1.987191683e-3 kcal/mol/K
    qrot = 315352.7482357
    sn is the rotational symmetry number. We have assumed 3 here
       if it is different for your molecule then you should correct
       the printed rotational entropy by manually evaluating the equation
       as given above

For convenience we print out the resulting values for sn=1 - 12:
 sn= 1  qrot/sn=  315352.7482 T*S(rot)=     8.39 kcal/mol T*S(tot)=    27.68 kcal/mol
 sn= 2  qrot/sn=  157676.3741 T*S(rot)=     7.98 kcal/mol T*S(tot)=    27.27 kcal/mol
 sn= 3  qrot/sn=  105117.5827 T*S(rot)=     7.74 kcal/mol T*S(tot)=    27.03 kcal/mol
 sn= 4  qrot/sn=   78838.1871 T*S(rot)=     7.57 kcal/mol T*S(tot)=    26.86 kcal/mol
 sn= 5  qrot/sn=   63070.5496 T*S(rot)=     7.44 kcal/mol T*S(tot)=    26.73 kcal/mol
 sn= 6  qrot/sn=   52558.7914 T*S(rot)=     7.33 kcal/mol T*S(tot)=    26.62 kcal/mol
 sn= 7  qrot/sn=   45050.3926 T*S(rot)=     7.24 kcal/mol T*S(tot)=    26.53 kcal/mol
 sn= 8  qrot/sn=   39419.0935 T*S(rot)=     7.16 kcal/mol T*S(tot)=    26.45 kcal/mol
 sn= 9  qrot/sn=   35039.1942 T*S(rot)=     7.09 kcal/mol T*S(tot)=    26.38 kcal/mol
 sn=10  qrot/sn=   31535.2748 T*S(rot)=     7.03 kcal/mol T*S(tot)=    26.32 kcal/mol
 sn=11  qrot/sn=   28668.4317 T*S(rot)=     6.97 kcal/mol T*S(tot)=    26.26 kcal/mol
 sn=12  qrot/sn=   26279.3957 T*S(rot)=     6.92 kcal/mol T*S(tot)=    26.21 kcal/mol

-------------------
GIBBS FREE ENTHALPY
-------------------

The Gibbs free enthalpy is G = H - T*S

Total enthalpy                    ...   -364.14688469 Eh
Total entropy correction          ...     -0.04307830 Eh    -27.03 kcal/mol
-----------------------------------------------------------------------
Final Gibbs free enthalpy         ...   -364.18996299 Eh

For completeness - the Gibbs free enthalpy minus the electronic energy
G-E(el)                           ...      0.14155658 Eh     88.83 kcal/mol

                             ****ORCA TERMINATED NORMALLY****
TOTAL RUN TIME: 0 days 0 hours 41 minutes 30 seconds 325 msec
