                         Program Version 3.0.3 - RELEASE   -
|  1> ! NORI PBE0 def2-TZVP UseSym TightOPT Freq TightSCF Grid3 FinalGrid5 XYZFile
|  2> % pal
|  3>     nprocs 8
|  4> end
|  5> %method
|  6>     SymThresh 5.0e-2
|  7> end
|  8> % geom
|  9>     MaxIter 10
| 10> end
| 11> % maxcore 2000
| 12> % output
| 13>     printlevel mini
| 14>     print[ P_Basis ] 0
| 15>     print[ P_SCFInfo ] 1
| 16>     print[ P_SCFIterInfo ] 1
| 17>     print[ P_OrbEn ] 0
| 18>     print[ P_Cartesian ] 0
| 19> end
| 20> % elprop
| 21>     Dipole false
| 22> end
| 23> *xyz 1 1
| 24>  N        1.0594245781     0.5429400801    -0.0199859716
| 25>  C        2.5482039906     0.7070203184    -0.0644496662
| 26>  C        3.0773277816     0.2374616351     1.2840379608
| 27>  O        2.3167323782    -0.9183011972     1.5682522658
| 28>  C        4.5709233354    -0.0331504092     1.2374423289
| 29>  C        5.1199732932    -0.4699205941     2.5809039716
| 30>  O        4.4255423978    -1.6505857165     2.9637353025
| 31>  H        0.6345247049     0.4877732578    -0.9442595402
| 32>  H        0.6041205852     1.2931316945     0.5009387679
| 33>  H        0.9157324581    -0.3424643062     0.5017714379
| 34>  H        2.7926179155     1.7427620146    -0.2939313843
| 35>  H        2.9076368764     0.0550582175    -0.8611927250
| 36>  H        2.8742112757     1.0119072232     2.0418232932
| 37>  H        2.8201905894    -1.4560785132     2.2106818918
| 38>  H        5.0999956202     0.8721470193     0.9232849299
| 39>  H        4.7704022319    -0.8116120764     0.4935373086
| 40>  H        4.9750204177     0.3211747040     3.3272937030
| 41>  H        6.1931065608    -0.6649532032     2.4930788256
| 42>  H        4.7398430093    -1.9621001485     3.8165272998
| 43> *
| 44>
| 45>                          ****END OF INPUT****
 Total Charge           Charge          ....    1
 Multiplicity           Mult            ....    1
 Number of Electrons    NEL             ....   58
FINAL SINGLE POINT ENERGY      -364.346351671779
FINAL SINGLE POINT ENERGY      -364.346352538088
FINAL SINGLE POINT ENERGY      -364.346352820225

CARTESIAN COORDINATES (ANGSTROEM)
---------------------------------
  N     -2.496520    0.061030    1.113709
  C     -1.851176   -0.286946   -0.193177
  C     -0.439457    0.281216   -0.146554
  O      0.000775    0.002412    1.166164
  C      0.448841   -0.337159   -1.212131
  C      1.850399    0.239491   -1.200456
  O      2.401276   -0.001064    0.088680
  H     -3.286954   -0.539706    1.342637
  H     -2.809277    1.032020    1.142747
  H     -1.737534   -0.052023    1.811950
  H     -2.453713    0.104623   -1.011143
  H     -1.820258   -1.375856   -0.242505
  H     -0.483369    1.371763   -0.301163
  H      0.978172    0.012311    1.160055
  H      0.011099   -0.168301   -2.200821
  H      0.500673   -1.418705   -1.050147
  H      1.822111    1.315520   -1.412629
  H      2.453301   -0.245335   -1.974108
  H      3.292591    0.353654    0.143440

FINAL SINGLE POINT ENERGY      -364.346352972215
                    ***********************HURRAY********************
 Multiplicity           Mult            ....    1
 Number of Electrons    NEL             ....   58
 Basis Dimension        Dim             ....  289
FINAL SINGLE POINT ENERGY      -364.346353024495

VIBRATIONAL FREQUENCIES
-----------------------

   0:         0.00 cm**-1
   1:         0.00 cm**-1
   2:         0.00 cm**-1
   3:         0.00 cm**-1
   4:         0.00 cm**-1
   5:         0.00 cm**-1
   6:        64.66 cm**-1
   7:       123.50 cm**-1
   8:       179.85 cm**-1
   9:       233.72 cm**-1
  10:       261.89 cm**-1
  11:       313.76 cm**-1
  12:       321.14 cm**-1
  13:       396.88 cm**-1
  14:       460.15 cm**-1
  15:       484.14 cm**-1
  16:       554.45 cm**-1
  17:       638.69 cm**-1
  18:       839.23 cm**-1
  19:       871.31 cm**-1
  20:       906.40 cm**-1
  21:       942.99 cm**-1
  22:       969.88 cm**-1
  23:       997.00 cm**-1
  24:      1061.23 cm**-1
  25:      1080.92 cm**-1
  26:      1111.30 cm**-1
  27:      1152.73 cm**-1
  28:      1183.13 cm**-1
  29:      1220.80 cm**-1
  30:      1258.13 cm**-1
  31:      1308.30 cm**-1
  32:      1328.13 cm**-1
  33:      1337.17 cm**-1
  34:      1361.65 cm**-1
  35:      1377.74 cm**-1
  36:      1403.20 cm**-1
  37:      1442.15 cm**-1
  38:      1454.21 cm**-1
  39:      1463.16 cm**-1
  40:      1487.14 cm**-1
  41:      1489.80 cm**-1
  42:      1518.96 cm**-1
  43:      1638.50 cm**-1
  44:      1666.86 cm**-1
  45:      2980.60 cm**-1
  46:      3029.44 cm**-1
  47:      3057.35 cm**-1
  48:      3087.60 cm**-1
  49:      3107.98 cm**-1
  50:      3111.60 cm**-1
  51:      3177.04 cm**-1
  52:      3242.02 cm**-1
  53:      3479.99 cm**-1
  54:      3540.50 cm**-1
  55:      3548.12 cm**-1
  56:      3870.24 cm**-1

IR SPECTRUM
-----------

 Mode    freq (cm**-1)   T**2         TX         TY         TZ
-------------------------------------------------------------------
   6:        64.66    5.623498  ( -0.621548   2.281321  -0.180973)
   7:       123.50   13.235639  ( -1.960061   3.052224  -0.278794)
   8:       179.85   27.804267  ( -4.967253  -1.655080  -0.625599)
   9:       233.72   10.445819  ( -1.290494   2.644714   1.336389)
  10:       261.89    0.849851  (  0.564447   0.719698   0.115264)
  11:       313.76  110.494311  ( -5.456032   8.830164   1.659584)
  12:       321.14    8.528694  (  2.718775  -0.155811  -1.054837)
  13:       396.88   23.760523  ( -4.453754  -1.897248  -0.570130)
  14:       460.15    6.102032  (  0.475350   0.429722  -2.385668)
  15:       484.14    8.884234  (  0.968433   0.018036   2.818873)
  16:       554.45   10.122975  (  1.738759  -1.756268  -2.003801)
  17:       638.69  103.735448  (  1.882625  -9.747196  -2.276697)
  18:       839.23   12.597691  (  2.835331   0.266127  -2.118435)
  19:       871.31   18.939915  (  2.418554  -0.107180   3.616493)
  20:       906.40    6.310511  (  0.254655   2.222598   1.142681)
  21:       942.99    4.821252  (  1.065316   0.120887  -1.916178)
  22:       969.88   15.130880  ( -3.816510   0.289152  -0.693920)
  23:       997.00    4.535208  ( -0.741969   1.886887   0.651420)
  24:      1061.23   46.007919  ( -3.641542   1.280243  -5.577461)
  25:      1080.92   60.379103  (  6.831695   1.485276   3.391313)
  26:      1111.30   53.256049  (  2.235992  -0.757724   6.905233)
  27:      1152.73    3.486008  ( -1.105619  -0.935463   1.178356)
  28:      1183.13   13.643099  ( -1.972228  -0.520315   3.079397)
  29:      1220.80   66.128994  ( -1.915017   1.899632  -7.671577)
  30:      1258.13    8.150859  ( -0.895873   1.603933  -2.185331)
  31:      1308.30   19.403057  ( -2.267217   1.477950  -3.475406)
  32:      1328.13   26.056646  (  0.422421   0.147896  -5.084912)
  33:      1337.17    5.473727  (  2.155612  -0.805348  -0.422468)
  34:      1361.65   47.054156  ( -0.462499  -0.949608   6.777794)
  35:      1377.74    2.677694  ( -1.521592  -0.442826  -0.407867)
  36:      1403.20    4.207681  ( -0.113632   0.531206   1.978027)
  37:      1442.15    2.027465  (  0.593784   1.003959  -0.816671)
  38:      1454.21    7.482847  ( -1.112934  -2.194146  -1.195804)
  39:      1463.16   35.735598  (  3.867630  -1.247087  -4.384269)
  40:      1487.14  253.209014  ( -9.545656   0.194131  12.729956)
  41:      1489.80   16.260319  ( -1.234515  -2.370687  -3.019294)
  42:      1518.96   16.848369  ( -2.930807  -1.107556   2.651802)
  43:      1638.50   32.151025  (  1.851881  -5.107940   1.621884)
  44:      1666.86   36.754485  ( -5.156917  -3.154078  -0.460967)
  45:      2980.60   28.159148  (  1.634707  -4.811387   1.528868)
  46:      3029.44   30.489214  ( -0.863648  -3.834011   3.878619)
  47:      3057.35    4.786990  (  1.494812   1.597633   0.009844)
  48:      3087.60   18.344916  (  1.606228  -2.792592  -2.822477)
  49:      3107.98    2.045856  ( -0.849348  -0.913257  -0.700303)
  50:      3111.60    9.057990  (  0.615060  -2.591607   1.401165)
  51:      3177.04    2.183678  ( -1.159565   0.560697  -0.724366)
  52:      3242.02  197.599745  ( 12.928485  -0.743300   5.468229)
  53:      3479.99  132.399373  ( 10.841117  -3.486036  -1.648369)
  54:      3540.50  148.736799  ( -8.395391  -8.623143   1.973733)
  55:      3548.12  451.316752  (-21.119358   0.964935   2.087675)
  56:      3870.24   94.145388  ( -9.037497  -2.595417  -2.394335)

--------------------------
THERMOCHEMISTRY AT 298.15K
--------------------------

Temperature         ... 298.15 K
Pressure            ... 1.00 atm
Total Mass          ... 106.14 AMU

Throughout the following assumptions are being made:
  (1) The electronic state is orbitally nondegenerate
  (2) There are no thermally accessible electronically excited states
  (3) Hindered rotations indicated by low frequency modes) are not
      treated as such but are treated as vibrations and this may
      case some error
  (4) All equations used are the standard statistical mechanics
      equations for an ideal gas
  (5) All vibrations are strinctly harmonic

------------
INNER ENERGY
------------

The inner energy is: U= E(el) + E(ZPE) + E(vib) + E(rot) + E(trans)
    E(el)   - is the total energy from the electronic structure calculation
              = E(kin-el) + E(nuc-el) + E(el-el) + E(nuc-nuc)
    E(ZPE)  - the the zero temperature vibrational energy from the frequency calculation
    E(vib)  - the the finite temperature correction to E(ZPE) due to population
              of excietd vibrational states
    E(rot)  - is the rotational thermal energy
    E(trans)- is the translational thermal energy

Summary of contributions to the inner energy U:
Electronic energy                ...   -364.34635302 Eh
Zero point energy                ...      0.17573187 Eh     110.27 kcal/mol
Thermal vibrational correction   ...      0.00554068 Eh       3.48 kcal/mol
Thermal rotational correction    ...      0.00141627 Eh       0.89 kcal/mol
Thermal translational correction ...      0.00141627 Eh       0.89 kcal/mol
-----------------------------------------------------------------------
Total thermal energy                   -364.16224794 Eh

Summary of corrections to the electronic energy:
(perhaps to be used in another calculation)
Total thermal correction                  0.00837322 Eh       5.25 kcal/mol
Non-thermal (ZPE) correction              0.17573187 Eh     110.27 kcal/mol
-----------------------------------------------------------------------
Total correction                          0.18410509 Eh     115.53 kcal/mol

--------
ENTHALPY
--------

The enthalpy is H = U + kB*T
                kB is Boltzmann's constant
Total free energy                 ...   -364.16224794 Eh
Thermal Enthalpy correction       ...      0.00094421 Eh       0.59 kcal/mol
-----------------------------------------------------------------------
Total Enthalpy                    ...   -364.16130373 Eh

-------
ENTROPY
-------

The entropy contributions are T*S = T*(S(el)+S(vib)+S(rot)+S(trans)
     S(el)   - electronic entropy
     S(vib)  - vibrational entropy
     S(rot)  - rotational entropy
     S(trans)- translational entropy
The entropies will be listed as mutliplied by the temperature to get
units of energy

Electronic entropy                ...      0.00000000 Eh      0.00 kcal/mol
Vibrational entropy               ...      0.00977306 Eh      6.13 kcal/mol
Rotational entropy                ...      0.01218908 Eh      7.65 kcal/mol
Translational entropy             ...      0.01895570 Eh     11.89 kcal/mol
-----------------------------------------------------------------------
Final entropy term                ...      0.04091784 Eh     25.68 kcal/mol

CAUTION: The rotational entropy is not quite correctly treated here
         because it includes a symmetry number that is not yet correctly
         implemented in ORCA!
For a nonlinear molecule the correct rotational entropy is:
    S(rot) = R*(ln(qrot/sn)+1.5)
    R    = 8.31441 J/mol/K = 1.987191683e-3 kcal/mol/K
    qrot = 270572.7101254
    sn is the rotational symmetry number. We have assumed 3 here
       if it is different for your molecule then you should correct
       the printed rotational entropy by manually evaluating the equation
       as given above

For convenience we print out the resulting values for sn=1 - 12:
 sn= 1  qrot/sn=  270572.7101 T*S(rot)=     8.30 kcal/mol T*S(tot)=    26.33 kcal/mol
 sn= 2  qrot/sn=  135286.3551 T*S(rot)=     7.89 kcal/mol T*S(tot)=    25.92 kcal/mol
 sn= 3  qrot/sn=   90190.9034 T*S(rot)=     7.65 kcal/mol T*S(tot)=    25.68 kcal/mol
 sn= 4  qrot/sn=   67643.1775 T*S(rot)=     7.48 kcal/mol T*S(tot)=    25.51 kcal/mol
 sn= 5  qrot/sn=   54114.5420 T*S(rot)=     7.35 kcal/mol T*S(tot)=    25.37 kcal/mol
 sn= 6  qrot/sn=   45095.4517 T*S(rot)=     7.24 kcal/mol T*S(tot)=    25.27 kcal/mol
 sn= 7  qrot/sn=   38653.2443 T*S(rot)=     7.15 kcal/mol T*S(tot)=    25.17 kcal/mol
 sn= 8  qrot/sn=   33821.5888 T*S(rot)=     7.07 kcal/mol T*S(tot)=    25.10 kcal/mol
 sn= 9  qrot/sn=   30063.6345 T*S(rot)=     7.00 kcal/mol T*S(tot)=    25.03 kcal/mol
 sn=10  qrot/sn=   27057.2710 T*S(rot)=     6.94 kcal/mol T*S(tot)=    24.96 kcal/mol
 sn=11  qrot/sn=   24597.5191 T*S(rot)=     6.88 kcal/mol T*S(tot)=    24.91 kcal/mol
 sn=12  qrot/sn=   22547.7258 T*S(rot)=     6.83 kcal/mol T*S(tot)=    24.85 kcal/mol

-------------------
GIBBS FREE ENTHALPY
-------------------

The Gibbs free enthalpy is G = H - T*S

Total enthalpy                    ...   -364.16130373 Eh
Total entropy correction          ...     -0.04091784 Eh    -25.68 kcal/mol
-----------------------------------------------------------------------
Final Gibbs free enthalpy         ...   -364.20222157 Eh

For completeness - the Gibbs free enthalpy minus the electronic energy
G-E(el)                           ...      0.14413146 Eh     90.44 kcal/mol

                             ****ORCA TERMINATED NORMALLY****
TOTAL RUN TIME: 0 days 0 hours 43 minutes 24 seconds 196 msec
