                         Program Version 3.0.3 - RELEASE   -
|  1> ! NORI PBE0 def2-TZVP UseSym TightOPT Freq TightSCF Grid3 FinalGrid5 XYZFile
|  2> % pal
|  3>     nprocs 8
|  4> end
|  5> %method
|  6>     SymThresh 5.0e-2
|  7> end
|  8> % geom
|  9>     MaxIter 10
| 10> end
| 11> % maxcore 2000
| 12> % output
| 13>     printlevel mini
| 14>     print[ P_Basis ] 0
| 15>     print[ P_SCFInfo ] 1
| 16>     print[ P_SCFIterInfo ] 1
| 17>     print[ P_OrbEn ] 0
| 18>     print[ P_Cartesian ] 0
| 19> end
| 20> % elprop
| 21>     Dipole false
| 22> end
| 23> *xyz 1 1
| 24>  N        1.4786012923     0.7708554935     0.8810323618
| 25>  C        2.8061152736     0.1587473139     0.5914633191
| 26>  C        3.3149653626     0.8980056509    -0.6392616464
| 27>  O        2.6421274547     1.7723608714    -1.1307558962
| 28>  O        4.4806449788     0.4613724399    -1.0192660835
| 29>  C        5.0969436041     1.0421625399    -2.1411782843
| 30>  C        6.2668302211     0.5786005728    -2.5203148876
| 31>  H        0.7076274554     0.1072541465     0.8131545846
| 32>  H        1.3806956576     1.4978735523     0.1291569571
| 33>  H        1.4349620393     1.2196965921     1.7953385685
| 34>  H        3.4807418249     0.2941578506     1.4362297293
| 35>  H        2.7003243710    -0.9076722027     0.3947968353
| 36>  H        4.5286694905     1.8400431999    -2.5973762147
| 37>  H        6.7633860251    -0.2302088435    -1.9994660772
| 38>  H        6.7517249490     1.0173608225    -3.3813332658
| 39> *
| 40>
| 41>                          ****END OF INPUT****
 Total Charge           Charge          ....    1
 Multiplicity           Mult            ....    1
 Number of Electrons    NEL             ....   54
FINAL SINGLE POINT ENERGY      -361.908871741639

CARTESIAN COORDINATES (ANGSTROEM)
---------------------------------
  N     -2.511306   -0.009978    1.115561
  C     -1.751019   -0.012600   -0.166098
  C     -0.286145   -0.003069    0.251547
  O     -0.000308   -0.000330    1.425009
  O      0.511077    0.000742   -0.777169
  C      1.900753    0.006426   -0.566137
  C      2.691400    0.022236   -1.615943
  H     -3.095556    0.817123    1.233620
  H     -1.753524   -0.008934    1.842928
  H     -3.097038   -0.835620    1.236249
  H     -1.986780   -0.903199   -0.747351
  H     -1.997404    0.867740   -0.758335
  H      2.192529   -0.003685    0.474324
  H      2.306805    0.032079   -2.627805
  H      3.762399    0.025387   -1.467002

FINAL SINGLE POINT ENERGY      -361.908872528578
                    ***********************HURRAY********************
 Multiplicity           Mult            ....    1
 Number of Electrons    NEL             ....   54
 Basis Dimension        Dim             ....  265
FINAL SINGLE POINT ENERGY      -361.908872939520

VIBRATIONAL FREQUENCIES
-----------------------

   0:         0.00 cm**-1
   1:         0.00 cm**-1
   2:         0.00 cm**-1
   3:         0.00 cm**-1
   4:         0.00 cm**-1
   5:         0.00 cm**-1
   6:        60.71 cm**-1
   7:        90.53 cm**-1
   8:       153.99 cm**-1
   9:       166.54 cm**-1
  10:       249.49 cm**-1
  11:       346.73 cm**-1
  12:       406.14 cm**-1
  13:       485.82 cm**-1
  14:       569.35 cm**-1
  15:       721.54 cm**-1
  16:       725.80 cm**-1
  17:       885.40 cm**-1
  18:       925.81 cm**-1
  19:       963.88 cm**-1
  20:       964.47 cm**-1
  21:       975.39 cm**-1
  22:      1036.65 cm**-1
  23:      1102.29 cm**-1
  24:      1105.43 cm**-1
  25:      1131.32 cm**-1
  26:      1302.78 cm**-1
  27:      1315.39 cm**-1
  28:      1328.90 cm**-1
  29:      1407.57 cm**-1
  30:      1423.03 cm**-1
  31:      1453.58 cm**-1
  32:      1489.52 cm**-1
  33:      1644.90 cm**-1
  34:      1661.59 cm**-1
  35:      1730.29 cm**-1
  36:      1820.52 cm**-1
  37:      3051.56 cm**-1
  38:      3122.84 cm**-1
  39:      3180.76 cm**-1
  40:      3189.05 cm**-1
  41:      3257.29 cm**-1
  42:      3289.35 cm**-1
  43:      3485.16 cm**-1
  44:      3542.13 cm**-1

IR SPECTRUM
-----------

 Mode    freq (cm**-1)   T**2         TX         TY         TZ
-------------------------------------------------------------------
   6:        60.71    5.457921  ( -0.021119   2.336112   0.007362)
   7:        90.53    3.664027  (  0.030417  -1.913871   0.014105)
   8:       153.99    9.154620  (  0.002693   3.025288  -0.047358)
   9:       166.54    9.911252  ( -1.134643  -0.054648  -2.936129)
  10:       249.49    0.041465  ( -0.075224  -0.185571   0.037010)
  11:       346.73  108.096991  (-10.081179  -0.039304   2.542690)
  12:       406.14    0.658365  (  0.045320   0.006050   0.810108)
  13:       485.82   40.946301  ( -5.943720  -0.033030   2.370105)
  14:       569.35    2.837790  ( -0.040089  -1.684093   0.003815)
  15:       721.54    4.667227  ( -0.757846   0.107517   2.020232)
  16:       725.80    5.761683  (  0.050411   2.398088  -0.091202)
  17:       885.40   41.124551  ( -6.387819  -0.047749   0.563953)
  18:       925.81   15.483424  ( -0.072762   3.934219   0.007062)
  19:       963.88    5.115417  ( -2.014559   0.254004  -0.996217)
  20:       964.47   28.511671  ( -0.086295  -5.338411  -0.074776)
  21:       975.39   48.609029  ( -0.050907   6.971681   0.045780)
  22:      1036.65    4.804197  ( -1.257531   0.000695   1.795220)
  23:      1102.29  165.322512  ( 12.852304   0.066124  -0.369354)
  24:      1105.43    0.847605  (  0.125340   0.911940  -0.016125)
  25:      1131.32   17.875435  (  3.809022   0.018987  -1.834783)
  26:      1302.78    5.361110  ( -0.322324   2.289203   0.129479)
  27:      1315.39  155.393858  ( 10.804323   0.124534  -6.216506)
  28:      1328.90   13.116796  ( -3.192491  -0.021718  -1.710065)
  29:      1407.57  189.648935  (-12.352869  -0.077783   6.086832)
  30:      1423.03  329.085479  ( 15.482962   0.114249  -9.452529)
  31:      1453.58  160.132600  (  2.730021   0.004406 -12.356357)
  32:      1489.52   41.441435  ( -3.770129  -0.033102   5.217898)
  33:      1644.90   32.262597  ( -5.429885   0.152446  -1.660032)
  34:      1661.59   34.766452  (  0.147629   5.894209   0.054435)
  35:      1730.29   34.407341  (  4.131882   0.044731  -4.163279)
  36:      1820.52  338.133537  ( -6.489041  -0.043440  17.205348)
  37:      3051.56  299.216842  (-16.662212  -0.044058  -4.646031)
  38:      3122.84   17.303069  (  3.835850   0.047267   1.608443)
  39:      3180.76    5.298493  (  0.043184  -2.301324   0.023115)
  40:      3189.05    7.931058  ( -2.215091  -0.020600   1.738966)
  41:      3257.29    7.496799  (  1.517740   0.018037  -2.278802)
  42:      3289.35    2.764852  (  1.311221  -0.000896   1.022522)
  43:      3485.16  134.006978  (-11.230629   0.016567   2.807076)
  44:      3542.13  120.513206  (  0.040068  10.977776  -0.006029)

--------------------------
THERMOCHEMISTRY AT 298.15K
--------------------------

Temperature         ... 298.15 K
Pressure            ... 1.00 atm
Total Mass          ... 102.11 AMU

Throughout the following assumptions are being made:
  (1) The electronic state is orbitally nondegenerate
  (2) There are no thermally accessible electronically excited states
  (3) Hindered rotations indicated by low frequency modes) are not
      treated as such but are treated as vibrations and this may
      case some error
  (4) All equations used are the standard statistical mechanics
      equations for an ideal gas
  (5) All vibrations are strinctly harmonic

------------
INNER ENERGY
------------

The inner energy is: U= E(el) + E(ZPE) + E(vib) + E(rot) + E(trans)
    E(el)   - is the total energy from the electronic structure calculation
              = E(kin-el) + E(nuc-el) + E(el-el) + E(nuc-nuc)
    E(ZPE)  - the the zero temperature vibrational energy from the frequency calculation
    E(vib)  - the the finite temperature correction to E(ZPE) due to population
              of excietd vibrational states
    E(rot)  - is the rotational thermal energy
    E(trans)- is the translational thermal energy

Summary of contributions to the inner energy U:
Electronic energy                ...   -361.90887294 Eh
Zero point energy                ...      0.12703857 Eh      79.72 kcal/mol
Thermal vibrational correction   ...      0.00499137 Eh       3.13 kcal/mol
Thermal rotational correction    ...      0.00141627 Eh       0.89 kcal/mol
Thermal translational correction ...      0.00141627 Eh       0.89 kcal/mol
-----------------------------------------------------------------------
Total thermal energy                   -361.77401045 Eh

Summary of corrections to the electronic energy:
(perhaps to be used in another calculation)
Total thermal correction                  0.00782391 Eh       4.91 kcal/mol
Non-thermal (ZPE) correction              0.12703857 Eh      79.72 kcal/mol
-----------------------------------------------------------------------
Total correction                          0.13486249 Eh      84.63 kcal/mol

--------
ENTHALPY
--------

The enthalpy is H = U + kB*T
                kB is Boltzmann's constant
Total free energy                 ...   -361.77401045 Eh
Thermal Enthalpy correction       ...      0.00094421 Eh       0.59 kcal/mol
-----------------------------------------------------------------------
Total Enthalpy                    ...   -361.77306625 Eh

-------
ENTROPY
-------

The entropy contributions are T*S = T*(S(el)+S(vib)+S(rot)+S(trans)
     S(el)   - electronic entropy
     S(vib)  - vibrational entropy
     S(rot)  - rotational entropy
     S(trans)- translational entropy
The entropies will be listed as mutliplied by the temperature to get
units of energy

Electronic entropy                ...      0.00000000 Eh      0.00 kcal/mol
Vibrational entropy               ...      0.00940852 Eh      5.90 kcal/mol
Rotational entropy                ...      0.01202891 Eh      7.55 kcal/mol
Translational entropy             ...      0.01890086 Eh     11.86 kcal/mol
-----------------------------------------------------------------------
Final entropy term                ...      0.04033828 Eh     25.31 kcal/mol

CAUTION: The rotational entropy is not quite correctly treated here
         because it includes a symmetry number that is not yet correctly
         implemented in ORCA!
For a nonlinear molecule the correct rotational entropy is:
    S(rot) = R*(ln(qrot/sn)+1.5)
    R    = 8.31441 J/mol/K = 1.987191683e-3 kcal/mol/K
    qrot = 228354.7865487
    sn is the rotational symmetry number. We have assumed 3 here
       if it is different for your molecule then you should correct
       the printed rotational entropy by manually evaluating the equation
       as given above

For convenience we print out the resulting values for sn=1 - 12:
 sn= 1  qrot/sn=  228354.7865 T*S(rot)=     8.20 kcal/mol T*S(tot)=    25.96 kcal/mol
 sn= 2  qrot/sn=  114177.3933 T*S(rot)=     7.79 kcal/mol T*S(tot)=    25.55 kcal/mol
 sn= 3  qrot/sn=   76118.2622 T*S(rot)=     7.55 kcal/mol T*S(tot)=    25.31 kcal/mol
 sn= 4  qrot/sn=   57088.6966 T*S(rot)=     7.38 kcal/mol T*S(tot)=    25.14 kcal/mol
 sn= 5  qrot/sn=   45670.9573 T*S(rot)=     7.25 kcal/mol T*S(tot)=    25.01 kcal/mol
 sn= 6  qrot/sn=   38059.1311 T*S(rot)=     7.14 kcal/mol T*S(tot)=    24.90 kcal/mol
 sn= 7  qrot/sn=   32622.1124 T*S(rot)=     7.05 kcal/mol T*S(tot)=    24.81 kcal/mol
 sn= 8  qrot/sn=   28544.3483 T*S(rot)=     6.97 kcal/mol T*S(tot)=    24.73 kcal/mol
 sn= 9  qrot/sn=   25372.7541 T*S(rot)=     6.90 kcal/mol T*S(tot)=    24.66 kcal/mol
 sn=10  qrot/sn=   22835.4787 T*S(rot)=     6.83 kcal/mol T*S(tot)=    24.60 kcal/mol
 sn=11  qrot/sn=   20759.5260 T*S(rot)=     6.78 kcal/mol T*S(tot)=    24.54 kcal/mol
 sn=12  qrot/sn=   19029.5655 T*S(rot)=     6.73 kcal/mol T*S(tot)=    24.49 kcal/mol

-------------------
GIBBS FREE ENTHALPY
-------------------

The Gibbs free enthalpy is G = H - T*S

Total enthalpy                    ...   -361.77306625 Eh
Total entropy correction          ...     -0.04033828 Eh    -25.31 kcal/mol
-----------------------------------------------------------------------
Final Gibbs free enthalpy         ...   -361.81340453 Eh

For completeness - the Gibbs free enthalpy minus the electronic energy
G-E(el)                           ...      0.09546841 Eh     59.91 kcal/mol

                             ****ORCA TERMINATED NORMALLY****
TOTAL RUN TIME: 0 days 0 hours 23 minutes 27 seconds 735 msec
