                         Program Version 3.0.3 - RELEASE   -
|  1> ! NORI PBE0 def2-TZVP UseSym TightOPT Freq TightSCF Grid3 FinalGrid5 XYZFile
|  2> % pal
|  3>     nprocs 8
|  4> end
|  5> %method
|  6>     SymThresh 5.0e-2
|  7> end
|  8> % geom
|  9>     MaxIter 10
| 10> end
| 11> % maxcore 2000
| 12> % output
| 13>     printlevel mini
| 14>     print[ P_Basis ] 0
| 15>     print[ P_SCFInfo ] 1
| 16>     print[ P_SCFIterInfo ] 1
| 17>     print[ P_OrbEn ] 0
| 18>     print[ P_Cartesian ] 0
| 19> end
| 20> % elprop
| 21>     Dipole false
| 22> end
| 23> *xyz 1 1
| 24>  N        1.3310282057    -0.6278171624    -0.1002442076
| 25>  C        2.6065636411    -0.5282180510    -0.4124053588
| 26>  N        2.3886361300    -1.7338761071     0.1145496312
| 27>  C        3.6197273604     0.2914619082    -1.0345770518
| 28>  C        4.9700633122     0.1986304083    -0.3142678374
| 29>  C        4.8807323619     0.8332694296     1.0541937769
| 30>  O        3.7532117843     0.2529158476     1.7038587673
| 31>  H        1.0059418579    -0.0626975330     0.6895892414
| 32>  H        2.7948888693    -1.8062458851     1.0563389850
| 33>  H        3.7092333056    -0.1348228166    -2.0482350513
| 34>  H        3.2491493028     1.3131005525    -1.1458954941
| 35>  H        5.7217793909     0.7097535294    -0.9168551898
| 36>  H        5.2769539522    -0.8475315090    -0.2348698455
| 37>  H        4.7496047535     1.9177074731     0.9689255962
| 38>  H        5.7977552276     0.6375345078     1.6178651000
| 39>  H        3.6286805445     0.6689654077     2.5627989385
| 40> *
| 41>
| 42>                          ****END OF INPUT****
 Total Charge           Charge          ....    1
 Multiplicity           Mult            ....    1
 Number of Electrons    NEL             ....   54
FINAL SINGLE POINT ENERGY      -341.931677751913
FINAL SINGLE POINT ENERGY      -341.931677622761
FINAL SINGLE POINT ENERGY      -341.931678626040

CARTESIAN COORDINATES (ANGSTROEM)
---------------------------------
  N      1.920567   -0.001296   -0.897663
  C      0.605648    0.064020   -0.862066
  N      1.098067    1.297516   -0.738224
  C     -0.627393   -0.677133   -0.988031
  C     -1.708154   -0.183800   -0.019355
  C     -1.320812   -0.499394    1.406675
  O     -0.000593    0.002845    1.594451
  H      2.380680   -0.424836   -0.086586
  H      0.975942    1.651040    0.219805
  H     -0.941500   -0.479559   -2.027151
  H     -0.422664   -1.747423   -0.910878
  H     -2.649820   -0.673416   -0.270561
  H     -1.859302    0.891263   -0.148195
  H     -1.341230   -1.580574    1.582695
  H     -2.020582   -0.021786    2.098322
  H      0.304694   -0.220135    2.479582

FINAL SINGLE POINT ENERGY      -341.931678823026
                    ***********************HURRAY********************
 Multiplicity           Mult            ....    1
 Number of Electrons    NEL             ....   54
 Basis Dimension        Dim             ....  271
FINAL SINGLE POINT ENERGY      -341.931678973512

VIBRATIONAL FREQUENCIES
-----------------------

   0:         0.00 cm**-1
   1:         0.00 cm**-1
   2:         0.00 cm**-1
   3:         0.00 cm**-1
   4:         0.00 cm**-1
   5:         0.00 cm**-1
   6:       105.61 cm**-1
   7:       123.22 cm**-1
   8:       177.96 cm**-1
   9:       186.04 cm**-1
  10:       280.65 cm**-1
  11:       352.77 cm**-1
  12:       382.86 cm**-1
  13:       451.02 cm**-1
  14:       497.37 cm**-1
  15:       566.18 cm**-1
  16:       668.20 cm**-1
  17:       814.38 cm**-1
  18:       866.74 cm**-1
  19:       897.74 cm**-1
  20:       920.40 cm**-1
  21:       993.89 cm**-1
  22:      1016.83 cm**-1
  23:      1021.78 cm**-1
  24:      1078.99 cm**-1
  25:      1105.89 cm**-1
  26:      1127.82 cm**-1
  27:      1192.77 cm**-1
  28:      1201.55 cm**-1
  29:      1259.24 cm**-1
  30:      1303.46 cm**-1
  31:      1343.34 cm**-1
  32:      1376.97 cm**-1
  33:      1406.53 cm**-1
  34:      1448.90 cm**-1
  35:      1450.24 cm**-1
  36:      1475.94 cm**-1
  37:      1514.96 cm**-1
  38:      1730.93 cm**-1
  39:      3008.82 cm**-1
  40:      3045.50 cm**-1
  41:      3080.30 cm**-1
  42:      3102.86 cm**-1
  43:      3120.64 cm**-1
  44:      3145.57 cm**-1
  45:      3399.62 cm**-1
  46:      3453.44 cm**-1
  47:      3847.57 cm**-1

IR SPECTRUM
-----------

 Mode    freq (cm**-1)   T**2         TX         TY         TZ
-------------------------------------------------------------------
   6:       105.61   22.092393  ( -2.710955   3.330372   1.910953)
   7:       123.22    3.318709  (  0.111322  -1.100141  -1.447759)
   8:       177.96   14.270854  ( -1.308619  -3.325302   1.225047)
   9:       186.04   22.442075  (  3.739145   0.290847   2.894180)
  10:       280.65   31.718309  (  3.659773  -4.135029   1.107204)
  11:       352.77   34.182590  (  2.527606  -4.794751  -2.191840)
  12:       382.86   59.498771  ( -0.239461  -6.960536  -3.315474)
  13:       451.02   40.559315  ( -6.008253   2.071745   0.409986)
  14:       497.37  123.774220  ( -7.088586   8.504719   1.093578)
  15:       566.18   90.954793  ( -3.831325   8.370278   2.492828)
  16:       668.20   10.847327  (  1.266736  -2.887231  -0.952158)
  17:       814.38   61.702429  (  7.267509   2.543932   1.553754)
  18:       866.74   32.171385  (  4.999432   2.436049   1.114780)
  19:       897.74   16.074657  ( -2.841741  -2.647106  -0.995989)
  20:       920.40    8.486080  (  2.078205   2.027764  -0.235193)
  21:       993.89   31.906432  (  3.632852   0.029991  -4.325266)
  22:      1016.83   81.570242  (  5.058163   6.356177  -3.947687)
  23:      1021.78   11.599985  ( -2.965021  -1.358621   0.981216)
  24:      1078.99    4.684187  ( -1.877262   0.652532   0.856898)
  25:      1105.89   86.359796  (  8.511445   3.663866   0.700851)
  26:      1127.82    7.077939  ( -1.418496   2.213115  -0.409795)
  27:      1192.77   85.775310  ( -8.073305  -3.833555   2.429178)
  28:      1201.55    6.511311  ( -1.993366   0.987952  -1.249701)
  29:      1259.24    7.527720  ( -0.063508  -2.304888  -1.487004)
  30:      1303.46   28.051148  (  4.642187   2.530067  -0.316239)
  31:      1343.34    6.865045  (  1.615026  -0.706009  -1.938630)
  32:      1376.97    2.414291  ( -1.391925  -0.305884   0.619089)
  33:      1406.53   20.697154  (  0.990969   3.452399   2.792146)
  34:      1448.90    8.001602  ( -2.519787  -1.264693   0.229838)
  35:      1450.24    2.081961  ( -0.157605   0.053402   1.433272)
  36:      1475.94   13.174553  (  1.644752  -2.659347   1.843154)
  37:      1514.96    4.469698  (  0.165869   1.233541  -1.708965)
  38:      1730.93  183.240689  (-12.522521  -5.077230   0.805535)
  39:      3008.82   40.694793  (  4.769750   1.482515   3.968177)
  40:      3045.50   16.467115  ( -2.345479  -3.048887   1.292335)
  41:      3080.30    1.494217  (  0.079794   0.921942  -0.798670)
  42:      3102.86    8.559218  ( -1.307185   2.596236   0.331725)
  43:      3120.64    1.863881  (  0.303179  -0.523180   1.224029)
  44:      3145.57    0.551720  (  0.132409  -0.698934   0.213727)
  45:      3399.62   94.429668  ( -0.979225   6.622579   7.043595)
  46:      3453.44  122.529473  (  8.946649  -3.023155   5.774727)
  47:      3847.57  119.816807  (  4.000173  -1.378763  10.095268)

--------------------------
THERMOCHEMISTRY AT 298.15K
--------------------------

Temperature         ... 298.15 K
Pressure            ... 1.00 atm
Total Mass          ... 101.13 AMU

Throughout the following assumptions are being made:
  (1) The electronic state is orbitally nondegenerate
  (2) There are no thermally accessible electronically excited states
  (3) Hindered rotations indicated by low frequency modes) are not
      treated as such but are treated as vibrations and this may
      case some error
  (4) All equations used are the standard statistical mechanics
      equations for an ideal gas
  (5) All vibrations are strinctly harmonic

------------
INNER ENERGY
------------

The inner energy is: U= E(el) + E(ZPE) + E(vib) + E(rot) + E(trans)
    E(el)   - is the total energy from the electronic structure calculation
              = E(kin-el) + E(nuc-el) + E(el-el) + E(nuc-nuc)
    E(ZPE)  - the the zero temperature vibrational energy from the frequency calculation
    E(vib)  - the the finite temperature correction to E(ZPE) due to population
              of excietd vibrational states
    E(rot)  - is the rotational thermal energy
    E(trans)- is the translational thermal energy

Summary of contributions to the inner energy U:
Electronic energy                ...   -341.93167897 Eh
Zero point energy                ...      0.13565456 Eh      85.12 kcal/mol
Thermal vibrational correction   ...      0.00504544 Eh       3.17 kcal/mol
Thermal rotational correction    ...      0.00141627 Eh       0.89 kcal/mol
Thermal translational correction ...      0.00141627 Eh       0.89 kcal/mol
-----------------------------------------------------------------------
Total thermal energy                   -341.78814643 Eh

Summary of corrections to the electronic energy:
(perhaps to be used in another calculation)
Total thermal correction                  0.00787799 Eh       4.94 kcal/mol
Non-thermal (ZPE) correction              0.13565456 Eh      85.12 kcal/mol
-----------------------------------------------------------------------
Total correction                          0.14353255 Eh      90.07 kcal/mol

--------
ENTHALPY
--------

The enthalpy is H = U + kB*T
                kB is Boltzmann's constant
Total free energy                 ...   -341.78814643 Eh
Thermal Enthalpy correction       ...      0.00094421 Eh       0.59 kcal/mol
-----------------------------------------------------------------------
Total Enthalpy                    ...   -341.78720222 Eh

-------
ENTROPY
-------

The entropy contributions are T*S = T*(S(el)+S(vib)+S(rot)+S(trans)
     S(el)   - electronic entropy
     S(vib)  - vibrational entropy
     S(rot)  - rotational entropy
     S(trans)- translational entropy
The entropies will be listed as mutliplied by the temperature to get
units of energy

Electronic entropy                ...      0.00000000 Eh      0.00 kcal/mol
Vibrational entropy               ...      0.00873286 Eh      5.48 kcal/mol
Rotational entropy                ...      0.01196886 Eh      7.51 kcal/mol
Translational entropy             ...      0.01888714 Eh     11.85 kcal/mol
-----------------------------------------------------------------------
Final entropy term                ...      0.03958886 Eh     24.84 kcal/mol

CAUTION: The rotational entropy is not quite correctly treated here
         because it includes a symmetry number that is not yet correctly
         implemented in ORCA!
For a nonlinear molecule the correct rotational entropy is:
    S(rot) = R*(ln(qrot/sn)+1.5)
    R    = 8.31441 J/mol/K = 1.987191683e-3 kcal/mol/K
    qrot = 214283.4234967
    sn is the rotational symmetry number. We have assumed 3 here
       if it is different for your molecule then you should correct
       the printed rotational entropy by manually evaluating the equation
       as given above

For convenience we print out the resulting values for sn=1 - 12:
 sn= 1  qrot/sn=  214283.4235 T*S(rot)=     8.16 kcal/mol T*S(tot)=    25.49 kcal/mol
 sn= 2  qrot/sn=  107141.7117 T*S(rot)=     7.75 kcal/mol T*S(tot)=    25.08 kcal/mol
 sn= 3  qrot/sn=   71427.8078 T*S(rot)=     7.51 kcal/mol T*S(tot)=    24.84 kcal/mol
 sn= 4  qrot/sn=   53570.8559 T*S(rot)=     7.34 kcal/mol T*S(tot)=    24.67 kcal/mol
 sn= 5  qrot/sn=   42856.6847 T*S(rot)=     7.21 kcal/mol T*S(tot)=    24.54 kcal/mol
 sn= 6  qrot/sn=   35713.9039 T*S(rot)=     7.10 kcal/mol T*S(tot)=    24.43 kcal/mol
 sn= 7  qrot/sn=   30611.9176 T*S(rot)=     7.01 kcal/mol T*S(tot)=    24.34 kcal/mol
 sn= 8  qrot/sn=   26785.4279 T*S(rot)=     6.93 kcal/mol T*S(tot)=    24.26 kcal/mol
 sn= 9  qrot/sn=   23809.2693 T*S(rot)=     6.86 kcal/mol T*S(tot)=    24.19 kcal/mol
 sn=10  qrot/sn=   21428.3423 T*S(rot)=     6.80 kcal/mol T*S(tot)=    24.13 kcal/mol
 sn=11  qrot/sn=   19480.3112 T*S(rot)=     6.74 kcal/mol T*S(tot)=    24.07 kcal/mol
 sn=12  qrot/sn=   17856.9520 T*S(rot)=     6.69 kcal/mol T*S(tot)=    24.02 kcal/mol

-------------------
GIBBS FREE ENTHALPY
-------------------

The Gibbs free enthalpy is G = H - T*S

Total enthalpy                    ...   -341.78720222 Eh
Total entropy correction          ...     -0.03958886 Eh    -24.84 kcal/mol
-----------------------------------------------------------------------
Final Gibbs free enthalpy         ...   -341.82679108 Eh

For completeness - the Gibbs free enthalpy minus the electronic energy
G-E(el)                           ...      0.10488790 Eh     65.82 kcal/mol

                             ****ORCA TERMINATED NORMALLY****
TOTAL RUN TIME: 0 days 0 hours 34 minutes 44 seconds 211 msec
