                         Program Version 3.0.3 - RELEASE   -
|  1> ! NORI PBE0 def2-TZVP UseSym TightOPT Freq TightSCF Grid3 FinalGrid5 XYZFile
|  2> % pal
|  3>     nprocs 8
|  4> end
|  5> %method
|  6>     SymThresh 5.0e-2
|  7> end
|  8> % geom
|  9>     MaxIter 10
| 10> end
| 11> % maxcore 2000
| 12> % output
| 13>     printlevel mini
| 14>     print[ P_Basis ] 0
| 15>     print[ P_SCFInfo ] 1
| 16>     print[ P_SCFIterInfo ] 1
| 17>     print[ P_OrbEn ] 0
| 18>     print[ P_Cartesian ] 0
| 19> end
| 20> % elprop
| 21>     Dipole false
| 22> end
| 23> *xyz 1 1
| 24>  O        1.5911951950    -0.5902274623    -0.5848342859
| 25>  C        2.7751008407    -0.1142605162    -0.0974593020
| 26>  C        3.6205800018    -1.0925052259     0.6321833342
| 27>  C        4.1103743846    -0.5366196818    -0.6698724237
| 28>  N        5.0381637006     0.6149176480    -0.5464895475
| 29>  C        4.1937519271     1.8525301166    -0.2962552284
| 30>  C        2.9052137253     1.3440195937     0.3386739861
| 31>  H        1.2942473537    -0.0743290586    -1.3424581113
| 32>  H        4.1023457945    -0.7935296582     1.5575418371
| 33>  H        3.3030810765    -2.1274867164     0.5951153639
| 34>  H        4.2517436097    -1.1550115181    -1.5454075948
| 35>  H        5.5968106025     0.7269155382    -1.3927139949
| 36>  H        5.6997560061     0.4665917404     0.2179865214
| 37>  H        4.0092265019     2.2931875418    -1.2755742606
| 38>  H        4.7659470465     2.5564655707     0.3062947997
| 39>  H        2.0547818918     1.9226091852    -0.0220744430
| 40>  H        2.9198003418     1.4362129032     1.4262033497
| 41> *
| 42>
| 43>                          ****END OF INPUT****
 Total Charge           Charge          ....    1
 Multiplicity           Mult            ....    1
 Number of Electrons    NEL             ....   54
FINAL SINGLE POINT ENERGY      -325.991773609114

CARTESIAN COORDINATES (ANGSTROEM)
---------------------------------
  O      0.000083   -0.000228    2.066945
  C     -0.206754    0.124033    0.722599
  C     -0.328945    1.510873    0.206362
  C      0.848346    0.682088   -0.207127
  N      0.701258    0.000056   -1.516988
  C     -0.138538   -1.244698   -1.287868
  C     -0.973185   -0.949864   -0.047432
  H      0.448018   -0.827526    2.274540
  H     -1.102713    1.742310   -0.518787
  H     -0.102234    2.307867    0.904051
  H      1.860980    0.937436    0.072230
  H      1.611743   -0.247773   -1.904563
  H      0.256191    0.617316   -2.198930
  H      0.568107   -2.054874   -1.109930
  H     -0.705030   -1.461839   -2.192051
  H     -1.074069   -1.849429    0.560077
  H     -1.981206   -0.617223   -0.300789

FINAL SINGLE POINT ENERGY      -325.991774362268
                    ***********************HURRAY********************
 Multiplicity           Mult            ....    1
 Number of Electrons    NEL             ....   54
 Basis Dimension        Dim             ....  277
FINAL SINGLE POINT ENERGY      -325.991774842578

VIBRATIONAL FREQUENCIES
-----------------------

   0:         0.00 cm**-1
   1:         0.00 cm**-1
   2:         0.00 cm**-1
   3:         0.00 cm**-1
   4:         0.00 cm**-1
   5:         0.00 cm**-1
   6:        93.59 cm**-1
   7:       224.14 cm**-1
   8:       342.84 cm**-1
   9:       386.09 cm**-1
  10:       405.34 cm**-1
  11:       449.07 cm**-1
  12:       593.11 cm**-1
  13:       611.60 cm**-1
  14:       750.26 cm**-1
  15:       823.69 cm**-1
  16:       836.13 cm**-1
  17:       864.00 cm**-1
  18:       891.90 cm**-1
  19:       939.81 cm**-1
  20:       949.41 cm**-1
  21:       977.52 cm**-1
  22:      1019.64 cm**-1
  23:      1043.98 cm**-1
  24:      1080.55 cm**-1
  25:      1096.40 cm**-1
  26:      1113.57 cm**-1
  27:      1202.46 cm**-1
  28:      1231.10 cm**-1
  29:      1253.65 cm**-1
  30:      1278.79 cm**-1
  31:      1302.19 cm**-1
  32:      1337.27 cm**-1
  33:      1355.83 cm**-1
  34:      1377.17 cm**-1
  35:      1401.87 cm**-1
  36:      1427.83 cm**-1
  37:      1484.19 cm**-1
  38:      1502.23 cm**-1
  39:      1506.79 cm**-1
  40:      1653.84 cm**-1
  41:      3096.05 cm**-1
  42:      3111.40 cm**-1
  43:      3143.81 cm**-1
  44:      3145.81 cm**-1
  45:      3175.57 cm**-1
  46:      3232.37 cm**-1
  47:      3244.39 cm**-1
  48:      3443.48 cm**-1
  49:      3507.18 cm**-1
  50:      3827.31 cm**-1

IR SPECTRUM
-----------

 Mode    freq (cm**-1)   T**2         TX         TY         TZ
-------------------------------------------------------------------
   6:        93.59    1.689932  (  1.199323  -0.432076   0.254689)
   7:       224.14    4.897481  (  2.106458  -0.252586  -0.629696)
   8:       342.84   99.071052  ( -8.733553  -4.752344   0.459709)
   9:       386.09   23.946584  ( -3.876395  -2.503606   1.628528)
  10:       405.34    4.555592  ( -1.415583  -1.534071  -0.445358)
  11:       449.07    2.803381  ( -0.494137   1.477462  -0.613447)
  12:       593.11    9.100193  (  0.524476  -0.723410   2.881284)
  13:       611.60    7.738358  ( -1.787323  -0.615464   2.040842)
  14:       750.26    0.964799  ( -0.788325  -0.303905   0.500984)
  15:       823.69    2.914028  ( -0.063467   1.518953  -0.776390)
  16:       836.13    5.468481  (  2.058308   1.007650   0.465282)
  17:       864.00   15.030068  ( -3.192513   1.858455  -1.176467)
  18:       891.90    5.646962  (  1.709243  -0.719004   1.486097)
  19:       939.81    5.700015  ( -0.165799   0.757822  -2.257926)
  20:       949.41    0.615741  (  0.712750   0.202900  -0.257993)
  21:       977.52    4.470869  ( -0.334906  -2.081993  -0.154961)
  22:      1019.64    5.551386  (  1.054065   1.829430  -1.045715)
  23:      1043.98    7.615717  ( -1.201679  -1.273965  -2.132768)
  24:      1080.55    3.252697  ( -0.160886  -0.144808  -1.790487)
  25:      1096.40    6.642983  (  1.039851   0.618218  -2.275851)
  26:      1113.57    5.277747  ( -1.971554  -0.863043   0.803666)
  27:      1202.46    3.364073  (  1.004937  -0.145709  -1.527398)
  28:      1231.10   72.443691  ( -0.334889  -0.579127   8.485055)
  29:      1253.65   11.786256  ( -0.642045  -2.475932   2.289934)
  30:      1278.79   13.405513  (  0.875393   3.550232   0.187219)
  31:      1302.19   49.223009  (  1.377797  -0.011797   6.879284)
  32:      1337.27    2.898285  (  0.073645   0.922627  -1.428853)
  33:      1355.83   91.227857  ( -0.826529  -1.788535  -9.345900)
  34:      1377.17   36.238839  ( -3.199220  -4.629854  -2.137354)
  35:      1401.87    3.640808  (  0.451836   1.722708  -0.684783)
  36:      1427.83    5.265527  ( -1.431306   1.114880   1.404967)
  37:      1484.19   18.004803  (  1.549935   1.676142  -3.576738)
  38:      1502.23   18.621286  ( -1.330581   3.952480  -1.108488)
  39:      1506.79   15.292127  (  2.575940  -0.410894   2.913388)
  40:      1653.84   66.777298  ( -2.414984  -2.240525   7.478315)
  41:      3096.05    1.566030  (  1.212061   0.217053  -0.223219)
  42:      3111.40    1.853172  (  0.551429  -0.916520  -0.842074)
  43:      3143.81    3.134152  ( -0.037323   1.168121   1.329756)
  44:      3145.81    1.249330  (  0.916281   0.310507   0.559772)
  45:      3175.57    0.348966  (  0.451080   0.241842   0.294966)
  46:      3232.37    2.454587  ( -1.491628  -0.465300   0.114585)
  47:      3244.39    4.504253  (  0.566146   1.741724   1.072441)
  48:      3443.48   46.421990  (  1.507999   3.136526  -5.857486)
  49:      3507.18   84.530756  ( -8.320787   3.699665   1.267964)
  50:      3827.31   64.747911  (  3.203936  -5.403329   5.028593)

--------------------------
THERMOCHEMISTRY AT 298.15K
--------------------------

Temperature         ... 298.15 K
Pressure            ... 1.00 atm
Total Mass          ... 100.14 AMU

Throughout the following assumptions are being made:
  (1) The electronic state is orbitally nondegenerate
  (2) There are no thermally accessible electronically excited states
  (3) Hindered rotations indicated by low frequency modes) are not
      treated as such but are treated as vibrations and this may
      case some error
  (4) All equations used are the standard statistical mechanics
      equations for an ideal gas
  (5) All vibrations are strinctly harmonic

------------
INNER ENERGY
------------

The inner energy is: U= E(el) + E(ZPE) + E(vib) + E(rot) + E(trans)
    E(el)   - is the total energy from the electronic structure calculation
              = E(kin-el) + E(nuc-el) + E(el-el) + E(nuc-nuc)
    E(ZPE)  - the the zero temperature vibrational energy from the frequency calculation
    E(vib)  - the the finite temperature correction to E(ZPE) due to population
              of excietd vibrational states
    E(rot)  - is the rotational thermal energy
    E(trans)- is the translational thermal energy

Summary of contributions to the inner energy U:
Electronic energy                ...   -325.99177484 Eh
Zero point energy                ...      0.15431218 Eh      96.83 kcal/mol
Thermal vibrational correction   ...      0.00360048 Eh       2.26 kcal/mol
Thermal rotational correction    ...      0.00141627 Eh       0.89 kcal/mol
Thermal translational correction ...      0.00141627 Eh       0.89 kcal/mol
-----------------------------------------------------------------------
Total thermal energy                   -325.83102965 Eh

Summary of corrections to the electronic energy:
(perhaps to be used in another calculation)
Total thermal correction                  0.00643302 Eh       4.04 kcal/mol
Non-thermal (ZPE) correction              0.15431218 Eh      96.83 kcal/mol
-----------------------------------------------------------------------
Total correction                          0.16074519 Eh     100.87 kcal/mol

--------
ENTHALPY
--------

The enthalpy is H = U + kB*T
                kB is Boltzmann's constant
Total free energy                 ...   -325.83102965 Eh
Thermal Enthalpy correction       ...      0.00094421 Eh       0.59 kcal/mol
-----------------------------------------------------------------------
Total Enthalpy                    ...   -325.83008544 Eh

-------
ENTROPY
-------

The entropy contributions are T*S = T*(S(el)+S(vib)+S(rot)+S(trans)
     S(el)   - electronic entropy
     S(vib)  - vibrational entropy
     S(rot)  - rotational entropy
     S(trans)- translational entropy
The entropies will be listed as mutliplied by the temperature to get
units of energy

Electronic entropy                ...      0.00000000 Eh      0.00 kcal/mol
Vibrational entropy               ...      0.00583525 Eh      3.66 kcal/mol
Rotational entropy                ...      0.01178866 Eh      7.40 kcal/mol
Translational entropy             ...      0.01887324 Eh     11.84 kcal/mol
-----------------------------------------------------------------------
Final entropy term                ...      0.03649714 Eh     22.90 kcal/mol

CAUTION: The rotational entropy is not quite correctly treated here
         because it includes a symmetry number that is not yet correctly
         implemented in ORCA!
For a nonlinear molecule the correct rotational entropy is:
    S(rot) = R*(ln(qrot/sn)+1.5)
    R    = 8.31441 J/mol/K = 1.987191683e-3 kcal/mol/K
    qrot = 177052.9418917
    sn is the rotational symmetry number. We have assumed 3 here
       if it is different for your molecule then you should correct
       the printed rotational entropy by manually evaluating the equation
       as given above

For convenience we print out the resulting values for sn=1 - 12:
 sn= 1  qrot/sn=  177052.9419 T*S(rot)=     8.05 kcal/mol T*S(tot)=    23.55 kcal/mol
 sn= 2  qrot/sn=   88526.4709 T*S(rot)=     7.64 kcal/mol T*S(tot)=    23.14 kcal/mol
 sn= 3  qrot/sn=   59017.6473 T*S(rot)=     7.40 kcal/mol T*S(tot)=    22.90 kcal/mol
 sn= 4  qrot/sn=   44263.2355 T*S(rot)=     7.23 kcal/mol T*S(tot)=    22.73 kcal/mol
 sn= 5  qrot/sn=   35410.5884 T*S(rot)=     7.09 kcal/mol T*S(tot)=    22.60 kcal/mol
 sn= 6  qrot/sn=   29508.8236 T*S(rot)=     6.99 kcal/mol T*S(tot)=    22.49 kcal/mol
 sn= 7  qrot/sn=   25293.2774 T*S(rot)=     6.90 kcal/mol T*S(tot)=    22.40 kcal/mol
 sn= 8  qrot/sn=   22131.6177 T*S(rot)=     6.82 kcal/mol T*S(tot)=    22.32 kcal/mol
 sn= 9  qrot/sn=   19672.5491 T*S(rot)=     6.75 kcal/mol T*S(tot)=    22.25 kcal/mol
 sn=10  qrot/sn=   17705.2942 T*S(rot)=     6.68 kcal/mol T*S(tot)=    22.19 kcal/mol
 sn=11  qrot/sn=   16095.7220 T*S(rot)=     6.63 kcal/mol T*S(tot)=    22.13 kcal/mol
 sn=12  qrot/sn=   14754.4118 T*S(rot)=     6.58 kcal/mol T*S(tot)=    22.08 kcal/mol

-------------------
GIBBS FREE ENTHALPY
-------------------

The Gibbs free enthalpy is G = H - T*S

Total enthalpy                    ...   -325.83008544 Eh
Total entropy correction          ...     -0.03649714 Eh    -22.90 kcal/mol
-----------------------------------------------------------------------
Final Gibbs free enthalpy         ...   -325.86658258 Eh

For completeness - the Gibbs free enthalpy minus the electronic energy
G-E(el)                           ...      0.12519226 Eh     78.56 kcal/mol

                             ****ORCA TERMINATED NORMALLY****
TOTAL RUN TIME: 0 days 0 hours 37 minutes 29 seconds 724 msec
