                         Program Version 3.0.3 - RELEASE   -
|  1> ! NORI PBE0 def2-TZVP UseSym TightOPT Freq TightSCF Grid3 FinalGrid5 XYZFile
|  2> % pal
|  3>     nprocs 8
|  4> end
|  5> %method
|  6>     SymThresh 5.0e-2
|  7> end
|  8> % geom
|  9>     MaxIter 10
| 10> end
| 11> % maxcore 2000
| 12> % output
| 13>     printlevel mini
| 14>     print[ P_Basis ] 0
| 15>     print[ P_SCFInfo ] 1
| 16>     print[ P_SCFIterInfo ] 1
| 17>     print[ P_OrbEn ] 0
| 18>     print[ P_Cartesian ] 0
| 19> end
| 20> % elprop
| 21>     Dipole false
| 22> end
| 23> *xyz 1 1
| 24>  O        0.9682449742    -0.1814544432    -0.1242831577
| 25>  C        2.2990051140     0.0772870588    -0.1224183866
| 26>  C        3.2790167207    -0.5168596710    -1.1832650851
| 27>  N        4.2770357423    -0.3071817848    -0.0725238744
| 28>  C        3.1805231707    -0.6745066329     0.8979529033
| 29>  C        4.3419340613     1.1932523962     0.0452876200
| 30>  C        2.8345550641     1.5096111219     0.0091010016
| 31>  H        0.4677465831     0.5313969414    -0.5340974173
| 32>  H        3.5117509955     0.0312460496    -2.0952889049
| 33>  H        3.1303962542    -1.5797720403    -1.3608463670
| 34>  H        5.1640203086    -0.8062031118    -0.0673597130
| 35>  H        3.0235964887    -1.7515300377     0.8986960175
| 36>  H        3.3183493426    -0.2726319491     1.9009233905
| 37>  H        4.9107929914     1.5893101362    -0.7941403552
| 38>  H        4.8347829011     1.4533949876     0.9803098106
| 39>  H        2.4843153166     1.9895771142     0.9230301462
| 40>  H        2.5621939709     2.1317038648    -0.8448176285
| 41> *
| 42>
| 43>                          ****END OF INPUT****
 Total Charge           Charge          ....    1
 Multiplicity           Mult            ....    1
 Number of Electrons    NEL             ....   54
FINAL SINGLE POINT ENERGY      -325.989576484114

CARTESIAN COORDINATES (ANGSTROEM)
---------------------------------
  O     -0.000109    0.000008    2.059838
  C     -0.039384   -0.026594    0.705004
  C      0.728791   -1.088260   -0.144218
  N      0.659933    0.000198   -1.185412
  C      0.823501    0.997079   -0.063611
  C     -0.812429    0.079657   -1.494728
  C     -1.368420    0.060894   -0.057903
  H     -0.775663   -0.418951    2.446637
  H      0.245805   -2.017374   -0.444259
  H      1.757414   -1.236926    0.178218
  H      1.295950    0.003004   -1.979818
  H      1.860483    1.026431    0.265467
  H      0.428255    1.987514   -0.284705
  H     -1.092444   -0.778838   -2.102657
  H     -1.009527    0.999371   -2.042550
  H     -1.918329    0.968361    0.191016
  H     -2.007756   -0.803202    0.127636

FINAL SINGLE POINT ENERGY      -325.989576977560
                    ***********************HURRAY********************
 Multiplicity           Mult            ....    1
 Number of Electrons    NEL             ....   54
 Basis Dimension        Dim             ....  277
FINAL SINGLE POINT ENERGY      -325.989577080983

VIBRATIONAL FREQUENCIES
-----------------------

   0:         0.00 cm**-1
   1:         0.00 cm**-1
   2:         0.00 cm**-1
   3:         0.00 cm**-1
   4:         0.00 cm**-1
   5:         0.00 cm**-1
   6:       210.75 cm**-1
   7:       279.42 cm**-1
   8:       356.83 cm**-1
   9:       403.28 cm**-1
  10:       459.43 cm**-1
  11:       542.16 cm**-1
  12:       604.46 cm**-1
  13:       713.78 cm**-1
  14:       835.75 cm**-1
  15:       851.32 cm**-1
  16:       854.50 cm**-1
  17:       884.47 cm**-1
  18:       929.96 cm**-1
  19:       953.34 cm**-1
  20:       965.41 cm**-1
  21:      1000.15 cm**-1
  22:      1019.08 cm**-1
  23:      1076.13 cm**-1
  24:      1121.95 cm**-1
  25:      1161.13 cm**-1
  26:      1168.59 cm**-1
  27:      1174.96 cm**-1
  28:      1229.24 cm**-1
  29:      1244.94 cm**-1
  30:      1259.56 cm**-1
  31:      1275.46 cm**-1
  32:      1315.01 cm**-1
  33:      1328.62 cm**-1
  34:      1346.91 cm**-1
  35:      1387.90 cm**-1
  36:      1455.00 cm**-1
  37:      1487.43 cm**-1
  38:      1499.06 cm**-1
  39:      1502.61 cm**-1
  40:      1541.97 cm**-1
  41:      3099.30 cm**-1
  42:      3111.82 cm**-1
  43:      3116.63 cm**-1
  44:      3120.80 cm**-1
  45:      3154.21 cm**-1
  46:      3184.41 cm**-1
  47:      3197.10 cm**-1
  48:      3200.88 cm**-1
  49:      3522.35 cm**-1
  50:      3847.99 cm**-1

IR SPECTRUM
-----------

 Mode    freq (cm**-1)   T**2         TX         TY         TZ
-------------------------------------------------------------------
   6:       210.75  106.713431  (  5.412791  -8.773902   0.658615)
   7:       279.42    5.962288  ( -1.383913   1.946054   0.509852)
   8:       356.83    8.216512  ( -1.367317   1.019591   2.303778)
   9:       403.28    5.246218  (  1.075456  -1.552429  -1.295985)
  10:       459.43    1.992157  ( -0.480727   0.847999   1.020763)
  11:       542.16    3.072981  ( -0.522803   0.335037   1.639332)
  12:       604.46    3.312462  ( -0.433924   0.109706   1.764125)
  13:       713.78    3.157329  ( -0.012642   0.176752  -1.768030)
  14:       835.75    7.395711  (  0.607849  -2.650256   0.048728)
  15:       851.32    0.927353  (  0.547019   0.782754  -0.124179)
  16:       854.50    2.447117  (  0.014247   1.561196  -0.097878)
  17:       884.47    4.796572  (  1.643921  -0.063995   1.445684)
  18:       929.96    2.853920  (  0.526790  -1.007376   1.249642)
  19:       953.34    0.179367  (  0.113748   0.111345   0.392468)
  20:       965.41    0.034226  (  0.043935  -0.136004   0.117469)
  21:      1000.15    4.209166  ( -1.758022   0.116573   1.051160)
  22:      1019.08    7.902103  ( -0.236055  -0.125224  -2.798339)
  23:      1076.13    4.985494  ( -0.282648  -0.858950  -2.041521)
  24:      1121.95   54.033908  ( -0.113096  -0.168204   7.347981)
  25:      1161.13   12.729533  ( -1.147419   2.915003   1.707548)
  26:      1168.59   18.639547  (  1.001015   0.686119   4.143279)
  27:      1174.96   16.129324  ( -0.451118  -3.985881  -0.196386)
  28:      1229.24    1.724688  (  0.369866  -0.059158  -1.258725)
  29:      1244.94    2.233534  (  1.196955  -0.183291  -0.875921)
  30:      1259.56    1.217305  (  0.792875  -0.668151   0.377132)
  31:      1275.46   12.148601  (  3.020382  -0.247250  -1.721847)
  32:      1315.01   33.140964  (  1.120664   3.980380   4.005203)
  33:      1328.62   15.996417  ( -0.749570  -1.964568   3.402210)
  34:      1346.91  122.463841  (  3.998542  -0.975534  10.272480)
  35:      1387.90   30.372911  ( -2.636429   0.085965   4.838880)
  36:      1455.00   78.444456  ( -0.973399   0.513207   8.788263)
  37:      1487.43   14.550099  (  0.153255   3.795580  -0.346679)
  38:      1499.06    1.250513  ( -0.455621   0.173016   1.006473)
  39:      1502.61   12.542084  ( -3.522391   0.112902  -0.349421)
  40:      1541.97   20.442786  ( -1.243190  -0.040135   4.346913)
  41:      3099.30    3.058631  (  1.222133   0.292855  -1.216247)
  42:      3111.82    1.801005  (  0.201788   1.321133  -0.122046)
  43:      3116.63    0.379073  (  0.178570  -0.317151  -0.496589)
  44:      3120.80    1.266145  ( -0.368796   0.012791  -1.063001)
  45:      3154.21    0.631498  ( -0.078485  -0.778682   0.137814)
  46:      3184.41    0.003658  (  0.031590  -0.047866  -0.019196)
  47:      3197.10    1.567701  (  0.116125   1.243385   0.090600)
  48:      3200.88    0.060201  ( -0.244417  -0.012990  -0.017116)
  49:      3522.35   84.179012  ( -5.512972  -0.027127   7.333854)
  50:      3847.99  111.633955  (  6.450282   3.119126  -7.765234)

--------------------------
THERMOCHEMISTRY AT 298.15K
--------------------------

Temperature         ... 298.15 K
Pressure            ... 1.00 atm
Total Mass          ... 100.14 AMU

Throughout the following assumptions are being made:
  (1) The electronic state is orbitally nondegenerate
  (2) There are no thermally accessible electronically excited states
  (3) Hindered rotations indicated by low frequency modes) are not
      treated as such but are treated as vibrations and this may
      case some error
  (4) All equations used are the standard statistical mechanics
      equations for an ideal gas
  (5) All vibrations are strinctly harmonic

------------
INNER ENERGY
------------

The inner energy is: U= E(el) + E(ZPE) + E(vib) + E(rot) + E(trans)
    E(el)   - is the total energy from the electronic structure calculation
              = E(kin-el) + E(nuc-el) + E(el-el) + E(nuc-nuc)
    E(ZPE)  - the the zero temperature vibrational energy from the frequency calculation
    E(vib)  - the the finite temperature correction to E(ZPE) due to population
              of excietd vibrational states
    E(rot)  - is the rotational thermal energy
    E(trans)- is the translational thermal energy

Summary of contributions to the inner energy U:
Electronic energy                ...   -325.98957708 Eh
Zero point energy                ...      0.15490643 Eh      97.21 kcal/mol
Thermal vibrational correction   ...      0.00305080 Eh       1.91 kcal/mol
Thermal rotational correction    ...      0.00141627 Eh       0.89 kcal/mol
Thermal translational correction ...      0.00141627 Eh       0.89 kcal/mol
-----------------------------------------------------------------------
Total thermal energy                   -325.82878731 Eh

Summary of corrections to the electronic energy:
(perhaps to be used in another calculation)
Total thermal correction                  0.00588334 Eh       3.69 kcal/mol
Non-thermal (ZPE) correction              0.15490643 Eh      97.21 kcal/mol
-----------------------------------------------------------------------
Total correction                          0.16078977 Eh     100.90 kcal/mol

--------
ENTHALPY
--------

The enthalpy is H = U + kB*T
                kB is Boltzmann's constant
Total free energy                 ...   -325.82878731 Eh
Thermal Enthalpy correction       ...      0.00094421 Eh       0.59 kcal/mol
-----------------------------------------------------------------------
Total Enthalpy                    ...   -325.82784310 Eh

-------
ENTROPY
-------

The entropy contributions are T*S = T*(S(el)+S(vib)+S(rot)+S(trans)
     S(el)   - electronic entropy
     S(vib)  - vibrational entropy
     S(rot)  - rotational entropy
     S(trans)- translational entropy
The entropies will be listed as mutliplied by the temperature to get
units of energy

Electronic entropy                ...      0.00000000 Eh      0.00 kcal/mol
Vibrational entropy               ...      0.00449644 Eh      2.82 kcal/mol
Rotational entropy                ...      0.01167052 Eh      7.32 kcal/mol
Translational entropy             ...      0.01887324 Eh     11.84 kcal/mol
-----------------------------------------------------------------------
Final entropy term                ...      0.03504020 Eh     21.99 kcal/mol

CAUTION: The rotational entropy is not quite correctly treated here
         because it includes a symmetry number that is not yet correctly
         implemented in ORCA!
For a nonlinear molecule the correct rotational entropy is:
    S(rot) = R*(ln(qrot/sn)+1.5)
    R    = 8.31441 J/mol/K = 1.987191683e-3 kcal/mol/K
    qrot = 156228.9331087
    sn is the rotational symmetry number. We have assumed 3 here
       if it is different for your molecule then you should correct
       the printed rotational entropy by manually evaluating the equation
       as given above

For convenience we print out the resulting values for sn=1 - 12:
 sn= 1  qrot/sn=  156228.9331 T*S(rot)=     7.97 kcal/mol T*S(tot)=    22.64 kcal/mol
 sn= 2  qrot/sn=   78114.4666 T*S(rot)=     7.56 kcal/mol T*S(tot)=    22.23 kcal/mol
 sn= 3  qrot/sn=   52076.3110 T*S(rot)=     7.32 kcal/mol T*S(tot)=    21.99 kcal/mol
 sn= 4  qrot/sn=   39057.2333 T*S(rot)=     7.15 kcal/mol T*S(tot)=    21.82 kcal/mol
 sn= 5  qrot/sn=   31245.7866 T*S(rot)=     7.02 kcal/mol T*S(tot)=    21.69 kcal/mol
 sn= 6  qrot/sn=   26038.1555 T*S(rot)=     6.91 kcal/mol T*S(tot)=    21.58 kcal/mol
 sn= 7  qrot/sn=   22318.4190 T*S(rot)=     6.82 kcal/mol T*S(tot)=    21.49 kcal/mol
 sn= 8  qrot/sn=   19528.6166 T*S(rot)=     6.74 kcal/mol T*S(tot)=    21.41 kcal/mol
 sn= 9  qrot/sn=   17358.7703 T*S(rot)=     6.67 kcal/mol T*S(tot)=    21.34 kcal/mol
 sn=10  qrot/sn=   15622.8933 T*S(rot)=     6.61 kcal/mol T*S(tot)=    21.27 kcal/mol
 sn=11  qrot/sn=   14202.6303 T*S(rot)=     6.55 kcal/mol T*S(tot)=    21.22 kcal/mol
 sn=12  qrot/sn=   13019.0778 T*S(rot)=     6.50 kcal/mol T*S(tot)=    21.17 kcal/mol

-------------------
GIBBS FREE ENTHALPY
-------------------

The Gibbs free enthalpy is G = H - T*S

Total enthalpy                    ...   -325.82784310 Eh
Total entropy correction          ...     -0.03504020 Eh    -21.99 kcal/mol
-----------------------------------------------------------------------
Final Gibbs free enthalpy         ...   -325.86288330 Eh

For completeness - the Gibbs free enthalpy minus the electronic energy
G-E(el)                           ...      0.12669378 Eh     79.50 kcal/mol

                             ****ORCA TERMINATED NORMALLY****
TOTAL RUN TIME: 0 days 0 hours 40 minutes 15 seconds 554 msec
