                         Program Version 3.0.3 - RELEASE   -
|  1> ! NORI PBE0 def2-TZVP UseSym TightOPT Freq TightSCF Grid3 FinalGrid5 XYZFile
|  2> % pal
|  3>     nprocs 8
|  4> end
|  5> %method
|  6>     SymThresh 5.0e-2
|  7> end
|  8> % geom
|  9>     MaxIter 10
| 10> end
| 11> % maxcore 2000
| 12> % output
| 13>     printlevel mini
| 14>     print[ P_Basis ] 0
| 15>     print[ P_SCFInfo ] 1
| 16>     print[ P_SCFIterInfo ] 1
| 17>     print[ P_OrbEn ] 0
| 18>     print[ P_Cartesian ] 0
| 19> end
| 20> % elprop
| 21>     Dipole false
| 22> end
| 23> *xyz 1 1
| 24>  O        1.5758070613    -0.4791985564    -0.6938688800
| 25>  C        2.7732840952    -0.1160978136    -0.1367523598
| 26>  C        3.5522481870    -1.1674299765     0.5596726090
| 27>  C        4.1272675761    -0.5323958842    -0.6788818159
| 28>  C        5.0872124676     0.6070478710    -0.4829291797
| 29>  N        4.1905399941     1.8121789797    -0.2522230540
| 30>  C        2.9198956927     1.3061371055     0.3865348584
| 31>  H        1.4701751076    -0.1102070476    -1.5770444373
| 32>  H        4.0101239401    -0.9465075124     1.5179132326
| 33>  H        3.1758325472    -2.1762851518     0.4491639436
| 34>  H        4.1948946657    -1.1207558015    -1.5846221901
| 35>  H        5.7243984087     0.8073859117    -1.3433471016
| 36>  H        5.7128019499     0.5047407428     0.4052612104
| 37>  H        3.9689862760     2.2376432401    -1.1526122937
| 38>  H        4.6481456718     2.5315661069     0.3092631179
| 39>  H        2.0853695823     1.9413163175     0.0935095486
| 40>  H        3.0502767768     1.3631714688     1.4681227915
| 41> *
| 42>
| 43>                          ****END OF INPUT****
 Total Charge           Charge          ....    1
 Multiplicity           Mult            ....    1
 Number of Electrons    NEL             ....   54
FINAL SINGLE POINT ENERGY      -325.992622026853
FINAL SINGLE POINT ENERGY      -325.992623055362
FINAL SINGLE POINT ENERGY      -325.992624042915

CARTESIAN COORDINATES (ANGSTROEM)
---------------------------------
  O      0.001869    0.003048    2.052582
  C     -0.157099   -0.205905    0.708113
  C     -1.535121   -0.418707    0.204663
  C     -0.774571    0.800991   -0.243776
  C     -0.051377    0.716058   -1.558527
  N      1.246145    0.000701   -1.221994
  C      0.962837   -0.906318   -0.049186
  H      0.613913    0.725542    2.228140
  H     -1.724413   -1.208786   -0.514067
  H     -2.325997   -0.250009    0.924220
  H     -1.086199    1.772187    0.117659
  H      0.188126    1.682787   -1.998906
  H     -0.564593    0.105796   -2.303355
  H      1.944597    0.693051   -0.950439
  H      1.627692   -0.504788   -2.022640
  H      1.862767   -1.016818    0.553745
  H      0.677212   -1.880036   -0.448082

FINAL SINGLE POINT ENERGY      -325.992624311749
                    ***********************HURRAY********************
 Multiplicity           Mult            ....    1
 Number of Electrons    NEL             ....   54
 Basis Dimension        Dim             ....  277
FINAL SINGLE POINT ENERGY      -325.992624509096

VIBRATIONAL FREQUENCIES
-----------------------

   0:         0.00 cm**-1
   1:         0.00 cm**-1
   2:         0.00 cm**-1
   3:         0.00 cm**-1
   4:         0.00 cm**-1
   5:         0.00 cm**-1
   6:       139.46 cm**-1
   7:       215.03 cm**-1
   8:       311.61 cm**-1
   9:       386.16 cm**-1
  10:       401.28 cm**-1
  11:       449.50 cm**-1
  12:       591.33 cm**-1
  13:       603.29 cm**-1
  14:       752.15 cm**-1
  15:       837.40 cm**-1
  16:       850.19 cm**-1
  17:       868.46 cm**-1
  18:       898.21 cm**-1
  19:       940.87 cm**-1
  20:       961.64 cm**-1
  21:       965.59 cm**-1
  22:       995.53 cm**-1
  23:      1051.42 cm**-1
  24:      1081.04 cm**-1
  25:      1095.05 cm**-1
  26:      1122.21 cm**-1
  27:      1192.87 cm**-1
  28:      1241.26 cm**-1
  29:      1261.27 cm**-1
  30:      1291.12 cm**-1
  31:      1303.94 cm**-1
  32:      1324.49 cm**-1
  33:      1381.18 cm**-1
  34:      1384.06 cm**-1
  35:      1391.31 cm**-1
  36:      1432.41 cm**-1
  37:      1489.42 cm**-1
  38:      1494.69 cm**-1
  39:      1504.79 cm**-1
  40:      1650.25 cm**-1
  41:      3099.75 cm**-1
  42:      3105.95 cm**-1
  43:      3149.56 cm**-1
  44:      3165.32 cm**-1
  45:      3173.28 cm**-1
  46:      3216.79 cm**-1
  47:      3251.09 cm**-1
  48:      3456.28 cm**-1
  49:      3515.18 cm**-1
  50:      3828.13 cm**-1

IR SPECTRUM
-----------

 Mode    freq (cm**-1)   T**2         TX         TY         TZ
-------------------------------------------------------------------
   6:       139.46    3.190638  (  0.237872  -1.290718  -1.211652)
   7:       215.03    7.219433  ( -2.280323   1.088387  -0.913770)
   8:       311.61  107.467031  (  7.636819  -6.927730   1.073583)
   9:       386.16    2.522572  (  1.262812  -0.877514  -0.397300)
  10:       401.28    5.084961  (  1.582171  -1.327590  -0.905096)
  11:       449.50    1.619552  (  0.466978   1.181912   0.067581)
  12:       591.33   14.055642  ( -0.433002   0.963561   3.597180)
  13:       603.29    5.785592  ( -0.929403   1.086528  -1.934234)
  14:       752.15    1.719541  (  0.482667  -1.022826   0.663626)
  15:       837.40    0.385547  (  0.058352   0.421279  -0.452399)
  16:       850.19    6.516033  ( -2.014554  -1.499239  -0.458136)
  17:       868.46    6.318462  ( -1.205726  -2.097630  -0.681642)
  18:       898.21   16.849526  (  1.857521  -2.466830  -2.704421)
  19:       940.87   14.494163  (  1.879705  -1.246160   3.067240)
  20:       961.64    1.305878  ( -0.571026  -0.983938  -0.108048)
  21:       965.59    5.073118  (  1.266237  -1.101012  -1.502509)
  22:       995.53    3.764276  (  1.683654   0.749503   0.606490)
  23:      1051.42    9.185508  (  0.760221  -0.203767   2.926782)
  24:      1081.04    2.399289  (  0.063624  -0.898458  -1.260164)
  25:      1095.05    3.739324  ( -1.449684   1.273616  -0.125072)
  26:      1122.21    5.488989  (  0.247784  -0.599351   2.251304)
  27:      1192.87    1.877404  (  0.712835  -1.095132  -0.412259)
  28:      1241.26   60.018889  (  2.034444  -2.218897   7.138377)
  29:      1261.27   59.268735  ( -0.012337   0.304410   7.692588)
  30:      1291.12   53.813668  (  1.137080  -2.035470  -6.955399)
  31:      1303.94   18.933078  ( -0.180942   0.333212   4.334663)
  32:      1324.49    5.550812  (  0.601872   2.214133   0.534954)
  33:      1381.18    5.134543  (  0.294014  -1.030032  -1.996781)
  34:      1384.06   12.921847  ( -1.463459   1.571716  -2.882680)
  35:      1391.31   27.986095  (  1.875967  -3.223138   3.752096)
  36:      1432.41   21.454574  (  0.053195   2.008185  -4.173600)
  37:      1489.42   24.970351  ( -3.180302   1.644527  -3.485908)
  38:      1494.69    5.215961  (  0.933983   1.845669   0.968062)
  39:      1504.79   30.136525  (  0.685839   2.497438   4.840346)
  40:      1650.25   66.497900  (  7.284540   1.382863  -3.394270)
  41:      3099.75    3.742858  (  0.138405  -0.014962  -1.929632)
  42:      3105.95    1.069611  ( -0.604493   0.780156   0.309120)
  43:      3149.56    2.445088  ( -0.604572   0.920656   1.109943)
  44:      3165.32    0.068183  ( -0.051144   0.110919   0.230790)
  45:      3173.28    0.616243  ( -0.618730   0.456327   0.158689)
  46:      3216.79    1.862601  ( -0.729927   1.149549  -0.091356)
  47:      3251.09    2.168078  ( -1.359560  -0.065562   0.561583)
  48:      3456.28   56.165045  ( -6.435595  -0.724127   3.771446)
  49:      3515.18   71.325290  ( -2.088289  -6.224344  -5.312427)
  50:      3828.13   58.846941  ( -3.710856  -4.908440  -4.580798)

--------------------------
THERMOCHEMISTRY AT 298.15K
--------------------------

Temperature         ... 298.15 K
Pressure            ... 1.00 atm
Total Mass          ... 100.14 AMU

Throughout the following assumptions are being made:
  (1) The electronic state is orbitally nondegenerate
  (2) There are no thermally accessible electronically excited states
  (3) Hindered rotations indicated by low frequency modes) are not
      treated as such but are treated as vibrations and this may
      case some error
  (4) All equations used are the standard statistical mechanics
      equations for an ideal gas
  (5) All vibrations are strinctly harmonic

------------
INNER ENERGY
------------

The inner energy is: U= E(el) + E(ZPE) + E(vib) + E(rot) + E(trans)
    E(el)   - is the total energy from the electronic structure calculation
              = E(kin-el) + E(nuc-el) + E(el-el) + E(nuc-nuc)
    E(ZPE)  - the the zero temperature vibrational energy from the frequency calculation
    E(vib)  - the the finite temperature correction to E(ZPE) due to population
              of excietd vibrational states
    E(rot)  - is the rotational thermal energy
    E(trans)- is the translational thermal energy

Summary of contributions to the inner energy U:
Electronic energy                ...   -325.99262451 Eh
Zero point energy                ...      0.15450955 Eh      96.96 kcal/mol
Thermal vibrational correction   ...      0.00356459 Eh       2.24 kcal/mol
Thermal rotational correction    ...      0.00141627 Eh       0.89 kcal/mol
Thermal translational correction ...      0.00141627 Eh       0.89 kcal/mol
-----------------------------------------------------------------------
Total thermal energy                   -325.83171782 Eh

Summary of corrections to the electronic energy:
(perhaps to be used in another calculation)
Total thermal correction                  0.00639714 Eh       4.01 kcal/mol
Non-thermal (ZPE) correction              0.15450955 Eh      96.96 kcal/mol
-----------------------------------------------------------------------
Total correction                          0.16090669 Eh     100.97 kcal/mol

--------
ENTHALPY
--------

The enthalpy is H = U + kB*T
                kB is Boltzmann's constant
Total free energy                 ...   -325.83171782 Eh
Thermal Enthalpy correction       ...      0.00094421 Eh       0.59 kcal/mol
-----------------------------------------------------------------------
Total Enthalpy                    ...   -325.83077361 Eh

-------
ENTROPY
-------

The entropy contributions are T*S = T*(S(el)+S(vib)+S(rot)+S(trans)
     S(el)   - electronic entropy
     S(vib)  - vibrational entropy
     S(rot)  - rotational entropy
     S(trans)- translational entropy
The entropies will be listed as mutliplied by the temperature to get
units of energy

Electronic entropy                ...      0.00000000 Eh      0.00 kcal/mol
Vibrational entropy               ...      0.00557887 Eh      3.50 kcal/mol
Rotational entropy                ...      0.01179160 Eh      7.40 kcal/mol
Translational entropy             ...      0.01887324 Eh     11.84 kcal/mol
-----------------------------------------------------------------------
Final entropy term                ...      0.03624371 Eh     22.74 kcal/mol

CAUTION: The rotational entropy is not quite correctly treated here
         because it includes a symmetry number that is not yet correctly
         implemented in ORCA!
For a nonlinear molecule the correct rotational entropy is:
    S(rot) = R*(ln(qrot/sn)+1.5)
    R    = 8.31441 J/mol/K = 1.987191683e-3 kcal/mol/K
    qrot = 177604.8667553
    sn is the rotational symmetry number. We have assumed 3 here
       if it is different for your molecule then you should correct
       the printed rotational entropy by manually evaluating the equation
       as given above

For convenience we print out the resulting values for sn=1 - 12:
 sn= 1  qrot/sn=  177604.8668 T*S(rot)=     8.05 kcal/mol T*S(tot)=    23.39 kcal/mol
 sn= 2  qrot/sn=   88802.4334 T*S(rot)=     7.64 kcal/mol T*S(tot)=    22.98 kcal/mol
 sn= 3  qrot/sn=   59201.6223 T*S(rot)=     7.40 kcal/mol T*S(tot)=    22.74 kcal/mol
 sn= 4  qrot/sn=   44401.2167 T*S(rot)=     7.23 kcal/mol T*S(tot)=    22.57 kcal/mol
 sn= 5  qrot/sn=   35520.9734 T*S(rot)=     7.10 kcal/mol T*S(tot)=    22.44 kcal/mol
 sn= 6  qrot/sn=   29600.8111 T*S(rot)=     6.99 kcal/mol T*S(tot)=    22.33 kcal/mol
 sn= 7  qrot/sn=   25372.1238 T*S(rot)=     6.90 kcal/mol T*S(tot)=    22.24 kcal/mol
 sn= 8  qrot/sn=   22200.6083 T*S(rot)=     6.82 kcal/mol T*S(tot)=    22.16 kcal/mol
 sn= 9  qrot/sn=   19733.8741 T*S(rot)=     6.75 kcal/mol T*S(tot)=    22.09 kcal/mol
 sn=10  qrot/sn=   17760.4867 T*S(rot)=     6.69 kcal/mol T*S(tot)=    22.03 kcal/mol
 sn=11  qrot/sn=   16145.8970 T*S(rot)=     6.63 kcal/mol T*S(tot)=    21.97 kcal/mol
 sn=12  qrot/sn=   14800.4056 T*S(rot)=     6.58 kcal/mol T*S(tot)=    21.92 kcal/mol

-------------------
GIBBS FREE ENTHALPY
-------------------

The Gibbs free enthalpy is G = H - T*S

Total enthalpy                    ...   -325.83077361 Eh
Total entropy correction          ...     -0.03624371 Eh    -22.74 kcal/mol
-----------------------------------------------------------------------
Final Gibbs free enthalpy         ...   -325.86701732 Eh

For completeness - the Gibbs free enthalpy minus the electronic energy
G-E(el)                           ...      0.12560719 Eh     78.82 kcal/mol

                             ****ORCA TERMINATED NORMALLY****
TOTAL RUN TIME: 0 days 0 hours 41 minutes 20 seconds 754 msec
