                         Program Version 3.0.3 - RELEASE   -
|  1> ! NORI PBE0 def2-TZVP UseSym TightOPT Freq TightSCF Grid3 FinalGrid5 XYZFile
|  2> % pal
|  3>     nprocs 8
|  4> end
|  5> %method
|  6>     SymThresh 5.0e-2
|  7> end
|  8> % geom
|  9>     MaxIter 10
| 10> end
| 11> % maxcore 2000
| 12> % output
| 13>     printlevel mini
| 14>     print[ P_Basis ] 0
| 15>     print[ P_SCFInfo ] 1
| 16>     print[ P_SCFIterInfo ] 1
| 17>     print[ P_OrbEn ] 0
| 18>     print[ P_Cartesian ] 0
| 19> end
| 20> % elprop
| 21>     Dipole false
| 22> end
| 23> *xyz 1 1
| 24>  O        1.0616883827    -0.0328471615    -0.1674089490
| 25>  C        2.4165068988     0.1161228907    -0.1551047068
| 26>  C        3.4006166365    -0.4633395667    -1.2127774086
| 27>  C        4.3892149704    -0.3240311385    -0.0539252976
| 28>  C        3.2365579027    -0.6596184805     0.8951547483
| 29>  N        4.4422207998     1.1890788526     0.0963876962
| 30>  C        2.9701404295     1.5413803596     0.0241143429
| 31>  H        0.6697169117     0.3426447669    -0.9631936835
| 32>  H        3.5876917520     0.0852142489    -2.1389140623
| 33>  H        3.1927280277    -1.5104545480    -1.4212055258
| 34>  H        5.3802618778    -0.7670678719    -0.0186822638
| 35>  H        3.0069039991    -1.7228343647     0.8719242025
| 36>  H        3.2673522452    -0.2950858436     1.9241237139
| 37>  H        4.9839162878     1.6259753804    -0.6487484857
| 38>  H        4.8599855275     1.4644928077     0.9848352834
| 39>  H        2.6520134055     2.0178437922     0.9499843892
| 40>  H        2.7919439453     2.2055958763    -0.8212039932
| 41> *
| 42>
| 43>                          ****END OF INPUT****
 Total Charge           Charge          ....    1
 Multiplicity           Mult            ....    1
 Number of Electrons    NEL             ....   54
FINAL SINGLE POINT ENERGY      -325.994188184038

CARTESIAN COORDINATES (ANGSTROEM)
---------------------------------
  O      0.000009    0.000152    2.061527
  C     -0.025313    0.037804    0.699276
  C     -0.883635    1.007740   -0.163891
  C     -0.692968   -0.094716   -1.206815
  C     -0.726045   -1.106960   -0.059710
  N      0.806047    0.000172   -1.451838
  C      1.328073    0.099121   -0.032324
  H      0.293298    0.838187    2.435146
  H     -0.514746    2.013070   -0.381164
  H     -1.915492    1.042195    0.179580
  H     -1.248213   -0.181291   -2.136098
  H     -1.741825   -1.258346    0.299628
  H     -0.212506   -2.063558   -0.175447
  H      1.048000    0.816234   -2.013189
  H      1.161352   -0.824269   -1.935450
  H      1.979730   -0.744713    0.187744
  H      1.869379    1.035763    0.095858

FINAL SINGLE POINT ENERGY      -325.994189058705
                    ***********************HURRAY********************
 Multiplicity           Mult            ....    1
 Number of Electrons    NEL             ....   54
 Basis Dimension        Dim             ....  277
FINAL SINGLE POINT ENERGY      -325.994189286956

VIBRATIONAL FREQUENCIES
-----------------------

   0:         0.00 cm**-1
   1:         0.00 cm**-1
   2:         0.00 cm**-1
   3:         0.00 cm**-1
   4:         0.00 cm**-1
   5:         0.00 cm**-1
   6:       250.75 cm**-1
   7:       273.07 cm**-1
   8:       352.39 cm**-1
   9:       394.64 cm**-1
  10:       453.01 cm**-1
  11:       533.59 cm**-1
  12:       591.45 cm**-1
  13:       697.35 cm**-1
  14:       826.16 cm**-1
  15:       845.62 cm**-1
  16:       854.26 cm**-1
  17:       864.36 cm**-1
  18:       917.61 cm**-1
  19:       937.06 cm**-1
  20:       962.90 cm**-1
  21:       981.93 cm**-1
  22:      1015.12 cm**-1
  23:      1022.60 cm**-1
  24:      1104.48 cm**-1
  25:      1117.72 cm**-1
  26:      1147.00 cm**-1
  27:      1187.31 cm**-1
  28:      1205.93 cm**-1
  29:      1243.48 cm**-1
  30:      1259.07 cm**-1
  31:      1263.19 cm**-1
  32:      1310.09 cm**-1
  33:      1316.89 cm**-1
  34:      1341.94 cm**-1
  35:      1373.37 cm**-1
  36:      1421.94 cm**-1
  37:      1473.65 cm**-1
  38:      1498.69 cm**-1
  39:      1519.78 cm**-1
  40:      1654.62 cm**-1
  41:      3085.55 cm**-1
  42:      3095.43 cm**-1
  43:      3113.11 cm**-1
  44:      3175.25 cm**-1
  45:      3181.44 cm**-1
  46:      3182.82 cm**-1
  47:      3188.40 cm**-1
  48:      3465.22 cm**-1
  49:      3526.42 cm**-1
  50:      3835.27 cm**-1

IR SPECTRUM
-----------

 Mode    freq (cm**-1)   T**2         TX         TY         TZ
-------------------------------------------------------------------
   6:       250.75  118.893669  (-10.215868   3.756799  -0.645110)
   7:       273.07    4.243496  (  1.611571   0.680306  -1.087897)
   8:       352.39    1.455420  (  0.853298  -0.077810   0.849263)
   9:       394.64   13.317469  (  2.176000  -2.307561  -1.804898)
  10:       453.01    3.629804  (  0.568398   0.651369  -1.697777)
  11:       533.59    1.597589  (  1.142281  -0.016323   0.540848)
  12:       591.45   11.959192  ( -0.560121   0.001285   3.412544)
  13:       697.35    0.883576  ( -0.422416  -0.067603  -0.837001)
  14:       826.16    2.665540  (  1.293556   0.305783   0.948024)
  15:       845.62    2.632321  ( -1.063218   0.329651   1.180347)
  16:       854.26    0.727420  ( -0.799982  -0.011720   0.295485)
  17:       864.36    4.417424  ( -0.260491   2.072974   0.228794)
  18:       917.61    4.113011  ( -0.347816   1.288640   1.526906)
  19:       937.06    2.424863  (  0.697120   0.140055   1.385378)
  20:       962.90    2.721995  ( -0.227721  -1.189825   1.120024)
  21:       981.93    1.265232  (  1.016262   0.013465  -0.481935)
  22:      1015.12    8.357603  (  0.576037  -0.627301  -2.762658)
  23:      1022.60    6.717153  ( -2.499745  -0.090393  -0.678421)
  24:      1104.48   30.380755  ( -1.176893   1.388505  -5.202666)
  25:      1117.72    5.638583  ( -1.460043  -0.930386   1.625189)
  26:      1147.00    3.171138  (  0.049614   1.729236   0.422398)
  27:      1187.31   27.207898  (  2.207430   0.573805   4.691044)
  28:      1205.93    9.088752  ( -2.777935   1.139237   0.271975)
  29:      1243.48    9.612991  (  2.262125   0.674801  -2.010081)
  30:      1259.07   44.667752  ( -2.677883  -0.350922  -6.113391)
  31:      1263.19   18.957633  ( -3.814475  -0.071778   2.098156)
  32:      1310.09   61.362790  (  1.048818   0.846474  -7.716622)
  33:      1316.89    0.638181  ( -0.151129   0.763757   0.178928)
  34:      1341.94   50.499282  (  0.841175   0.930023  -6.994767)
  35:      1373.37   66.239846  (  4.968630   0.560258   6.421734)
  36:      1421.94   58.334244  ( -0.607317   0.473874   7.598740)
  37:      1473.65   16.153924  ( -0.354434   4.002250  -0.101476)
  38:      1498.69   13.183575  (  3.566654   0.317345   0.601534)
  39:      1519.78    1.989093  (  0.772391   0.306102   1.139652)
  40:      1654.62   68.147914  (  4.316853  -0.032004  -7.036453)
  41:      3085.55    9.163721  (  0.775937   2.890648  -0.453651)
  42:      3095.43    4.919140  (  1.304189  -1.720822  -0.506953)
  43:      3113.11    2.132771  ( -1.255191  -0.517859  -0.537669)
  44:      3175.25    4.614520  ( -0.215239   2.129714  -0.180302)
  45:      3181.44    0.554553  (  0.050980   0.725405   0.160443)
  46:      3182.82    0.631307  ( -0.446681  -0.656799  -0.019980)
  47:      3188.40    0.565184  (  0.128180  -0.006002  -0.740755)
  48:      3465.22   62.994794  ( -3.693254   0.237823   7.021261)
  49:      3526.42   73.211235  ( -0.639518   8.524832  -0.359859)
  50:      3835.27   89.571961  ( -2.030136  -5.996273  -7.035284)

--------------------------
THERMOCHEMISTRY AT 298.15K
--------------------------

Temperature         ... 298.15 K
Pressure            ... 1.00 atm
Total Mass          ... 100.14 AMU

Throughout the following assumptions are being made:
  (1) The electronic state is orbitally nondegenerate
  (2) There are no thermally accessible electronically excited states
  (3) Hindered rotations indicated by low frequency modes) are not
      treated as such but are treated as vibrations and this may
      case some error
  (4) All equations used are the standard statistical mechanics
      equations for an ideal gas
  (5) All vibrations are strinctly harmonic

------------
INNER ENERGY
------------

The inner energy is: U= E(el) + E(ZPE) + E(vib) + E(rot) + E(trans)
    E(el)   - is the total energy from the electronic structure calculation
              = E(kin-el) + E(nuc-el) + E(el-el) + E(nuc-nuc)
    E(ZPE)  - the the zero temperature vibrational energy from the frequency calculation
    E(vib)  - the the finite temperature correction to E(ZPE) due to population
              of excietd vibrational states
    E(rot)  - is the rotational thermal energy
    E(trans)- is the translational thermal energy

Summary of contributions to the inner energy U:
Electronic energy                ...   -325.99418929 Eh
Zero point energy                ...      0.15505643 Eh      97.30 kcal/mol
Thermal vibrational correction   ...      0.00307112 Eh       1.93 kcal/mol
Thermal rotational correction    ...      0.00141627 Eh       0.89 kcal/mol
Thermal translational correction ...      0.00141627 Eh       0.89 kcal/mol
-----------------------------------------------------------------------
Total thermal energy                   -325.83322919 Eh

Summary of corrections to the electronic energy:
(perhaps to be used in another calculation)
Total thermal correction                  0.00590366 Eh       3.70 kcal/mol
Non-thermal (ZPE) correction              0.15505643 Eh      97.30 kcal/mol
-----------------------------------------------------------------------
Total correction                          0.16096009 Eh     101.00 kcal/mol

--------
ENTHALPY
--------

The enthalpy is H = U + kB*T
                kB is Boltzmann's constant
Total free energy                 ...   -325.83322919 Eh
Thermal Enthalpy correction       ...      0.00094421 Eh       0.59 kcal/mol
-----------------------------------------------------------------------
Total Enthalpy                    ...   -325.83228499 Eh

-------
ENTROPY
-------

The entropy contributions are T*S = T*(S(el)+S(vib)+S(rot)+S(trans)
     S(el)   - electronic entropy
     S(vib)  - vibrational entropy
     S(rot)  - rotational entropy
     S(trans)- translational entropy
The entropies will be listed as mutliplied by the temperature to get
units of energy

Electronic entropy                ...      0.00000000 Eh      0.00 kcal/mol
Vibrational entropy               ...      0.00447019 Eh      2.81 kcal/mol
Rotational entropy                ...      0.01168340 Eh      7.33 kcal/mol
Translational entropy             ...      0.01887324 Eh     11.84 kcal/mol
-----------------------------------------------------------------------
Final entropy term                ...      0.03502683 Eh     21.98 kcal/mol

CAUTION: The rotational entropy is not quite correctly treated here
         because it includes a symmetry number that is not yet correctly
         implemented in ORCA!
For a nonlinear molecule the correct rotational entropy is:
    S(rot) = R*(ln(qrot/sn)+1.5)
    R    = 8.31441 J/mol/K = 1.987191683e-3 kcal/mol/K
    qrot = 158374.6371161
    sn is the rotational symmetry number. We have assumed 3 here
       if it is different for your molecule then you should correct
       the printed rotational entropy by manually evaluating the equation
       as given above

For convenience we print out the resulting values for sn=1 - 12:
 sn= 1  qrot/sn=  158374.6371 T*S(rot)=     7.98 kcal/mol T*S(tot)=    22.63 kcal/mol
 sn= 2  qrot/sn=   79187.3186 T*S(rot)=     7.57 kcal/mol T*S(tot)=    22.22 kcal/mol
 sn= 3  qrot/sn=   52791.5457 T*S(rot)=     7.33 kcal/mol T*S(tot)=    21.98 kcal/mol
 sn= 4  qrot/sn=   39593.6593 T*S(rot)=     7.16 kcal/mol T*S(tot)=    21.81 kcal/mol
 sn= 5  qrot/sn=   31674.9274 T*S(rot)=     7.03 kcal/mol T*S(tot)=    21.68 kcal/mol
 sn= 6  qrot/sn=   26395.7729 T*S(rot)=     6.92 kcal/mol T*S(tot)=    21.57 kcal/mol
 sn= 7  qrot/sn=   22624.9482 T*S(rot)=     6.83 kcal/mol T*S(tot)=    21.48 kcal/mol
 sn= 8  qrot/sn=   19796.8296 T*S(rot)=     6.75 kcal/mol T*S(tot)=    21.40 kcal/mol
 sn= 9  qrot/sn=   17597.1819 T*S(rot)=     6.68 kcal/mol T*S(tot)=    21.33 kcal/mol
 sn=10  qrot/sn=   15837.4637 T*S(rot)=     6.62 kcal/mol T*S(tot)=    21.27 kcal/mol
 sn=11  qrot/sn=   14397.6943 T*S(rot)=     6.56 kcal/mol T*S(tot)=    21.21 kcal/mol
 sn=12  qrot/sn=   13197.8864 T*S(rot)=     6.51 kcal/mol T*S(tot)=    21.16 kcal/mol

-------------------
GIBBS FREE ENTHALPY
-------------------

The Gibbs free enthalpy is G = H - T*S

Total enthalpy                    ...   -325.83228499 Eh
Total entropy correction          ...     -0.03502683 Eh    -21.98 kcal/mol
-----------------------------------------------------------------------
Final Gibbs free enthalpy         ...   -325.86731181 Eh

For completeness - the Gibbs free enthalpy minus the electronic energy
G-E(el)                           ...      0.12687748 Eh     79.62 kcal/mol

                             ****ORCA TERMINATED NORMALLY****
TOTAL RUN TIME: 0 days 0 hours 37 minutes 58 seconds 788 msec
