                         Program Version 3.0.3 - RELEASE   -
|  1> ! NORI PBE0 def2-TZVP UseSym TightOPT Freq TightSCF Grid3 FinalGrid5 XYZFile
|  2> % pal
|  3>     nprocs 8
|  4> end
|  5> %method
|  6>     SymThresh 5.0e-2
|  7> end
|  8> % geom
|  9>     MaxIter 10
| 10> end
| 11> % maxcore 2000
| 12> % output
| 13>     printlevel mini
| 14>     print[ P_Basis ] 0
| 15>     print[ P_SCFInfo ] 1
| 16>     print[ P_SCFIterInfo ] 1
| 17>     print[ P_OrbEn ] 0
| 18>     print[ P_Cartesian ] 0
| 19> end
| 20> % elprop
| 21>     Dipole false
| 22> end
| 23> *xyz 1 1
| 24>  O        1.1505045197     0.0205553032    -0.0386062098
| 25>  C        2.5368435114    -0.0660117561    -0.0142925127
| 26>  C        3.1243235860    -1.0667900912    -1.0471471320
| 27>  C        4.6208453622    -0.8303127344    -0.9637649758
| 28>  C        4.6203939244     0.7237707991    -0.9316657207
| 29>  C        3.1242618629     0.9626957185    -0.9980140559
| 30>  N        2.7081179683    -0.0279149209    -2.0892481817
| 31>  H        0.7574944829    -0.5925029570     0.5904873006
| 32>  H        2.9673558650    -0.0885173262     0.9886035111
| 33>  H        2.7257754093    -2.0677056659    -1.1952127613
| 34>  H        5.1617116448    -1.2474215570    -1.8141707471
| 35>  H        5.0304427832    -1.2794737938    -0.0592515870
| 36>  H        5.0349076693     1.1373590106    -0.0128471617
| 37>  H        5.1533684812     1.1756659002    -1.7689446467
| 38>  H        2.7169475191     1.9662308744    -1.0919261395
| 39>  H        1.6951933771    -0.0220465895    -2.2179699393
| 40>  H        3.1981420332    -0.0067302140    -2.9830790407
| 41> *
| 42>
| 43>                          ****END OF INPUT****
 Total Charge           Charge          ....    1
 Multiplicity           Mult            ....    1
 Number of Electrons    NEL             ....   54
FINAL SINGLE POINT ENERGY      -325.999396148966
FINAL SINGLE POINT ENERGY      -325.999396897903

CARTESIAN COORDINATES (ANGSTROEM)
---------------------------------
  O      0.000080   -0.000189    2.093564
  C     -0.573843    0.037871    0.828557
  C      0.125842    1.020444   -0.150395
  C     -0.540270    0.731990   -1.483226
  C     -0.543638   -0.821361   -1.422406
  C      0.113976   -1.007744   -0.068306
  N      1.263938   -0.000291   -0.150012
  H     -0.429956    0.626204    2.684214
  H     -1.665051    0.042815    0.830274
  H      0.403254    2.034826    0.125914
  H      0.018776    1.132349   -2.329721
  H     -1.540188    1.164059   -1.513696
  H     -1.543973   -1.252775   -1.426569
  H      0.022361   -1.288081   -2.229233
  H      0.377947   -1.995998    0.299235
  H      1.783537    0.029524    0.728573
  H      1.890249   -0.035880   -0.953671

FINAL SINGLE POINT ENERGY      -325.999397192122
                    ***********************HURRAY********************
 Multiplicity           Mult            ....    1
 Number of Electrons    NEL             ....   54
 Basis Dimension        Dim             ....  277
FINAL SINGLE POINT ENERGY      -325.999397225033

VIBRATIONAL FREQUENCIES
-----------------------

   0:         0.00 cm**-1
   1:         0.00 cm**-1
   2:         0.00 cm**-1
   3:         0.00 cm**-1
   4:         0.00 cm**-1
   5:         0.00 cm**-1
   6:       261.79 cm**-1
   7:       291.16 cm**-1
   8:       331.95 cm**-1
   9:       353.61 cm**-1
  10:       430.06 cm**-1
  11:       567.85 cm**-1
  12:       653.53 cm**-1
  13:       792.20 cm**-1
  14:       811.87 cm**-1
  15:       816.01 cm**-1
  16:       910.15 cm**-1
  17:       921.52 cm**-1
  18:       931.74 cm**-1
  19:       948.99 cm**-1
  20:       992.65 cm**-1
  21:      1023.44 cm**-1
  22:      1034.87 cm**-1
  23:      1062.32 cm**-1
  24:      1105.44 cm**-1
  25:      1123.27 cm**-1
  26:      1164.10 cm**-1
  27:      1190.96 cm**-1
  28:      1197.55 cm**-1
  29:      1237.32 cm**-1
  30:      1260.03 cm**-1
  31:      1284.87 cm**-1
  32:      1287.83 cm**-1
  33:      1300.34 cm**-1
  34:      1316.20 cm**-1
  35:      1337.63 cm**-1
  36:      1350.55 cm**-1
  37:      1437.43 cm**-1
  38:      1485.81 cm**-1
  39:      1504.55 cm**-1
  40:      1618.56 cm**-1
  41:      3101.92 cm**-1
  42:      3107.36 cm**-1
  43:      3119.94 cm**-1
  44:      3149.38 cm**-1
  45:      3162.90 cm**-1
  46:      3176.16 cm**-1
  47:      3183.52 cm**-1
  48:      3448.66 cm**-1
  49:      3534.81 cm**-1
  50:      3851.75 cm**-1

IR SPECTRUM
-----------

 Mode    freq (cm**-1)   T**2         TX         TY         TZ
-------------------------------------------------------------------
   6:       261.79    9.077353  ( -1.664650   0.247367   2.499020)
   7:       291.16    0.926734  (  0.829723  -0.132574  -0.469806)
   8:       331.95  108.330006  (  7.115211   7.102720  -2.693538)
   9:       353.61   28.621244  (  2.986330   2.594010  -3.601970)
  10:       430.06   16.481501  ( -0.824080  -0.689046   3.915049)
  11:       567.85    2.710395  (  0.185914   0.592749  -1.524625)
  12:       653.53    0.213716  ( -0.018842  -0.007888  -0.461843)
  13:       792.20    4.637569  (  0.521298   2.089156   0.035267)
  14:       811.87    3.620714  ( -0.913619   0.045284  -1.668522)
  15:       816.01    7.477300  (  2.080997   0.199446   1.762661)
  16:       910.15    6.756515  (  1.000676   1.989407   1.340680)
  17:       921.52    5.940366  ( -1.703658   0.866781  -1.512152)
  18:       931.74    1.756567  (  1.259864  -0.340341   0.231251)
  19:       948.99    1.422327  ( -0.350699   0.997731  -0.551244)
  20:       992.65   11.059583  ( -0.375202  -0.291289   3.291498)
  21:      1023.44    0.762030  ( -0.753836  -0.248722   0.363178)
  22:      1034.87    7.257334  ( -0.990301  -1.084734  -2.258316)
  23:      1062.32   25.948481  ( -0.103242   0.899219  -5.012906)
  24:      1105.44   19.123777  (  2.205647  -0.171973   3.772178)
  25:      1123.27    4.294116  ( -0.702617  -1.940649  -0.185282)
  26:      1164.10    9.929826  (  1.080668   2.930898   0.414509)
  27:      1190.96   14.000026  ( -1.735759   3.255003   0.626197)
  28:      1197.55   94.056941  ( -2.232859   1.380597  -9.336232)
  29:      1237.32   46.783391  ( -1.473574   5.821572  -3.274334)
  30:      1260.03   21.584467  (  1.598812   2.360856   3.668055)
  31:      1284.87   14.972190  (  0.825043  -3.146639   2.095270)
  32:      1287.83   21.501841  ( -1.388187  -1.900031  -3.995580)
  33:      1300.34    2.149145  (  0.159831   0.485272   1.374085)
  34:      1316.20    0.850284  ( -0.276875  -0.557920   0.679963)
  35:      1337.63    8.180787  ( -0.721356   2.225479  -1.645502)
  36:      1350.55   24.594841  ( -0.950461  -4.270913  -2.334687)
  37:      1437.43    5.643019  (  1.258151   0.392501  -1.976365)
  38:      1485.81    4.651509  (  0.084644  -2.150995   0.132539)
  39:      1504.55   18.101832  ( -2.617981  -0.101650  -3.352264)
  40:      1618.56   85.751033  (  9.135955  -0.073036  -1.509973)
  41:      3101.92    2.969930  ( -0.068902  -1.682205   0.367924)
  42:      3107.36    2.152001  (  0.781803  -0.353453  -1.189898)
  43:      3119.94    6.701392  ( -2.223773  -0.102592  -1.321249)
  44:      3149.38    0.059287  ( -0.122856  -0.123851   0.169866)
  45:      3162.90    1.038652  ( -0.431685   0.092654   0.918540)
  46:      3176.16    1.277685  ( -0.055153   0.923012   0.650149)
  47:      3183.52    0.175086  (  0.165049   0.203824  -0.326039)
  48:      3448.66   68.797784  ( -7.767770  -0.044051  -2.908195)
  49:      3534.81   81.040391  ( -0.404416   0.360704   8.985919)
  50:      3851.75  128.827190  ( -3.281595   5.226238   9.526005)

--------------------------
THERMOCHEMISTRY AT 298.15K
--------------------------

Temperature         ... 298.15 K
Pressure            ... 1.00 atm
Total Mass          ... 100.14 AMU

Throughout the following assumptions are being made:
  (1) The electronic state is orbitally nondegenerate
  (2) There are no thermally accessible electronically excited states
  (3) Hindered rotations indicated by low frequency modes) are not
      treated as such but are treated as vibrations and this may
      case some error
  (4) All equations used are the standard statistical mechanics
      equations for an ideal gas
  (5) All vibrations are strinctly harmonic

------------
INNER ENERGY
------------

The inner energy is: U= E(el) + E(ZPE) + E(vib) + E(rot) + E(trans)
    E(el)   - is the total energy from the electronic structure calculation
              = E(kin-el) + E(nuc-el) + E(el-el) + E(nuc-nuc)
    E(ZPE)  - the the zero temperature vibrational energy from the frequency calculation
    E(vib)  - the the finite temperature correction to E(ZPE) due to population
              of excietd vibrational states
    E(rot)  - is the rotational thermal energy
    E(trans)- is the translational thermal energy

Summary of contributions to the inner energy U:
Electronic energy                ...   -325.99939723 Eh
Zero point energy                ...      0.15531306 Eh      97.46 kcal/mol
Thermal vibrational correction   ...      0.00300181 Eh       1.88 kcal/mol
Thermal rotational correction    ...      0.00141627 Eh       0.89 kcal/mol
Thermal translational correction ...      0.00141627 Eh       0.89 kcal/mol
-----------------------------------------------------------------------
Total thermal energy                   -325.83824981 Eh

Summary of corrections to the electronic energy:
(perhaps to be used in another calculation)
Total thermal correction                  0.00583435 Eh       3.66 kcal/mol
Non-thermal (ZPE) correction              0.15531306 Eh      97.46 kcal/mol
-----------------------------------------------------------------------
Total correction                          0.16114741 Eh     101.12 kcal/mol

--------
ENTHALPY
--------

The enthalpy is H = U + kB*T
                kB is Boltzmann's constant
Total free energy                 ...   -325.83824981 Eh
Thermal Enthalpy correction       ...      0.00094421 Eh       0.59 kcal/mol
-----------------------------------------------------------------------
Total Enthalpy                    ...   -325.83730560 Eh

-------
ENTROPY
-------

The entropy contributions are T*S = T*(S(el)+S(vib)+S(rot)+S(trans)
     S(el)   - electronic entropy
     S(vib)  - vibrational entropy
     S(rot)  - rotational entropy
     S(trans)- translational entropy
The entropies will be listed as mutliplied by the temperature to get
units of energy

Electronic entropy                ...      0.00000000 Eh      0.00 kcal/mol
Vibrational entropy               ...      0.00437762 Eh      2.75 kcal/mol
Rotational entropy                ...      0.01168195 Eh      7.33 kcal/mol
Translational entropy             ...      0.01887324 Eh     11.84 kcal/mol
-----------------------------------------------------------------------
Final entropy term                ...      0.03493280 Eh     21.92 kcal/mol

CAUTION: The rotational entropy is not quite correctly treated here
         because it includes a symmetry number that is not yet correctly
         implemented in ORCA!
For a nonlinear molecule the correct rotational entropy is:
    S(rot) = R*(ln(qrot/sn)+1.5)
    R    = 8.31441 J/mol/K = 1.987191683e-3 kcal/mol/K
    qrot = 158131.6394990
    sn is the rotational symmetry number. We have assumed 3 here
       if it is different for your molecule then you should correct
       the printed rotational entropy by manually evaluating the equation
       as given above

For convenience we print out the resulting values for sn=1 - 12:
 sn= 1  qrot/sn=  158131.6395 T*S(rot)=     7.98 kcal/mol T*S(tot)=    22.57 kcal/mol
 sn= 2  qrot/sn=   79065.8197 T*S(rot)=     7.57 kcal/mol T*S(tot)=    22.16 kcal/mol
 sn= 3  qrot/sn=   52710.5465 T*S(rot)=     7.33 kcal/mol T*S(tot)=    21.92 kcal/mol
 sn= 4  qrot/sn=   39532.9099 T*S(rot)=     7.16 kcal/mol T*S(tot)=    21.75 kcal/mol
 sn= 5  qrot/sn=   31626.3279 T*S(rot)=     7.03 kcal/mol T*S(tot)=    21.62 kcal/mol
 sn= 6  qrot/sn=   26355.2732 T*S(rot)=     6.92 kcal/mol T*S(tot)=    21.51 kcal/mol
 sn= 7  qrot/sn=   22590.2342 T*S(rot)=     6.83 kcal/mol T*S(tot)=    21.42 kcal/mol
 sn= 8  qrot/sn=   19766.4549 T*S(rot)=     6.75 kcal/mol T*S(tot)=    21.34 kcal/mol
 sn= 9  qrot/sn=   17570.1822 T*S(rot)=     6.68 kcal/mol T*S(tot)=    21.27 kcal/mol
 sn=10  qrot/sn=   15813.1639 T*S(rot)=     6.62 kcal/mol T*S(tot)=    21.21 kcal/mol
 sn=11  qrot/sn=   14375.6036 T*S(rot)=     6.56 kcal/mol T*S(tot)=    21.15 kcal/mol
 sn=12  qrot/sn=   13177.6366 T*S(rot)=     6.51 kcal/mol T*S(tot)=    21.10 kcal/mol

-------------------
GIBBS FREE ENTHALPY
-------------------

The Gibbs free enthalpy is G = H - T*S

Total enthalpy                    ...   -325.83730560 Eh
Total entropy correction          ...     -0.03493280 Eh    -21.92 kcal/mol
-----------------------------------------------------------------------
Final Gibbs free enthalpy         ...   -325.87223840 Eh

For completeness - the Gibbs free enthalpy minus the electronic energy
G-E(el)                           ...      0.12715882 Eh     79.79 kcal/mol

                             ****ORCA TERMINATED NORMALLY****
TOTAL RUN TIME: 0 days 0 hours 38 minutes 49 seconds 268 msec
