                         Program Version 3.0.3 - RELEASE   -
|  1> ! NORI PBE0 def2-TZVP UseSym TightOPT Freq TightSCF Grid3 FinalGrid5 XYZFile
|  2> % pal
|  3>     nprocs 8
|  4> end
|  5> %method
|  6>     SymThresh 5.0e-2
|  7> end
|  8> % geom
|  9>     MaxIter 10
| 10> end
| 11> % maxcore 2000
| 12> % output
| 13>     printlevel mini
| 14>     print[ P_Basis ] 0
| 15>     print[ P_SCFInfo ] 1
| 16>     print[ P_SCFIterInfo ] 1
| 17>     print[ P_OrbEn ] 0
| 18>     print[ P_Cartesian ] 0
| 19> end
| 20> % elprop
| 21>     Dipole false
| 22> end
| 23> *xyz 1 1
| 24>  O        1.1715628828    -0.1144649605     0.3882148722
| 25>  C        2.3260594486    -0.1035924046     0.1770538009
| 26>  C        3.4560855364    -1.1361530829    -0.0458794283
| 27>  C        4.2616659816    -0.9210759900     1.2343125139
| 28>  C        4.2567728557     0.6406192341     1.2945880162
| 29>  C        3.4506242831     0.9486341651     0.0335730945
| 30>  N        4.0717028960    -0.0564083332    -0.9417885991
| 31>  H        3.3326483131    -2.1245971638    -0.4789236871
| 32>  H        5.2639640206    -1.3452102543     1.1628363404
| 33>  H        3.7604775066    -1.3862451641     2.0822941503
| 34>  H        3.7505525801     1.0353115899     2.1747840502
| 35>  H        5.2560963739     1.0757733442     1.2588402270
| 36>  H        3.3222117529     1.9665332352    -0.3229179122
| 37>  H        3.6664923799    -0.0218020275    -1.8775681721
| 38>  H        5.0909031885    -0.0516621877    -1.0023792670
| 39> *
| 40>
| 41>                          ****END OF INPUT****
 Total Charge           Charge          ....    1
 Multiplicity           Mult            ....    1
 Number of Electrons    NEL             ....   52
FINAL SINGLE POINT ENERGY      -324.766660414931

CARTESIAN COORDINATES (ANGSTROEM)
---------------------------------
  O      2.119475   -0.000188   -0.000000
  C      0.956384    0.157178   -0.000000
  C     -0.178465    0.287751    1.042999
  C     -0.923754   -1.019937    0.781500
  C     -0.923754   -1.019937   -0.781501
  C     -0.178465    0.287751   -1.042999
  N     -0.840029    1.194069    0.000000
  H     -0.071266    0.688119    2.046844
  H     -1.926168   -1.012848    1.211571
  H     -0.380153   -1.860333    1.211900
  H     -0.380153   -1.860333   -1.211900
  H     -1.926168   -1.012848   -1.211571
  H     -0.071266    0.688119   -2.046844
  H     -0.478854    2.148375    0.000000
  H     -1.860723    1.206969    0.000000

FINAL SINGLE POINT ENERGY      -324.766660856898
                    ***********************HURRAY********************
 Multiplicity           Mult            ....    1
 Number of Electrons    NEL             ....   52
 Basis Dimension        Dim             ....  265
FINAL SINGLE POINT ENERGY      -324.766660951212

VIBRATIONAL FREQUENCIES
-----------------------

   0:         0.00 cm**-1
   1:         0.00 cm**-1
   2:         0.00 cm**-1
   3:         0.00 cm**-1
   4:         0.00 cm**-1
   5:         0.00 cm**-1
   6:       171.16 cm**-1
   7:       261.98 cm**-1
   8:       443.23 cm**-1
   9:       453.36 cm**-1
  10:       626.35 cm**-1
  11:       664.45 cm**-1
  12:       764.77 cm**-1
  13:       777.73 cm**-1
  14:       814.82 cm**-1
  15:       856.23 cm**-1
  16:       912.93 cm**-1
  17:       913.62 cm**-1
  18:       967.15 cm**-1
  19:       977.34 cm**-1
  20:      1013.34 cm**-1
  21:      1024.68 cm**-1
  22:      1047.09 cm**-1
  23:      1103.59 cm**-1
  24:      1129.08 cm**-1
  25:      1154.81 cm**-1
  26:      1220.07 cm**-1
  27:      1242.57 cm**-1
  28:      1269.78 cm**-1
  29:      1279.29 cm**-1
  30:      1280.59 cm**-1
  31:      1329.23 cm**-1
  32:      1330.06 cm**-1
  33:      1484.44 cm**-1
  34:      1500.58 cm**-1
  35:      1650.97 cm**-1
  36:      1996.29 cm**-1
  37:      3099.64 cm**-1
  38:      3105.33 cm**-1
  39:      3153.13 cm**-1
  40:      3165.29 cm**-1
  41:      3196.03 cm**-1
  42:      3197.48 cm**-1
  43:      3451.51 cm**-1
  44:      3532.49 cm**-1

IR SPECTRUM
-----------

 Mode    freq (cm**-1)   T**2         TX         TY         TZ
-------------------------------------------------------------------
   6:       171.16    5.122748  (  0.825731  -2.107348  -0.000008)
   7:       261.98    2.405134  ( -0.000009   0.000006  -1.550849)
   8:       443.23    7.139930  (  2.289105   1.378378  -0.000028)
   9:       453.36    0.602436  ( -0.000091  -0.000060  -0.776167)
  10:       626.35    1.440963  (  0.000003   0.000004  -1.200401)
  11:       664.45    1.190064  (  0.107205   1.085620  -0.000001)
  12:       764.77    0.128478  (  0.032761  -0.356938  -0.000061)
  13:       777.73   14.837461  (  0.000003   0.000005  -3.851943)
  14:       814.82    7.800187  ( -0.883657  -2.649403   0.000009)
  15:       856.23    1.262197  ( -1.089936   0.272465  -0.000017)
  16:       912.93    1.788302  ( -0.275018   1.308689   0.000151)
  17:       913.62   10.965972  (  0.000012  -0.000062   3.311491)
  18:       967.15    5.710685  ( -2.360317   0.373613  -0.000027)
  19:       977.34    5.316918  ( -0.000010  -0.000004   2.305844)
  20:      1013.34    6.582553  (  0.900756  -2.402330  -0.000033)
  21:      1024.68   32.361388  (  0.000014   0.000011  -5.688707)
  22:      1047.09    4.707881  (  1.741739   1.293919   0.000037)
  23:      1103.59    1.376738  (  0.000064   0.000034   1.173345)
  24:      1129.08    8.964518  (  2.873331   0.841715   0.000003)
  25:      1154.81   23.982691  (  0.000015  -0.000002  -4.897213)
  26:      1220.07    9.513693  (  0.000005  -0.000022  -3.084428)
  27:      1242.57    2.494255  ( -0.056482  -1.578311   0.000037)
  28:      1269.78   14.509792  ( -0.000004  -0.000010  -3.809172)
  29:      1279.29    4.772024  (  0.000087   0.000144  -2.184496)
  30:      1280.59    1.176300  ( -0.585218  -0.913137  -0.000324)
  31:      1329.23    4.836189  ( -1.771554  -1.302992  -0.000326)
  32:      1330.06   21.579576  (  0.000127   0.000086  -4.645382)
  33:      1484.44    6.114858  ( -0.000005  -0.000020   2.472824)
  34:      1500.58   13.538625  ( -0.961936  -3.551521   0.000035)
  35:      1650.97   69.890677  ( -4.840711   6.816025   0.000003)
  36:      1996.29  283.564112  (-16.832497   0.480794   0.000001)
  37:      3099.64    0.745186  ( -0.000000  -0.000008  -0.863242)
  38:      3105.33    1.801877  ( -1.049936   0.836368   0.000008)
  39:      3153.13    0.129461  (  0.000000   0.000014  -0.359807)
  40:      3165.29    1.279352  (  0.147370  -1.121443  -0.000011)
  41:      3196.03    3.679824  ( -0.000000  -0.000000   1.918287)
  42:      3197.48    0.375373  ( -0.436976   0.429447  -0.000000)
  43:      3451.51   80.761716  ( -4.703013   7.657897  -0.000000)
  44:      3532.49   85.043099  (  6.972438   6.035578   0.000000)

--------------------------
THERMOCHEMISTRY AT 298.15K
--------------------------

Temperature         ... 298.15 K
Pressure            ... 1.00 atm
Total Mass          ... 98.12 AMU

Throughout the following assumptions are being made:
  (1) The electronic state is orbitally nondegenerate
  (2) There are no thermally accessible electronically excited states
  (3) Hindered rotations indicated by low frequency modes) are not
      treated as such but are treated as vibrations and this may
      case some error
  (4) All equations used are the standard statistical mechanics
      equations for an ideal gas
  (5) All vibrations are strinctly harmonic

------------
INNER ENERGY
------------

The inner energy is: U= E(el) + E(ZPE) + E(vib) + E(rot) + E(trans)
    E(el)   - is the total energy from the electronic structure calculation
              = E(kin-el) + E(nuc-el) + E(el-el) + E(nuc-nuc)
    E(ZPE)  - the the zero temperature vibrational energy from the frequency calculation
    E(vib)  - the the finite temperature correction to E(ZPE) due to population
              of excietd vibrational states
    E(rot)  - is the rotational thermal energy
    E(trans)- is the translational thermal energy

Summary of contributions to the inner energy U:
Electronic energy                ...   -324.76666095 Eh
Zero point energy                ...      0.13113701 Eh      82.29 kcal/mol
Thermal vibrational correction   ...      0.00264445 Eh       1.66 kcal/mol
Thermal rotational correction    ...      0.00141627 Eh       0.89 kcal/mol
Thermal translational correction ...      0.00141627 Eh       0.89 kcal/mol
-----------------------------------------------------------------------
Total thermal energy                   -324.63004695 Eh

Summary of corrections to the electronic energy:
(perhaps to be used in another calculation)
Total thermal correction                  0.00547699 Eh       3.44 kcal/mol
Non-thermal (ZPE) correction              0.13113701 Eh      82.29 kcal/mol
-----------------------------------------------------------------------
Total correction                          0.13661400 Eh      85.73 kcal/mol

--------
ENTHALPY
--------

The enthalpy is H = U + kB*T
                kB is Boltzmann's constant
Total free energy                 ...   -324.63004695 Eh
Thermal Enthalpy correction       ...      0.00094421 Eh       0.59 kcal/mol
-----------------------------------------------------------------------
Total Enthalpy                    ...   -324.62910274 Eh

-------
ENTROPY
-------

The entropy contributions are T*S = T*(S(el)+S(vib)+S(rot)+S(trans)
     S(el)   - electronic entropy
     S(vib)  - vibrational entropy
     S(rot)  - rotational entropy
     S(trans)- translational entropy
The entropies will be listed as mutliplied by the temperature to get
units of energy

Electronic entropy                ...      0.00000000 Eh      0.00 kcal/mol
Vibrational entropy               ...      0.00398726 Eh      2.50 kcal/mol
Rotational entropy                ...      0.01165200 Eh      7.31 kcal/mol
Translational entropy             ...      0.01884443 Eh     11.83 kcal/mol
-----------------------------------------------------------------------
Final entropy term                ...      0.03448370 Eh     21.64 kcal/mol

CAUTION: The rotational entropy is not quite correctly treated here
         because it includes a symmetry number that is not yet correctly
         implemented in ORCA!
For a nonlinear molecule the correct rotational entropy is:
    S(rot) = R*(ln(qrot/sn)+1.5)
    R    = 8.31441 J/mol/K = 1.987191683e-3 kcal/mol/K
    qrot = 153194.9732987
    sn is the rotational symmetry number. We have assumed 3 here
       if it is different for your molecule then you should correct
       the printed rotational entropy by manually evaluating the equation
       as given above

For convenience we print out the resulting values for sn=1 - 12:
 sn= 1  qrot/sn=  153194.9733 T*S(rot)=     7.96 kcal/mol T*S(tot)=    22.29 kcal/mol
 sn= 2  qrot/sn=   76597.4866 T*S(rot)=     7.55 kcal/mol T*S(tot)=    21.88 kcal/mol
 sn= 3  qrot/sn=   51064.9911 T*S(rot)=     7.31 kcal/mol T*S(tot)=    21.64 kcal/mol
 sn= 4  qrot/sn=   38298.7433 T*S(rot)=     7.14 kcal/mol T*S(tot)=    21.47 kcal/mol
 sn= 5  qrot/sn=   30638.9947 T*S(rot)=     7.01 kcal/mol T*S(tot)=    21.34 kcal/mol
 sn= 6  qrot/sn=   25532.4955 T*S(rot)=     6.90 kcal/mol T*S(tot)=    21.23 kcal/mol
 sn= 7  qrot/sn=   21884.9962 T*S(rot)=     6.81 kcal/mol T*S(tot)=    21.14 kcal/mol
 sn= 8  qrot/sn=   19149.3717 T*S(rot)=     6.73 kcal/mol T*S(tot)=    21.06 kcal/mol
 sn= 9  qrot/sn=   17021.6637 T*S(rot)=     6.66 kcal/mol T*S(tot)=    20.99 kcal/mol
 sn=10  qrot/sn=   15319.4973 T*S(rot)=     6.60 kcal/mol T*S(tot)=    20.93 kcal/mol
 sn=11  qrot/sn=   13926.8158 T*S(rot)=     6.54 kcal/mol T*S(tot)=    20.87 kcal/mol
 sn=12  qrot/sn=   12766.2478 T*S(rot)=     6.49 kcal/mol T*S(tot)=    20.82 kcal/mol

-------------------
GIBBS FREE ENTHALPY
-------------------

The Gibbs free enthalpy is G = H - T*S

Total enthalpy                    ...   -324.62910274 Eh
Total entropy correction          ...     -0.03448370 Eh    -21.64 kcal/mol
-----------------------------------------------------------------------
Final Gibbs free enthalpy         ...   -324.66358644 Eh

For completeness - the Gibbs free enthalpy minus the electronic energy
G-E(el)                           ...      0.10307452 Eh     64.68 kcal/mol

                             ****ORCA TERMINATED NORMALLY****
TOTAL RUN TIME: 0 days 0 hours 31 minutes 43 seconds 926 msec
