                         Program Version 3.0.3 - RELEASE   -
|  1> ! NORI PBE0 def2-TZVP UseSym TightOPT Freq TightSCF Grid3 FinalGrid5 XYZFile
|  2> % pal
|  3>     nprocs 8
|  4> end
|  5> %method
|  6>     SymThresh 5.0e-2
|  7> end
|  8> % geom
|  9>     MaxIter 10
| 10> end
| 11> % maxcore 2000
| 12> % output
| 13>     printlevel mini
| 14>     print[ P_Basis ] 0
| 15>     print[ P_SCFInfo ] 1
| 16>     print[ P_SCFIterInfo ] 1
| 17>     print[ P_OrbEn ] 0
| 18>     print[ P_Cartesian ] 0
| 19> end
| 20> % elprop
| 21>     Dipole false
| 22> end
| 23> *xyz 1 1
| 24>  O        0.7016394916     0.0604376797    -0.4679385502
| 25>  C        1.9904122257     0.0429318212     0.0483048343
| 26>  C        2.9336063303    -0.9704646466    -0.5109230313
| 27>  C        2.4577264247    -1.7571588721    -1.7210305737
| 28>  C        2.6249902167    -0.8026412980    -2.8985432974
| 29>  N        2.5188349350     0.5691164677    -2.2789770958
| 30>  C        3.0695983812     0.4749124329    -0.9070868185
| 31>  H        0.1173079284     0.5523718883     0.1164174874
| 32>  H        2.1000269183     0.3256684950     1.0885356314
| 33>  H        3.6636442845    -1.4097476323     0.1561461984
| 34>  H        3.0628137476    -2.6501017756    -1.8683490945
| 35>  H        1.4187971179    -2.0680071023    -1.6045126501
| 36>  H        3.6228103272    -0.8704658128    -3.3321779461
| 37>  H        1.8782694300    -0.8996088932    -3.6860869866
| 38>  H        1.5236051027     0.8190920839    -2.1882152893
| 39>  H        2.9881170379     1.2838809130    -2.8318837664
| 40>  H        3.8895401004     1.1412942515    -0.6782190516
| 41> *
| 42>
| 43>                          ****END OF INPUT****
 Total Charge           Charge          ....    1
 Multiplicity           Mult            ....    1
 Number of Electrons    NEL             ....   54
FINAL SINGLE POINT ENERGY      -326.000286032891

CARTESIAN COORDINATES (ANGSTROEM)
---------------------------------
  O     -0.000179   -0.000506    1.803045
  C     -0.516618   -0.919722    0.899607
  C     -1.068068   -0.381225   -0.379225
  C     -0.839950    1.095456   -0.658122
  C      0.608539    1.186150   -1.126498
  N      1.279956    0.000245   -0.478582
  C      0.266777   -1.075802   -0.375675
  H      0.087890   -0.403438    2.671851
  H     -0.971913   -1.808768    1.319558
  H     -1.924932   -0.878789   -0.813672
  H     -1.512514    1.454279   -1.435543
  H     -1.007556    1.695385    0.237358
  H      0.692586    1.039755   -2.203322
  H      1.134086    2.096562   -0.840396
  H      1.550520    0.253121    0.482707
  H      2.110168   -0.302201   -0.984765
  H      0.518134   -2.011568   -0.854802

FINAL SINGLE POINT ENERGY      -326.000286626218
                    ***********************HURRAY********************
 Multiplicity           Mult            ....    1
 Number of Electrons    NEL             ....   54
 Basis Dimension        Dim             ....  277
FINAL SINGLE POINT ENERGY      -326.000286877516

VIBRATIONAL FREQUENCIES
-----------------------

   0:         0.00 cm**-1
   1:         0.00 cm**-1
   2:         0.00 cm**-1
   3:         0.00 cm**-1
   4:         0.00 cm**-1
   5:         0.00 cm**-1
   6:       139.83 cm**-1
   7:       223.74 cm**-1
   8:       231.44 cm**-1
   9:       299.54 cm**-1
  10:       531.09 cm**-1
  11:       592.56 cm**-1
  12:       630.45 cm**-1
  13:       706.75 cm**-1
  14:       775.23 cm**-1
  15:       803.37 cm**-1
  16:       856.78 cm**-1
  17:       888.60 cm**-1
  18:       904.77 cm**-1
  19:       947.80 cm**-1
  20:       975.91 cm**-1
  21:      1032.44 cm**-1
  22:      1047.85 cm**-1
  23:      1076.48 cm**-1
  24:      1083.92 cm**-1
  25:      1111.97 cm**-1
  26:      1132.52 cm**-1
  27:      1211.36 cm**-1
  28:      1228.75 cm**-1
  29:      1237.69 cm**-1
  30:      1257.51 cm**-1
  31:      1290.14 cm**-1
  32:      1324.56 cm**-1
  33:      1347.64 cm**-1
  34:      1368.50 cm**-1
  35:      1402.52 cm**-1
  36:      1411.54 cm**-1
  37:      1482.15 cm**-1
  38:      1495.60 cm**-1
  39:      1500.91 cm**-1
  40:      1613.48 cm**-1
  41:      3104.24 cm**-1
  42:      3107.99 cm**-1
  43:      3156.84 cm**-1
  44:      3174.95 cm**-1
  45:      3198.85 cm**-1
  46:      3218.70 cm**-1
  47:      3231.92 cm**-1
  48:      3332.48 cm**-1
  49:      3522.46 cm**-1
  50:      3865.45 cm**-1

IR SPECTRUM
-----------

 Mode    freq (cm**-1)   T**2         TX         TY         TZ
-------------------------------------------------------------------
   6:       139.83    5.874659  (  1.917570  -0.069624  -1.480789)
   7:       223.74   45.630774  ( -6.023268   1.397292   2.720035)
   8:       231.44   62.951161  ( -6.923133   2.377160   3.061127)
   9:       299.54   14.459574  (  0.528767  -0.723880   3.695399)
  10:       531.09    4.457882  ( -0.038638   0.662878   2.004241)
  11:       592.56    7.783445  (  1.509942  -1.019320  -2.112938)
  12:       630.45    6.438760  ( -1.096076  -2.143495  -0.801752)
  13:       706.75   11.206146  (  2.796456  -1.623838  -0.865523)
  14:       775.23   21.565696  ( -4.424341   1.399591  -0.179016)
  15:       803.37   12.980563  ( -1.681105   0.736216   3.100393)
  16:       856.78    2.177295  (  0.147777   1.149980   0.912690)
  17:       888.60    1.962016  (  0.593974   0.189204  -1.254357)
  18:       904.77    0.894902  ( -0.424917   0.822621  -0.194016)
  19:       947.80    5.664633  ( -0.195962  -0.787566  -2.237403)
  20:       975.91    0.863784  (  0.603331   0.266257  -0.654892)
  21:      1032.44    0.229900  (  0.365330  -0.310010  -0.018103)
  22:      1047.85   22.406430  ( -1.055963  -0.451313  -4.592133)
  23:      1076.48   42.904808  (  0.803922   2.355550   6.058870)
  24:      1083.92    9.608103  ( -1.321879   2.618666   1.001663)
  25:      1111.97    2.630474  (  0.173242   0.743592   1.430920)
  26:      1132.52    0.196980  ( -0.050914  -0.439984   0.028325)
  27:      1211.36   15.941878  ( -1.232632  -1.715524  -3.388137)
  28:      1228.75   14.427394  (  0.060960   3.028201   2.292091)
  29:      1237.69   85.561708  ( -3.857439  -6.165368  -5.715777)
  30:      1257.51   15.367339  ( -1.690287  -3.189325   1.529208)
  31:      1290.14    6.841625  (  0.149085   1.573240  -2.084302)
  32:      1324.56    0.689948  ( -0.014890   0.525125  -0.643405)
  33:      1347.64    4.227944  (  1.965446  -0.005150  -0.604102)
  34:      1368.50    1.306826  (  0.612337   0.915092   0.307369)
  35:      1402.52   14.148663  (  0.083708   3.682469  -0.762284)
  36:      1411.54   21.590241  (  1.909760   4.100272  -1.063404)
  37:      1482.15   19.414497  ( -2.224449  -1.562171   3.467845)
  38:      1495.60   16.693157  ( -1.737785   3.306155  -1.656079)
  39:      1500.91    9.702473  ( -0.386358   2.592894  -1.682290)
  40:      1613.48   69.493343  ( -8.277283  -0.803274  -0.578509)
  41:      3104.24    1.910903  (  0.511476  -1.246644   0.308503)
  42:      3107.99    2.912997  (  1.109592   0.452096  -1.215487)
  43:      3156.84    0.108883  (  0.314692   0.093623   0.032963)
  44:      3174.95    0.358565  (  0.000498  -0.513848  -0.307450)
  45:      3198.85    0.535919  (  0.123810   0.388756   0.607832)
  46:      3218.70    1.191410  (  0.964629   0.046344   0.508678)
  47:      3231.92    1.619980  (  0.284548   1.057961   0.647867)
  48:      3332.48   86.939529  (  1.717298  -0.056096   9.164457)
  49:      3522.46  100.488264  ( -7.668449   2.528868   5.940368)
  50:      3865.45  160.782426  ( -1.159876   2.661980 -12.343054)

--------------------------
THERMOCHEMISTRY AT 298.15K
--------------------------

Temperature         ... 298.15 K
Pressure            ... 1.00 atm
Total Mass          ... 100.14 AMU

Throughout the following assumptions are being made:
  (1) The electronic state is orbitally nondegenerate
  (2) There are no thermally accessible electronically excited states
  (3) Hindered rotations indicated by low frequency modes) are not
      treated as such but are treated as vibrations and this may
      case some error
  (4) All equations used are the standard statistical mechanics
      equations for an ideal gas
  (5) All vibrations are strinctly harmonic

------------
INNER ENERGY
------------

The inner energy is: U= E(el) + E(ZPE) + E(vib) + E(rot) + E(trans)
    E(el)   - is the total energy from the electronic structure calculation
              = E(kin-el) + E(nuc-el) + E(el-el) + E(nuc-nuc)
    E(ZPE)  - the the zero temperature vibrational energy from the frequency calculation
    E(vib)  - the the finite temperature correction to E(ZPE) due to population
              of excietd vibrational states
    E(rot)  - is the rotational thermal energy
    E(trans)- is the translational thermal energy

Summary of contributions to the inner energy U:
Electronic energy                ...   -326.00028688 Eh
Zero point energy                ...      0.15509608 Eh      97.32 kcal/mol
Thermal vibrational correction   ...      0.00345498 Eh       2.17 kcal/mol
Thermal rotational correction    ...      0.00141627 Eh       0.89 kcal/mol
Thermal translational correction ...      0.00141627 Eh       0.89 kcal/mol
-----------------------------------------------------------------------
Total thermal energy                   -325.83890327 Eh

Summary of corrections to the electronic energy:
(perhaps to be used in another calculation)
Total thermal correction                  0.00628752 Eh       3.95 kcal/mol
Non-thermal (ZPE) correction              0.15509608 Eh      97.32 kcal/mol
-----------------------------------------------------------------------
Total correction                          0.16138361 Eh     101.27 kcal/mol

--------
ENTHALPY
--------

The enthalpy is H = U + kB*T
                kB is Boltzmann's constant
Total free energy                 ...   -325.83890327 Eh
Thermal Enthalpy correction       ...      0.00094421 Eh       0.59 kcal/mol
-----------------------------------------------------------------------
Total Enthalpy                    ...   -325.83795906 Eh

-------
ENTROPY
-------

The entropy contributions are T*S = T*(S(el)+S(vib)+S(rot)+S(trans)
     S(el)   - electronic entropy
     S(vib)  - vibrational entropy
     S(rot)  - rotational entropy
     S(trans)- translational entropy
The entropies will be listed as mutliplied by the temperature to get
units of energy

Electronic entropy                ...      0.00000000 Eh      0.00 kcal/mol
Vibrational entropy               ...      0.00550937 Eh      3.46 kcal/mol
Rotational entropy                ...      0.01171238 Eh      7.35 kcal/mol
Translational entropy             ...      0.01887324 Eh     11.84 kcal/mol
-----------------------------------------------------------------------
Final entropy term                ...      0.03609499 Eh     22.65 kcal/mol

CAUTION: The rotational entropy is not quite correctly treated here
         because it includes a symmetry number that is not yet correctly
         implemented in ORCA!
For a nonlinear molecule the correct rotational entropy is:
    S(rot) = R*(ln(qrot/sn)+1.5)
    R    = 8.31441 J/mol/K = 1.987191683e-3 kcal/mol/K
    qrot = 163312.6230580
    sn is the rotational symmetry number. We have assumed 3 here
       if it is different for your molecule then you should correct
       the printed rotational entropy by manually evaluating the equation
       as given above

For convenience we print out the resulting values for sn=1 - 12:
 sn= 1  qrot/sn=  163312.6231 T*S(rot)=     8.00 kcal/mol T*S(tot)=    23.30 kcal/mol
 sn= 2  qrot/sn=   81656.3115 T*S(rot)=     7.59 kcal/mol T*S(tot)=    22.89 kcal/mol
 sn= 3  qrot/sn=   54437.5410 T*S(rot)=     7.35 kcal/mol T*S(tot)=    22.65 kcal/mol
 sn= 4  qrot/sn=   40828.1558 T*S(rot)=     7.18 kcal/mol T*S(tot)=    22.48 kcal/mol
 sn= 5  qrot/sn=   32662.5246 T*S(rot)=     7.05 kcal/mol T*S(tot)=    22.35 kcal/mol
 sn= 6  qrot/sn=   27218.7705 T*S(rot)=     6.94 kcal/mol T*S(tot)=    22.24 kcal/mol
 sn= 7  qrot/sn=   23330.3747 T*S(rot)=     6.85 kcal/mol T*S(tot)=    22.15 kcal/mol
 sn= 8  qrot/sn=   20414.0779 T*S(rot)=     6.77 kcal/mol T*S(tot)=    22.07 kcal/mol
 sn= 9  qrot/sn=   18145.8470 T*S(rot)=     6.70 kcal/mol T*S(tot)=    22.00 kcal/mol
 sn=10  qrot/sn=   16331.2623 T*S(rot)=     6.64 kcal/mol T*S(tot)=    21.94 kcal/mol
 sn=11  qrot/sn=   14846.6021 T*S(rot)=     6.58 kcal/mol T*S(tot)=    21.88 kcal/mol
 sn=12  qrot/sn=   13609.3853 T*S(rot)=     6.53 kcal/mol T*S(tot)=    21.83 kcal/mol

-------------------
GIBBS FREE ENTHALPY
-------------------

The Gibbs free enthalpy is G = H - T*S

Total enthalpy                    ...   -325.83795906 Eh
Total entropy correction          ...     -0.03609499 Eh    -22.65 kcal/mol
-----------------------------------------------------------------------
Final Gibbs free enthalpy         ...   -325.87405405 Eh

For completeness - the Gibbs free enthalpy minus the electronic energy
G-E(el)                           ...      0.12623283 Eh     79.21 kcal/mol

                             ****ORCA TERMINATED NORMALLY****
TOTAL RUN TIME: 0 days 0 hours 39 minutes 3 seconds 740 msec
