                         Program Version 3.0.3 - RELEASE   -
|  1> ! NORI PBE0 def2-TZVP UseSym TightOPT Freq TightSCF Grid3 FinalGrid5 XYZFile
|  2> % pal
|  3>     nprocs 8
|  4> end
|  5> %method
|  6>     SymThresh 5.0e-2
|  7> end
|  8> % geom
|  9>     MaxIter 10
| 10> end
| 11> % maxcore 2000
| 12> % output
| 13>     printlevel mini
| 14>     print[ P_Basis ] 0
| 15>     print[ P_SCFInfo ] 1
| 16>     print[ P_SCFIterInfo ] 1
| 17>     print[ P_OrbEn ] 0
| 18>     print[ P_Cartesian ] 0
| 19> end
| 20> % elprop
| 21>     Dipole false
| 22> end
| 23> *xyz 1 1
| 24>  O        1.0201650642     0.1021573019     0.0023777689
| 25>  C        2.3978494118     0.0582298658    -0.0116025290
| 26>  C        2.9794343948     1.1027198134    -0.9944287260
| 27>  C        2.6317811104     0.1013448545    -2.1228643262
| 28>  C        2.9974013403    -0.9354081139    -1.0564376053
| 29>  N        4.4654357138    -0.6549211373    -0.8658763675
| 30>  C        4.4678133434     0.8794233815    -0.8241343296
| 31>  H        0.6677933560    -0.5173592550     0.6484308433
| 32>  H        2.8323300506     0.0262873666     0.9977010061
| 33>  H        2.6362882080     2.1335176325    -0.9909677704
| 34>  H        1.5664442140     0.0773809506    -2.3327760977
| 35>  H        3.2075677821     0.1241117373    -3.0505123236
| 36>  H        2.7815127326    -2.0008085533    -1.1065854122
| 37>  H        5.0250828440    -1.0170954320    -1.6369703176
| 38>  H        4.8289011575    -1.0611626660    -0.0039484776
| 39>  H        4.8789638534     1.2075574190     0.1296144051
| 40>  H        5.0781354230     1.2569148343    -1.6424197407
| 41> *
| 42>
| 43>                          ****END OF INPUT****
 Total Charge           Charge          ....    1
 Multiplicity           Mult            ....    1
 Number of Electrons    NEL             ....   54
FINAL SINGLE POINT ENERGY      -325.988629753494

CARTESIAN COORDINATES (ANGSTROEM)
---------------------------------
  O      0.000154    0.000344    2.123229
  C      0.326255    0.400304    0.844928
  C     -0.931506    0.475127   -0.053977
  C     -0.822781   -1.064011   -0.179989
  C      0.679563   -0.772593   -0.123464
  N      0.877184    0.000120   -1.401852
  C     -0.335082    0.940827   -1.366246
  H      0.779355   -0.000431    2.687365
  H      1.002853    1.266193    0.830088
  H     -1.834087    0.979622    0.279152
  H     -1.149998   -1.571093    0.723094
  H     -1.228037   -1.555235   -1.066874
  H      1.463117   -1.509268    0.041272
  H      0.865220   -0.607947   -2.219790
  H      1.758499    0.513124   -1.412223
  H      0.016036    1.971714   -1.375244
  H     -0.957959    0.752048   -2.238398

FINAL SINGLE POINT ENERGY      -325.988630417028
                    ***********************HURRAY********************
 Multiplicity           Mult            ....    1
 Number of Electrons    NEL             ....   54
 Basis Dimension        Dim             ....  277
FINAL SINGLE POINT ENERGY      -325.988630603463

VIBRATIONAL FREQUENCIES
-----------------------

   0:         0.00 cm**-1
   1:         0.00 cm**-1
   2:         0.00 cm**-1
   3:         0.00 cm**-1
   4:         0.00 cm**-1
   5:         0.00 cm**-1
   6:       273.21 cm**-1
   7:       290.87 cm**-1
   8:       301.23 cm**-1
   9:       348.75 cm**-1
  10:       448.36 cm**-1
  11:       552.74 cm**-1
  12:       651.72 cm**-1
  13:       826.86 cm**-1
  14:       843.32 cm**-1
  15:       857.36 cm**-1
  16:       871.02 cm**-1
  17:       896.10 cm**-1
  18:       915.53 cm**-1
  19:       949.94 cm**-1
  20:       968.03 cm**-1
  21:      1014.59 cm**-1
  22:      1029.76 cm**-1
  23:      1074.35 cm**-1
  24:      1094.64 cm**-1
  25:      1127.01 cm**-1
  26:      1151.09 cm**-1
  27:      1208.23 cm**-1
  28:      1223.14 cm**-1
  29:      1242.27 cm**-1
  30:      1255.82 cm**-1
  31:      1283.74 cm**-1
  32:      1291.57 cm**-1
  33:      1305.53 cm**-1
  34:      1321.97 cm**-1
  35:      1357.25 cm**-1
  36:      1372.07 cm**-1
  37:      1445.73 cm**-1
  38:      1487.93 cm**-1
  39:      1506.40 cm**-1
  40:      1653.15 cm**-1
  41:      3021.36 cm**-1
  42:      3098.33 cm**-1
  43:      3117.68 cm**-1
  44:      3166.60 cm**-1
  45:      3182.22 cm**-1
  46:      3184.50 cm**-1
  47:      3197.57 cm**-1
  48:      3466.06 cm**-1
  49:      3525.73 cm**-1
  50:      3854.63 cm**-1

IR SPECTRUM
-----------

 Mode    freq (cm**-1)   T**2         TX         TY         TZ
-------------------------------------------------------------------
   6:       273.21   14.746449  ( -0.837253   3.640948   0.888233)
   7:       290.87   86.712069  (  1.002998  -9.021313  -2.078935)
   8:       301.23    9.500755  ( -0.740849  -2.827128  -0.979411)
   9:       348.75   22.146041  (  0.557160  -3.460607  -3.140034)
  10:       448.36    6.307082  (  0.856907   1.376404   1.917890)
  11:       552.74   11.923856  ( -0.761563   0.640267   3.306650)
  12:       651.72    1.186583  ( -0.558161  -0.702163   0.618066)
  13:       826.86    1.761582  (  1.235934   0.441118   0.198659)
  14:       843.32    2.481417  (  1.306049   0.841879   0.258635)
  15:       857.36    8.060201  ( -0.556240   1.277659   2.473537)
  16:       871.02    3.761629  ( -0.753511   1.503418  -0.966223)
  17:       896.10    3.852961  ( -1.748369   0.816254   0.360412)
  18:       915.53   10.817450  (  1.648803   0.662809  -2.767595)
  19:       949.94    7.296584  ( -0.682947   2.215469  -1.386314)
  20:       968.03    3.202103  (  0.625589  -1.289574  -1.071326)
  21:      1014.59    9.348515  ( -0.179926   1.806640  -2.460121)
  22:      1029.76    2.323805  ( -0.363698   0.267026   1.456100)
  23:      1074.35   16.180152  ( -0.978901  -0.306170   3.889494)
  24:      1094.64    0.210889  (  0.304355  -0.159103  -0.304866)
  25:      1127.01   14.270414  (  1.678353   2.632760  -2.126528)
  26:      1151.09    1.463180  (  1.032884  -0.043895   0.628016)
  27:      1208.23   45.367285  ( -1.650578  -1.681787   6.309871)
  28:      1223.14   68.469666  (  1.260006  -0.024569   8.178108)
  29:      1242.27    5.098141  ( -0.252435  -1.711682   1.450711)
  30:      1255.82   19.244243  ( -3.036699   1.620514   2.719676)
  31:      1283.74   15.773716  ( -0.430329   0.363865   3.931429)
  32:      1291.57   24.239512  (  1.765490   0.627057  -4.552950)
  33:      1305.53    3.942900  (  1.302318  -0.572602  -1.385278)
  34:      1321.97    4.777002  (  1.872070   1.066656  -0.366879)
  35:      1357.25   10.485987  (  0.527588  -2.841583   1.460495)
  36:      1372.07   54.439437  (  3.079825  -5.328040   4.070148)
  37:      1445.73    5.695789  ( -0.807498  -0.262805  -2.230397)
  38:      1487.93   17.405333  ( -2.683817  -3.141001  -0.580147)
  39:      1506.40    9.240825  (  1.461994  -0.629425   2.589831)
  40:      1653.15   68.806222  ( -5.426678   0.314697   6.265648)
  41:      3021.36   35.535097  ( -3.587783  -4.596899   1.237510)
  42:      3098.33   10.705432  ( -0.943090  -1.392572  -2.806556)
  43:      3117.68    2.465527  (  0.075549  -1.073398   1.143520)
  44:      3166.60    1.789637  ( -1.204193   0.545874  -0.203908)
  45:      3182.22    0.206393  ( -0.262378  -0.334698  -0.159775)
  46:      3184.50    0.279084  ( -0.334703  -0.227713   0.339417)
  47:      3197.57    3.130343  ( -1.061888  -1.150737   0.823737)
  48:      3466.06   60.855261  ( -5.763064   0.747347   5.204213)
  49:      3525.73   73.563785  ( -4.184150  -5.775042  -4.765035)
  50:      3854.63  111.689829  ( -5.835978   0.311792  -8.805338)

--------------------------
THERMOCHEMISTRY AT 298.15K
--------------------------

Temperature         ... 298.15 K
Pressure            ... 1.00 atm
Total Mass          ... 100.14 AMU

Throughout the following assumptions are being made:
  (1) The electronic state is orbitally nondegenerate
  (2) There are no thermally accessible electronically excited states
  (3) Hindered rotations indicated by low frequency modes) are not
      treated as such but are treated as vibrations and this may
      case some error
  (4) All equations used are the standard statistical mechanics
      equations for an ideal gas
  (5) All vibrations are strinctly harmonic

------------
INNER ENERGY
------------

The inner energy is: U= E(el) + E(ZPE) + E(vib) + E(rot) + E(trans)
    E(el)   - is the total energy from the electronic structure calculation
              = E(kin-el) + E(nuc-el) + E(el-el) + E(nuc-nuc)
    E(ZPE)  - the the zero temperature vibrational energy from the frequency calculation
    E(vib)  - the the finite temperature correction to E(ZPE) due to population
              of excietd vibrational states
    E(rot)  - is the rotational thermal energy
    E(trans)- is the translational thermal energy

Summary of contributions to the inner energy U:
Electronic energy                ...   -325.98863060 Eh
Zero point energy                ...      0.15549857 Eh      97.58 kcal/mol
Thermal vibrational correction   ...      0.00301123 Eh       1.89 kcal/mol
Thermal rotational correction    ...      0.00141627 Eh       0.89 kcal/mol
Thermal translational correction ...      0.00141627 Eh       0.89 kcal/mol
-----------------------------------------------------------------------
Total thermal energy                   -325.82728826 Eh

Summary of corrections to the electronic energy:
(perhaps to be used in another calculation)
Total thermal correction                  0.00584378 Eh       3.67 kcal/mol
Non-thermal (ZPE) correction              0.15549857 Eh      97.58 kcal/mol
-----------------------------------------------------------------------
Total correction                          0.16134235 Eh     101.24 kcal/mol

--------
ENTHALPY
--------

The enthalpy is H = U + kB*T
                kB is Boltzmann's constant
Total free energy                 ...   -325.82728826 Eh
Thermal Enthalpy correction       ...      0.00094421 Eh       0.59 kcal/mol
-----------------------------------------------------------------------
Total Enthalpy                    ...   -325.82634405 Eh

-------
ENTROPY
-------

The entropy contributions are T*S = T*(S(el)+S(vib)+S(rot)+S(trans)
     S(el)   - electronic entropy
     S(vib)  - vibrational entropy
     S(rot)  - rotational entropy
     S(trans)- translational entropy
The entropies will be listed as mutliplied by the temperature to get
units of energy

Electronic entropy                ...      0.00000000 Eh      0.00 kcal/mol
Vibrational entropy               ...      0.00440136 Eh      2.76 kcal/mol
Rotational entropy                ...      0.01169201 Eh      7.34 kcal/mol
Translational entropy             ...      0.01887324 Eh     11.84 kcal/mol
-----------------------------------------------------------------------
Final entropy term                ...      0.03496661 Eh     21.94 kcal/mol

CAUTION: The rotational entropy is not quite correctly treated here
         because it includes a symmetry number that is not yet correctly
         implemented in ORCA!
For a nonlinear molecule the correct rotational entropy is:
    S(rot) = R*(ln(qrot/sn)+1.5)
    R    = 8.31441 J/mol/K = 1.987191683e-3 kcal/mol/K
    qrot = 159826.3668108
    sn is the rotational symmetry number. We have assumed 3 here
       if it is different for your molecule then you should correct
       the printed rotational entropy by manually evaluating the equation
       as given above

For convenience we print out the resulting values for sn=1 - 12:
 sn= 1  qrot/sn=  159826.3668 T*S(rot)=     7.99 kcal/mol T*S(tot)=    22.59 kcal/mol
 sn= 2  qrot/sn=   79913.1834 T*S(rot)=     7.58 kcal/mol T*S(tot)=    22.18 kcal/mol
 sn= 3  qrot/sn=   53275.4556 T*S(rot)=     7.34 kcal/mol T*S(tot)=    21.94 kcal/mol
 sn= 4  qrot/sn=   39956.5917 T*S(rot)=     7.17 kcal/mol T*S(tot)=    21.77 kcal/mol
 sn= 5  qrot/sn=   31965.2734 T*S(rot)=     7.03 kcal/mol T*S(tot)=    21.64 kcal/mol
 sn= 6  qrot/sn=   26637.7278 T*S(rot)=     6.93 kcal/mol T*S(tot)=    21.53 kcal/mol
 sn= 7  qrot/sn=   22832.3381 T*S(rot)=     6.83 kcal/mol T*S(tot)=    21.44 kcal/mol
 sn= 8  qrot/sn=   19978.2959 T*S(rot)=     6.76 kcal/mol T*S(tot)=    21.36 kcal/mol
 sn= 9  qrot/sn=   17758.4852 T*S(rot)=     6.69 kcal/mol T*S(tot)=    21.29 kcal/mol
 sn=10  qrot/sn=   15982.6367 T*S(rot)=     6.62 kcal/mol T*S(tot)=    21.23 kcal/mol
 sn=11  qrot/sn=   14529.6697 T*S(rot)=     6.57 kcal/mol T*S(tot)=    21.17 kcal/mol
 sn=12  qrot/sn=   13318.8639 T*S(rot)=     6.52 kcal/mol T*S(tot)=    21.12 kcal/mol

-------------------
GIBBS FREE ENTHALPY
-------------------

The Gibbs free enthalpy is G = H - T*S

Total enthalpy                    ...   -325.82634405 Eh
Total entropy correction          ...     -0.03496661 Eh    -21.94 kcal/mol
-----------------------------------------------------------------------
Final Gibbs free enthalpy         ...   -325.86131066 Eh

For completeness - the Gibbs free enthalpy minus the electronic energy
G-E(el)                           ...      0.12731995 Eh     79.89 kcal/mol

                             ****ORCA TERMINATED NORMALLY****
TOTAL RUN TIME: 0 days 0 hours 39 minutes 58 seconds 63 msec
