                         Program Version 3.0.3 - RELEASE   -
|  1> ! NORI PBE0 def2-TZVP UseSym TightOPT Freq TightSCF Grid3 FinalGrid5 XYZFile
|  2> % pal
|  3>     nprocs 8
|  4> end
|  5> %method
|  6>     SymThresh 5.0e-2
|  7> end
|  8> % geom
|  9>     MaxIter 10
| 10> end
| 11> % maxcore 2000
| 12> % output
| 13>     printlevel mini
| 14>     print[ P_Basis ] 0
| 15>     print[ P_SCFInfo ] 1
| 16>     print[ P_SCFIterInfo ] 1
| 17>     print[ P_OrbEn ] 0
| 18>     print[ P_Cartesian ] 0
| 19> end
| 20> % elprop
| 21>     Dipole false
| 22> end
| 23> *xyz 1 1
| 24>  O        1.1195889979     0.0784143277     0.1608563812
| 25>  C        2.2968529585     0.0979073558     0.1723442201
| 26>  C        3.4326436837     1.1238006992     0.0928005300
| 27>  C        4.0618712484     0.0974516859    -0.8905445194
| 28>  C        3.4238855165    -0.9671785813     0.0165359636
| 29>  N        4.1622293614    -0.7288721012     1.3077364461
| 30>  C        4.1844190436     0.8089389260     1.3798747959
| 31>  H        3.2726131106     2.1711938737    -0.1424185278
| 32>  H        3.5987377005     0.1092741645    -1.8757857381
| 33>  H        5.1504926530     0.0935478553    -0.9797026266
| 34>  H        3.2900888329    -2.0184963504    -0.2206059563
| 35>  H        5.1053252164    -1.1161059423     1.2803067770
| 36>  H        3.6825285185    -1.1462047139     2.1063088892
| 37>  H        3.6881732201     1.1329694478     2.2931440939
| 38>  H        5.2199299380     1.1435993531     1.3777492711
| 39> *
| 40>
| 41>                          ****END OF INPUT****
 Total Charge           Charge          ....    1
 Multiplicity           Mult            ....    1
 Number of Electrons    NEL             ....   52
FINAL SINGLE POINT ENERGY      -324.766459434789

CARTESIAN COORDINATES (ANGSTROEM)
---------------------------------
  O     -0.000149    0.000006    2.134499
  C     -0.089783   -0.035642    0.960982
  C     -0.909550    0.625970   -0.152374
  C     -1.011862   -0.823135   -0.704967
  C      0.415342   -0.993246   -0.160101
  N      1.168856   -0.000130   -1.005525
  C      0.205196    1.200688   -1.016611
  H     -1.765582    1.264958    0.039097
  H     -1.722298   -1.440773   -0.157882
  H     -1.154486   -0.938205   -1.781520
  H      0.942333   -1.931961   -0.018019
  H      1.335428   -0.355406   -1.947084
  H      2.076316    0.236402   -0.602215
  H      0.709635    2.070038   -0.598295
  H     -0.092866    1.399622   -2.044462

FINAL SINGLE POINT ENERGY      -324.766459927504
                    ***********************HURRAY********************
 Multiplicity           Mult            ....    1
 Number of Electrons    NEL             ....   52
 Basis Dimension        Dim             ....  265
FINAL SINGLE POINT ENERGY      -324.766460050473

VIBRATIONAL FREQUENCIES
-----------------------

   0:         0.00 cm**-1
   1:         0.00 cm**-1
   2:         0.00 cm**-1
   3:         0.00 cm**-1
   4:         0.00 cm**-1
   5:         0.00 cm**-1
   6:       164.70 cm**-1
   7:       270.78 cm**-1
   8:       434.95 cm**-1
   9:       452.72 cm**-1
  10:       630.09 cm**-1
  11:       642.00 cm**-1
  12:       775.12 cm**-1
  13:       813.27 cm**-1
  14:       830.48 cm**-1
  15:       866.45 cm**-1
  16:       901.04 cm**-1
  17:       917.19 cm**-1
  18:       958.93 cm**-1
  19:       985.40 cm**-1
  20:      1007.61 cm**-1
  21:      1031.86 cm**-1
  22:      1057.57 cm**-1
  23:      1088.31 cm**-1
  24:      1138.32 cm**-1
  25:      1163.24 cm**-1
  26:      1237.89 cm**-1
  27:      1240.05 cm**-1
  28:      1261.15 cm**-1
  29:      1274.22 cm**-1
  30:      1309.75 cm**-1
  31:      1361.50 cm**-1
  32:      1371.46 cm**-1
  33:      1481.45 cm**-1
  34:      1505.97 cm**-1
  35:      1659.32 cm**-1
  36:      1963.35 cm**-1
  37:      3094.25 cm**-1
  38:      3118.33 cm**-1
  39:      3175.24 cm**-1
  40:      3184.38 cm**-1
  41:      3196.39 cm**-1
  42:      3200.75 cm**-1
  43:      3457.00 cm**-1
  44:      3514.54 cm**-1

IR SPECTRUM
-----------

 Mode    freq (cm**-1)   T**2         TX         TY         TZ
-------------------------------------------------------------------
   6:       164.70    7.728103  ( -1.211637  -0.908155   2.331371)
   7:       270.78    3.722283  (  0.166483   1.116034   1.564939)
   8:       434.95    2.588435  (  0.579064   0.469109   1.425853)
   9:       452.72    2.190577  ( -1.231396   0.724804  -0.385877)
  10:       630.09    2.158513  (  0.066688   1.314190  -0.653430)
  11:       642.00    1.893939  ( -0.148096  -1.095454   0.819748)
  12:       775.12    4.804200  ( -0.462287  -1.029834  -1.878812)
  13:       813.27    3.017689  ( -0.680728   1.583341   0.217555)
  14:       830.48    5.585627  (  2.279524  -0.133177  -0.609639)
  15:       866.45    2.076079  (  0.831302  -1.173694   0.086362)
  16:       901.04    3.398423  ( -0.784483   1.163275   1.195743)
  17:       917.19   11.097319  (  3.136815  -1.008467  -0.490618)
  18:       958.93    7.201087  ( -0.030580  -2.587265  -0.711486)
  19:       985.40    6.946404  (  1.318649  -2.278371   0.128820)
  20:      1007.61   14.080398  (  1.257049  -3.535093  -0.057805)
  21:      1031.86    8.801284  (  2.454040  -1.637466  -0.312534)
  22:      1057.57    3.627623  (  0.089538  -0.629395   1.795402)
  23:      1088.31    7.615301  (  1.814560  -2.057294   0.300359)
  24:      1138.32   10.727151  ( -0.607607  -1.056044  -3.040187)
  25:      1163.24    6.319921  (  2.093412   0.602802   1.254662)
  26:      1237.89    6.391808  ( -0.540571  -1.550617   1.922284)
  27:      1240.05   14.792918  (  0.830926  -2.978996   2.286496)
  28:      1261.15    4.168675  (  0.370696   1.718324  -1.038567)
  29:      1274.22    2.543132  ( -0.161525  -0.557325   1.485406)
  30:      1309.75    3.437810  (  0.084457  -1.661637  -0.818315)
  31:      1361.50    7.185103  (  0.534880   2.600672  -0.368119)
  32:      1371.46   46.234441  ( -1.102571   6.376845  -2.086773)
  33:      1481.45   13.166558  ( -2.815480  -2.104501  -0.900392)
  34:      1505.97    5.593650  (  0.108200  -1.774502   1.559835)
  35:      1659.32   60.366478  ( -6.846291   0.459006   3.644734)
  36:      1963.35  304.027277  (  1.608778   1.555331  17.292196)
  37:      3094.25    2.375006  ( -0.958611  -0.459221   1.115880)
  38:      3118.33    0.496889  ( -0.193960  -0.462501   0.495340)
  39:      3175.24    1.850629  (  1.067111   0.840429  -0.074719)
  40:      3184.38    0.208689  (  0.170910   0.134978   0.401571)
  41:      3196.39    2.051881  (  0.630685  -1.273740  -0.178055)
  42:      3200.75    3.567999  ( -1.719013   0.771696   0.132202)
  43:      3457.00   76.671624  (  8.003326  -0.905030  -3.435013)
  44:      3514.54   87.977899  (  3.945910   3.444627   7.780889)

--------------------------
THERMOCHEMISTRY AT 298.15K
--------------------------

Temperature         ... 298.15 K
Pressure            ... 1.00 atm
Total Mass          ... 98.12 AMU

Throughout the following assumptions are being made:
  (1) The electronic state is orbitally nondegenerate
  (2) There are no thermally accessible electronically excited states
  (3) Hindered rotations indicated by low frequency modes) are not
      treated as such but are treated as vibrations and this may
      case some error
  (4) All equations used are the standard statistical mechanics
      equations for an ideal gas
  (5) All vibrations are strinctly harmonic

------------
INNER ENERGY
------------

The inner energy is: U= E(el) + E(ZPE) + E(vib) + E(rot) + E(trans)
    E(el)   - is the total energy from the electronic structure calculation
              = E(kin-el) + E(nuc-el) + E(el-el) + E(nuc-nuc)
    E(ZPE)  - the the zero temperature vibrational energy from the frequency calculation
    E(vib)  - the the finite temperature correction to E(ZPE) due to population
              of excietd vibrational states
    E(rot)  - is the rotational thermal energy
    E(trans)- is the translational thermal energy

Summary of contributions to the inner energy U:
Electronic energy                ...   -324.76646005 Eh
Zero point energy                ...      0.13153458 Eh      82.54 kcal/mol
Thermal vibrational correction   ...      0.00263556 Eh       1.65 kcal/mol
Thermal rotational correction    ...      0.00141627 Eh       0.89 kcal/mol
Thermal translational correction ...      0.00141627 Eh       0.89 kcal/mol
-----------------------------------------------------------------------
Total thermal energy                   -324.62945737 Eh

Summary of corrections to the electronic energy:
(perhaps to be used in another calculation)
Total thermal correction                  0.00546810 Eh       3.43 kcal/mol
Non-thermal (ZPE) correction              0.13153458 Eh      82.54 kcal/mol
-----------------------------------------------------------------------
Total correction                          0.13700268 Eh      85.97 kcal/mol

--------
ENTHALPY
--------

The enthalpy is H = U + kB*T
                kB is Boltzmann's constant
Total free energy                 ...   -324.62945737 Eh
Thermal Enthalpy correction       ...      0.00094421 Eh       0.59 kcal/mol
-----------------------------------------------------------------------
Total Enthalpy                    ...   -324.62851316 Eh

-------
ENTROPY
-------

The entropy contributions are T*S = T*(S(el)+S(vib)+S(rot)+S(trans)
     S(el)   - electronic entropy
     S(vib)  - vibrational entropy
     S(rot)  - rotational entropy
     S(trans)- translational entropy
The entropies will be listed as mutliplied by the temperature to get
units of energy

Electronic entropy                ...      0.00000000 Eh      0.00 kcal/mol
Vibrational entropy               ...      0.00398840 Eh      2.50 kcal/mol
Rotational entropy                ...      0.01165089 Eh      7.31 kcal/mol
Translational entropy             ...      0.01884443 Eh     11.83 kcal/mol
-----------------------------------------------------------------------
Final entropy term                ...      0.03448372 Eh     21.64 kcal/mol

CAUTION: The rotational entropy is not quite correctly treated here
         because it includes a symmetry number that is not yet correctly
         implemented in ORCA!
For a nonlinear molecule the correct rotational entropy is:
    S(rot) = R*(ln(qrot/sn)+1.5)
    R    = 8.31441 J/mol/K = 1.987191683e-3 kcal/mol/K
    qrot = 153014.7999058
    sn is the rotational symmetry number. We have assumed 3 here
       if it is different for your molecule then you should correct
       the printed rotational entropy by manually evaluating the equation
       as given above

For convenience we print out the resulting values for sn=1 - 12:
 sn= 1  qrot/sn=  153014.7999 T*S(rot)=     7.96 kcal/mol T*S(tot)=    22.29 kcal/mol
 sn= 2  qrot/sn=   76507.4000 T*S(rot)=     7.55 kcal/mol T*S(tot)=    21.88 kcal/mol
 sn= 3  qrot/sn=   51004.9333 T*S(rot)=     7.31 kcal/mol T*S(tot)=    21.64 kcal/mol
 sn= 4  qrot/sn=   38253.7000 T*S(rot)=     7.14 kcal/mol T*S(tot)=    21.47 kcal/mol
 sn= 5  qrot/sn=   30602.9600 T*S(rot)=     7.01 kcal/mol T*S(tot)=    21.34 kcal/mol
 sn= 6  qrot/sn=   25502.4667 T*S(rot)=     6.90 kcal/mol T*S(tot)=    21.23 kcal/mol
 sn= 7  qrot/sn=   21859.2571 T*S(rot)=     6.81 kcal/mol T*S(tot)=    21.14 kcal/mol
 sn= 8  qrot/sn=   19126.8500 T*S(rot)=     6.73 kcal/mol T*S(tot)=    21.06 kcal/mol
 sn= 9  qrot/sn=   17001.6444 T*S(rot)=     6.66 kcal/mol T*S(tot)=    20.99 kcal/mol
 sn=10  qrot/sn=   15301.4800 T*S(rot)=     6.60 kcal/mol T*S(tot)=    20.93 kcal/mol
 sn=11  qrot/sn=   13910.4364 T*S(rot)=     6.54 kcal/mol T*S(tot)=    20.87 kcal/mol
 sn=12  qrot/sn=   12751.2333 T*S(rot)=     6.49 kcal/mol T*S(tot)=    20.82 kcal/mol

-------------------
GIBBS FREE ENTHALPY
-------------------

The Gibbs free enthalpy is G = H - T*S

Total enthalpy                    ...   -324.62851316 Eh
Total entropy correction          ...     -0.03448372 Eh    -21.64 kcal/mol
-----------------------------------------------------------------------
Final Gibbs free enthalpy         ...   -324.66299688 Eh

For completeness - the Gibbs free enthalpy minus the electronic energy
G-E(el)                           ...      0.10346317 Eh     64.92 kcal/mol

                             ****ORCA TERMINATED NORMALLY****
TOTAL RUN TIME: 0 days 0 hours 33 minutes 18 seconds 79 msec
