                         Program Version 3.0.3 - RELEASE   -
|  1> ! NORI PBE0 def2-TZVP UseSym TightOPT Freq TightSCF Grid3 FinalGrid5 XYZFile
|  2> % pal
|  3>     nprocs 8
|  4> end
|  5> %method
|  6>     SymThresh 5.0e-2
|  7> end
|  8> % geom
|  9>     MaxIter 10
| 10> end
| 11> % maxcore 2000
| 12> % output
| 13>     printlevel mini
| 14>     print[ P_Basis ] 0
| 15>     print[ P_SCFInfo ] 1
| 16>     print[ P_SCFIterInfo ] 1
| 17>     print[ P_OrbEn ] 0
| 18>     print[ P_Cartesian ] 0
| 19> end
| 20> % elprop
| 21>     Dipole false
| 22> end
| 23> *xyz 1 1
| 24>  O        0.6103671302    -0.1185224805    -0.5266262065
| 25>  C        1.9165092603     0.0720831076    -0.0655118991
| 26>  C        2.9603558293    -0.8479389631    -0.5976795479
| 27>  C        2.5994438758    -1.6546677319    -1.8118153695
| 28>  N        1.9461104929    -0.6489445848    -2.7197868902
| 29>  C        2.5915025730     0.6838377053    -2.4510588411
| 30>  C        2.9621509599     0.6131955248    -0.9968472269
| 31>  H        0.0273518435     0.5416451730    -0.1392422361
| 32>  H        1.9995220071     0.3444058836     0.9807200995
| 33>  H        3.7040452429    -1.2647752556     0.0684169098
| 34>  H        3.4875416592    -2.0460277860    -2.3083408325
| 35>  H        1.8930014426    -2.4661210421    -1.6340489447
| 36>  H        1.9819097015    -0.9176707719    -3.7017281606
| 37>  H        0.9691743628    -0.5706526428    -2.4157136984
| 38>  H        1.8771520196     1.4665198304    -2.7097809662
| 39>  H        3.4735805894     0.7766464827    -3.0849196175
| 40>  H        3.7114310101     1.3077475513    -0.6397965721
| 41> *
| 42>
| 43>                          ****END OF INPUT****
 Total Charge           Charge          ....    1
 Multiplicity           Mult            ....    1
 Number of Electrons    NEL             ....   54
FINAL SINGLE POINT ENERGY      -326.008291890114

CARTESIAN COORDINATES (ANGSTROEM)
---------------------------------
  O     -0.000122    0.000853    1.758458
  C     -1.046286   -0.019817    0.830856
  C     -0.856032    0.769748   -0.417819
  C      0.541052    1.226534   -0.725962
  N      1.374465   -0.000071   -0.474616
  C      0.522883   -1.196191   -0.805179
  C     -0.870641   -0.743704   -0.472699
  H     -0.218312   -0.559392    2.509605
  H     -2.041780   -0.012493    1.260555
  H     -1.668196    1.368806   -0.807383
  H      0.645580    1.509431   -1.773770
  H      0.914559    2.030984   -0.091672
  H      2.258891    0.010273   -0.979602
  H      1.550793   -0.033086    0.535750
  H      0.886284   -2.044364   -0.223433
  H      0.629543   -1.415660   -1.867923
  H     -1.691209   -1.296964   -0.910202

FINAL SINGLE POINT ENERGY      -326.008292737607
                    ***********************HURRAY********************
 Multiplicity           Mult            ....    1
 Number of Electrons    NEL             ....   54
 Basis Dimension        Dim             ....  277
FINAL SINGLE POINT ENERGY      -326.008293315814

VIBRATIONAL FREQUENCIES
-----------------------

   0:         0.00 cm**-1
   1:         0.00 cm**-1
   2:         0.00 cm**-1
   3:         0.00 cm**-1
   4:         0.00 cm**-1
   5:         0.00 cm**-1
   6:       198.19 cm**-1
   7:       238.27 cm**-1
   8:       277.30 cm**-1
   9:       315.61 cm**-1
  10:       483.22 cm**-1
  11:       531.85 cm**-1
  12:       678.81 cm**-1
  13:       704.16 cm**-1
  14:       785.05 cm**-1
  15:       802.79 cm**-1
  16:       855.55 cm**-1
  17:       889.95 cm**-1
  18:       918.98 cm**-1
  19:       963.60 cm**-1
  20:       989.65 cm**-1
  21:      1047.00 cm**-1
  22:      1054.32 cm**-1
  23:      1066.18 cm**-1
  24:      1091.49 cm**-1
  25:      1117.44 cm**-1
  26:      1128.01 cm**-1
  27:      1207.15 cm**-1
  28:      1216.18 cm**-1
  29:      1252.20 cm**-1
  30:      1257.70 cm**-1
  31:      1311.11 cm**-1
  32:      1336.89 cm**-1
  33:      1373.28 cm**-1
  34:      1391.27 cm**-1
  35:      1411.35 cm**-1
  36:      1436.68 cm**-1
  37:      1491.49 cm**-1
  38:      1492.75 cm**-1
  39:      1503.57 cm**-1
  40:      1597.57 cm**-1
  41:      3099.44 cm**-1
  42:      3102.85 cm**-1
  43:      3155.99 cm**-1
  44:      3160.99 cm**-1
  45:      3187.64 cm**-1
  46:      3217.77 cm**-1
  47:      3224.45 cm**-1
  48:      3382.39 cm**-1
  49:      3521.98 cm**-1
  50:      3853.76 cm**-1

IR SPECTRUM
-----------

 Mode    freq (cm**-1)   T**2         TX         TY         TZ
-------------------------------------------------------------------
   6:       198.19    1.570171  (  0.308805  -0.991802   0.700813)
   7:       238.27    3.284799  ( -1.497353  -0.773068   0.667156)
   8:       277.30   76.195852  (  3.963869  -3.340946  -7.022939)
   9:       315.61   76.696110  (  3.187615  -7.103350  -4.009693)
  10:       483.22    3.310362  (  0.854630  -1.274335   0.977772)
  11:       531.85    6.208850  ( -2.408927  -0.637117  -0.002184)
  12:       678.81   17.651350  (  1.272226  -0.407564  -3.983301)
  13:       704.16    2.080074  (  1.435702  -0.044640  -0.129772)
  14:       785.05   17.789061  ( -0.746819   4.149380  -0.118196)
  15:       802.79    3.623046  ( -0.802885  -1.269883  -1.168683)
  16:       855.55   22.202693  (  0.100518   0.128825   4.709139)
  17:       889.95    1.803488  (  1.015995   0.124372  -0.869352)
  18:       918.98   10.932594  (  0.359115   3.255041   0.456443)
  19:       963.60   10.707772  (  2.072006   0.008940  -2.532683)
  20:       989.65    1.635785  ( -0.898631   0.848739  -0.328467)
  21:      1047.00   43.566189  (  4.864439   0.476889   4.435763)
  22:      1054.32    1.519660  ( -1.171382   0.063911  -0.378733)
  23:      1066.18    0.534090  ( -0.442317  -0.040238   0.580368)
  24:      1091.49    1.436681  ( -0.414421  -0.072668   1.122344)
  25:      1117.44    0.497180  (  0.110427  -0.663300  -0.212178)
  26:      1128.01    4.189754  (  0.859014  -0.094390   1.855516)
  27:      1207.15    0.549339  (  0.090559   0.696869  -0.235610)
  28:      1216.18   16.781197  (  2.849918   0.083524   2.941461)
  29:      1252.20   16.020364  ( -1.602558  -3.082989  -1.986794)
  30:      1257.70   87.353666  (  6.307477   0.084490   6.896540)
  31:      1311.11    2.752968  (  0.048181   0.241327  -1.640856)
  32:      1336.89    6.360446  ( -0.528803  -2.243445  -1.023606)
  33:      1373.28    2.516050  ( -1.359918   0.263747   0.772728)
  34:      1391.27    4.042875  ( -1.192133  -0.073469   1.617497)
  35:      1411.35   37.106122  (  0.057466   6.082489   0.325804)
  36:      1436.68   19.246313  ( -0.047550   4.386662  -0.035274)
  37:      1491.49    9.820256  ( -0.501391   1.997332   2.362102)
  38:      1492.75   11.621757  ( -0.599644  -2.588511   2.135836)
  39:      1503.57    6.896257  (  1.096951   0.207629  -2.376940)
  40:      1597.57   96.837866  ( -9.836631   0.093474  -0.264241)
  41:      3099.44    3.710794  (  0.898513  -1.536355  -0.736940)
  42:      3102.85    3.448883  (  1.129286   0.725008  -1.283729)
  43:      3155.99    0.284391  ( -0.274973   0.253107  -0.380418)
  44:      3160.99    0.119331  ( -0.179930   0.129805  -0.264778)
  45:      3187.64    1.466212  ( -1.075865   0.011042  -0.555522)
  46:      3217.77    0.331373  ( -0.194867  -0.520755  -0.149044)
  47:      3224.45    3.250678  ( -1.638364   0.225981  -0.717896)
  48:      3382.39  107.317052  ( -1.783750   0.387964 -10.197292)
  49:      3521.98  101.094256  (  7.525723   0.187874  -6.665017)
  50:      3853.76  128.243822  (  0.966535   4.809948 -10.206568)

--------------------------
THERMOCHEMISTRY AT 298.15K
--------------------------

Temperature         ... 298.15 K
Pressure            ... 1.00 atm
Total Mass          ... 100.14 AMU

Throughout the following assumptions are being made:
  (1) The electronic state is orbitally nondegenerate
  (2) There are no thermally accessible electronically excited states
  (3) Hindered rotations indicated by low frequency modes) are not
      treated as such but are treated as vibrations and this may
      case some error
  (4) All equations used are the standard statistical mechanics
      equations for an ideal gas
  (5) All vibrations are strinctly harmonic

------------
INNER ENERGY
------------

The inner energy is: U= E(el) + E(ZPE) + E(vib) + E(rot) + E(trans)
    E(el)   - is the total energy from the electronic structure calculation
              = E(kin-el) + E(nuc-el) + E(el-el) + E(nuc-nuc)
    E(ZPE)  - the the zero temperature vibrational energy from the frequency calculation
    E(vib)  - the the finite temperature correction to E(ZPE) due to population
              of excietd vibrational states
    E(rot)  - is the rotational thermal energy
    E(trans)- is the translational thermal energy

Summary of contributions to the inner energy U:
Electronic energy                ...   -326.00829332 Eh
Zero point energy                ...      0.15565317 Eh      97.67 kcal/mol
Thermal vibrational correction   ...      0.00328680 Eh       2.06 kcal/mol
Thermal rotational correction    ...      0.00141627 Eh       0.89 kcal/mol
Thermal translational correction ...      0.00141627 Eh       0.89 kcal/mol
-----------------------------------------------------------------------
Total thermal energy                   -325.84652080 Eh

Summary of corrections to the electronic energy:
(perhaps to be used in another calculation)
Total thermal correction                  0.00611934 Eh       3.84 kcal/mol
Non-thermal (ZPE) correction              0.15565317 Eh      97.67 kcal/mol
-----------------------------------------------------------------------
Total correction                          0.16177251 Eh     101.51 kcal/mol

--------
ENTHALPY
--------

The enthalpy is H = U + kB*T
                kB is Boltzmann's constant
Total free energy                 ...   -325.84652080 Eh
Thermal Enthalpy correction       ...      0.00094421 Eh       0.59 kcal/mol
-----------------------------------------------------------------------
Total Enthalpy                    ...   -325.84557659 Eh

-------
ENTROPY
-------

The entropy contributions are T*S = T*(S(el)+S(vib)+S(rot)+S(trans)
     S(el)   - electronic entropy
     S(vib)  - vibrational entropy
     S(rot)  - rotational entropy
     S(trans)- translational entropy
The entropies will be listed as mutliplied by the temperature to get
units of energy

Electronic entropy                ...      0.00000000 Eh      0.00 kcal/mol
Vibrational entropy               ...      0.00501284 Eh      3.15 kcal/mol
Rotational entropy                ...      0.01168629 Eh      7.33 kcal/mol
Translational entropy             ...      0.01887324 Eh     11.84 kcal/mol
-----------------------------------------------------------------------
Final entropy term                ...      0.03557237 Eh     22.32 kcal/mol

CAUTION: The rotational entropy is not quite correctly treated here
         because it includes a symmetry number that is not yet correctly
         implemented in ORCA!
For a nonlinear molecule the correct rotational entropy is:
    S(rot) = R*(ln(qrot/sn)+1.5)
    R    = 8.31441 J/mol/K = 1.987191683e-3 kcal/mol/K
    qrot = 158860.7245088
    sn is the rotational symmetry number. We have assumed 3 here
       if it is different for your molecule then you should correct
       the printed rotational entropy by manually evaluating the equation
       as given above

For convenience we print out the resulting values for sn=1 - 12:
 sn= 1  qrot/sn=  158860.7245 T*S(rot)=     7.98 kcal/mol T*S(tot)=    22.97 kcal/mol
 sn= 2  qrot/sn=   79430.3623 T*S(rot)=     7.57 kcal/mol T*S(tot)=    22.56 kcal/mol
 sn= 3  qrot/sn=   52953.5748 T*S(rot)=     7.33 kcal/mol T*S(tot)=    22.32 kcal/mol
 sn= 4  qrot/sn=   39715.1811 T*S(rot)=     7.16 kcal/mol T*S(tot)=    22.15 kcal/mol
 sn= 5  qrot/sn=   31772.1449 T*S(rot)=     7.03 kcal/mol T*S(tot)=    22.02 kcal/mol
 sn= 6  qrot/sn=   26476.7874 T*S(rot)=     6.92 kcal/mol T*S(tot)=    21.91 kcal/mol
 sn= 7  qrot/sn=   22694.3892 T*S(rot)=     6.83 kcal/mol T*S(tot)=    21.82 kcal/mol
 sn= 8  qrot/sn=   19857.5906 T*S(rot)=     6.75 kcal/mol T*S(tot)=    21.74 kcal/mol
 sn= 9  qrot/sn=   17651.1916 T*S(rot)=     6.68 kcal/mol T*S(tot)=    21.67 kcal/mol
 sn=10  qrot/sn=   15886.0725 T*S(rot)=     6.62 kcal/mol T*S(tot)=    21.61 kcal/mol
 sn=11  qrot/sn=   14441.8840 T*S(rot)=     6.56 kcal/mol T*S(tot)=    21.55 kcal/mol
 sn=12  qrot/sn=   13238.3937 T*S(rot)=     6.51 kcal/mol T*S(tot)=    21.50 kcal/mol

-------------------
GIBBS FREE ENTHALPY
-------------------

The Gibbs free enthalpy is G = H - T*S

Total enthalpy                    ...   -325.84557659 Eh
Total entropy correction          ...     -0.03557237 Eh    -22.32 kcal/mol
-----------------------------------------------------------------------
Final Gibbs free enthalpy         ...   -325.88114896 Eh

For completeness - the Gibbs free enthalpy minus the electronic energy
G-E(el)                           ...      0.12714435 Eh     79.78 kcal/mol

                             ****ORCA TERMINATED NORMALLY****
TOTAL RUN TIME: 0 days 0 hours 38 minutes 50 seconds 292 msec
