                         Program Version 3.0.3 - RELEASE   -
|  1> ! NORI PBE0 def2-TZVP UseSym TightOPT Freq TightSCF Grid3 FinalGrid5 XYZFile
|  2> % pal
|  3>     nprocs 8
|  4> end
|  5> %method
|  6>     SymThresh 5.0e-2
|  7> end
|  8> % geom
|  9>     MaxIter 10
| 10> end
| 11> % maxcore 2000
| 12> % output
| 13>     printlevel mini
| 14>     print[ P_Basis ] 0
| 15>     print[ P_SCFInfo ] 1
| 16>     print[ P_SCFIterInfo ] 1
| 17>     print[ P_OrbEn ] 0
| 18>     print[ P_Cartesian ] 0
| 19> end
| 20> % elprop
| 21>     Dipole false
| 22> end
| 23> *xyz 1 1
| 24>  O        1.2309905377    -0.2019925614    -1.0195384797
| 25>  C        2.1853650152     0.0661422586    -0.4111829757
| 26>  C        3.2940400532    -0.6577005921     0.4842165742
| 27>  N        3.3668456895     0.6718766286     1.2166615765
| 28>  C        3.1321197091     1.3235441475    -0.1360286930
| 29>  C        4.3140504895     0.7963871104    -0.8908832327
| 30>  C        4.4183668545    -0.4834593943    -0.4901934621
| 31>  H        3.1573317416    -1.5546313865     1.0788237906
| 32>  H        2.6106173379     0.8211404880     1.8906749105
| 33>  H        4.2812373633     0.8764502464     1.6310426818
| 34>  H        2.8367184626     2.3671574563    -0.1486809790
| 35>  H        4.8452689302     1.3276502008    -1.6667064838
| 36>  H        5.0573478156    -1.2752146023    -0.8522552276
| 37> *
| 38>
| 39>                          ****END OF INPUT****
 Total Charge           Charge          ....    1
 Multiplicity           Mult            ....    1
 Number of Electrons    NEL             ....   50
FINAL SINGLE POINT ENERGY      -323.522678453752

CARTESIAN COORDINATES (ANGSTROEM)
---------------------------------
  O      2.105432   -0.000192    0.000000
  C      0.952833   -0.155735   -0.000000
  C     -0.255436   -0.257057    1.041152
  N     -0.889702   -1.164470    0.000000
  C     -0.255436   -0.257057   -1.041152
  C     -0.888698    1.049715   -0.672548
  C     -0.888698    1.049715    0.672548
  H     -0.198126   -0.622314    2.060998
  H     -0.525121   -2.121188   -0.000000
  H     -1.914197   -1.155915    0.000000
  H     -0.198126   -0.622314   -2.060998
  H     -1.148702    1.834153   -1.367697
  H     -1.148702    1.834153    1.367697

FINAL SINGLE POINT ENERGY      -323.522678618641
                    ***********************HURRAY********************
 Multiplicity           Mult            ....    1
 Number of Electrons    NEL             ....   50
 Basis Dimension        Dim             ....  253
FINAL SINGLE POINT ENERGY      -323.522678660669

VIBRATIONAL FREQUENCIES
-----------------------

   0:         0.00 cm**-1
   1:         0.00 cm**-1
   2:         0.00 cm**-1
   3:         0.00 cm**-1
   4:         0.00 cm**-1
   5:         0.00 cm**-1
   6:       196.20 cm**-1
   7:       371.48 cm**-1
   8:       477.66 cm**-1
   9:       578.32 cm**-1
  10:       580.74 cm**-1
  11:       709.64 cm**-1
  12:       748.92 cm**-1
  13:       793.07 cm**-1
  14:       812.09 cm**-1
  15:       833.29 cm**-1
  16:       925.65 cm**-1
  17:       946.27 cm**-1
  18:       955.87 cm**-1
  19:       979.23 cm**-1
  20:      1020.94 cm**-1
  21:      1026.17 cm**-1
  22:      1089.56 cm**-1
  23:      1136.94 cm**-1
  24:      1173.39 cm**-1
  25:      1177.30 cm**-1
  26:      1232.74 cm**-1
  27:      1285.58 cm**-1
  28:      1292.14 cm**-1
  29:      1358.51 cm**-1
  30:      1586.12 cm**-1
  31:      1621.79 cm**-1
  32:      2016.01 cm**-1
  33:      3211.33 cm**-1
  34:      3212.46 cm**-1
  35:      3261.55 cm**-1
  36:      3279.16 cm**-1
  37:      3404.05 cm**-1
  38:      3493.80 cm**-1

IR SPECTRUM
-----------

 Mode    freq (cm**-1)   T**2         TX         TY         TZ
-------------------------------------------------------------------
   6:       196.20    3.973286  (  1.365406   1.452223  -0.000000)
   7:       371.48    0.311290  ( -0.000000   0.000007   0.557934)
   8:       477.66   11.296099  (  3.067793  -1.372860   0.000000)
   9:       578.32   18.592813  ( -4.240432   0.782017  -0.000000)
  10:       580.74    0.529097  (  0.000000  -0.000008   0.727390)
  11:       709.64   30.105646  ( -5.112165  -1.992840  -0.000000)
  12:       748.92    2.430146  ( -0.000000   0.000002  -1.558893)
  13:       793.07   25.462044  (  5.012738   0.578361   0.000000)
  14:       812.09   11.455290  ( -0.000000   0.000002   3.384566)
  15:       833.29   19.050722  (  3.483519   2.629794  -0.000000)
  16:       925.65    8.541688  ( -0.000000  -0.000004   2.922617)
  17:       946.27    9.570231  ( -2.478264  -1.851604   0.000000)
  18:       955.87   10.284534  ( -0.000000  -0.000010  -3.206951)
  19:       979.23    0.301474  ( -0.000000   0.000014  -0.549067)
  20:      1020.94    0.121108  (  0.020895   0.347378  -0.000000)
  21:      1026.17    5.705177  (  1.320520  -1.990327  -0.000000)
  22:      1089.56    0.314100  (  0.000000  -0.000001  -0.560446)
  23:      1136.94   18.602437  ( -3.642989   2.308910  -0.000000)
  24:      1173.39    8.871874  (  2.840393  -0.896685  -0.000000)
  25:      1177.30   11.449091  ( -0.000000   0.000000  -3.383651)
  26:      1232.74   25.357662  ( -0.000000  -0.000002   5.035639)
  27:      1285.58   14.883726  ( -0.000000  -0.000003  -3.857943)
  28:      1292.14    4.159285  (  2.023239  -0.256491   0.000000)
  29:      1358.51   50.053835  ( -0.000000  -0.000002   7.074874)
  30:      1586.12   23.924596  (  1.956820   4.482795   0.000000)
  31:      1621.79   64.283927  (  4.838006   6.393561  -0.000000)
  32:      2016.01  409.444072  ( 20.200735  -1.172333   0.000000)
  33:      3211.33    6.433630  (  0.000000   0.000000  -2.536460)
  34:      3212.46    1.465836  (  0.285477   1.176580   0.000000)
  35:      3261.55   17.526478  (  0.000000   0.000005   4.186464)
  36:      3279.16   18.436188  (  1.604027  -3.982874   0.000000)
  37:      3404.05   63.549079  ( -5.256247  -5.993408  -0.000000)
  38:      3493.80   77.600023  ( -7.013079   5.330735  -0.000000)

--------------------------
THERMOCHEMISTRY AT 298.15K
--------------------------

Temperature         ... 298.15 K
Pressure            ... 1.00 atm
Total Mass          ... 96.11 AMU

Throughout the following assumptions are being made:
  (1) The electronic state is orbitally nondegenerate
  (2) There are no thermally accessible electronically excited states
  (3) Hindered rotations indicated by low frequency modes) are not
      treated as such but are treated as vibrations and this may
      case some error
  (4) All equations used are the standard statistical mechanics
      equations for an ideal gas
  (5) All vibrations are strinctly harmonic

------------
INNER ENERGY
------------

The inner energy is: U= E(el) + E(ZPE) + E(vib) + E(rot) + E(trans)
    E(el)   - is the total energy from the electronic structure calculation
              = E(kin-el) + E(nuc-el) + E(el-el) + E(nuc-nuc)
    E(ZPE)  - the the zero temperature vibrational energy from the frequency calculation
    E(vib)  - the the finite temperature correction to E(ZPE) due to population
              of excietd vibrational states
    E(rot)  - is the rotational thermal energy
    E(trans)- is the translational thermal energy

Summary of contributions to the inner energy U:
Electronic energy                ...   -323.52267866 Eh
Zero point energy                ...      0.10659086 Eh      66.89 kcal/mol
Thermal vibrational correction   ...      0.00230094 Eh       1.44 kcal/mol
Thermal rotational correction    ...      0.00141627 Eh       0.89 kcal/mol
Thermal translational correction ...      0.00141627 Eh       0.89 kcal/mol
-----------------------------------------------------------------------
Total thermal energy                   -323.41095432 Eh

Summary of corrections to the electronic energy:
(perhaps to be used in another calculation)
Total thermal correction                  0.00513348 Eh       3.22 kcal/mol
Non-thermal (ZPE) correction              0.10659086 Eh      66.89 kcal/mol
-----------------------------------------------------------------------
Total correction                          0.11172434 Eh      70.11 kcal/mol

--------
ENTHALPY
--------

The enthalpy is H = U + kB*T
                kB is Boltzmann's constant
Total free energy                 ...   -323.41095432 Eh
Thermal Enthalpy correction       ...      0.00094421 Eh       0.59 kcal/mol
-----------------------------------------------------------------------
Total Enthalpy                    ...   -323.41001011 Eh

-------
ENTROPY
-------

The entropy contributions are T*S = T*(S(el)+S(vib)+S(rot)+S(trans)
     S(el)   - electronic entropy
     S(vib)  - vibrational entropy
     S(rot)  - rotational entropy
     S(trans)- translational entropy
The entropies will be listed as mutliplied by the temperature to get
units of energy

Electronic entropy                ...      0.00000000 Eh      0.00 kcal/mol
Vibrational entropy               ...      0.00334444 Eh      2.10 kcal/mol
Rotational entropy                ...      0.01156707 Eh      7.26 kcal/mol
Translational entropy             ...      0.01881503 Eh     11.81 kcal/mol
-----------------------------------------------------------------------
Final entropy term                ...      0.03372654 Eh     21.16 kcal/mol

CAUTION: The rotational entropy is not quite correctly treated here
         because it includes a symmetry number that is not yet correctly
         implemented in ORCA!
For a nonlinear molecule the correct rotational entropy is:
    S(rot) = R*(ln(qrot/sn)+1.5)
    R    = 8.31441 J/mol/K = 1.987191683e-3 kcal/mol/K
    qrot = 140016.0450729
    sn is the rotational symmetry number. We have assumed 3 here
       if it is different for your molecule then you should correct
       the printed rotational entropy by manually evaluating the equation
       as given above

For convenience we print out the resulting values for sn=1 - 12:
 sn= 1  qrot/sn=  140016.0451 T*S(rot)=     7.91 kcal/mol T*S(tot)=    21.81 kcal/mol
 sn= 2  qrot/sn=   70008.0225 T*S(rot)=     7.50 kcal/mol T*S(tot)=    21.40 kcal/mol
 sn= 3  qrot/sn=   46672.0150 T*S(rot)=     7.26 kcal/mol T*S(tot)=    21.16 kcal/mol
 sn= 4  qrot/sn=   35004.0113 T*S(rot)=     7.09 kcal/mol T*S(tot)=    20.99 kcal/mol
 sn= 5  qrot/sn=   28003.2090 T*S(rot)=     6.96 kcal/mol T*S(tot)=    20.86 kcal/mol
 sn= 6  qrot/sn=   23336.0075 T*S(rot)=     6.85 kcal/mol T*S(tot)=    20.75 kcal/mol
 sn= 7  qrot/sn=   20002.2922 T*S(rot)=     6.76 kcal/mol T*S(tot)=    20.66 kcal/mol
 sn= 8  qrot/sn=   17502.0056 T*S(rot)=     6.68 kcal/mol T*S(tot)=    20.58 kcal/mol
 sn= 9  qrot/sn=   15557.3383 T*S(rot)=     6.61 kcal/mol T*S(tot)=    20.51 kcal/mol
 sn=10  qrot/sn=   14001.6045 T*S(rot)=     6.55 kcal/mol T*S(tot)=    20.45 kcal/mol
 sn=11  qrot/sn=   12728.7314 T*S(rot)=     6.49 kcal/mol T*S(tot)=    20.39 kcal/mol
 sn=12  qrot/sn=   11668.0038 T*S(rot)=     6.44 kcal/mol T*S(tot)=    20.34 kcal/mol

-------------------
GIBBS FREE ENTHALPY
-------------------

The Gibbs free enthalpy is G = H - T*S

Total enthalpy                    ...   -323.41001011 Eh
Total entropy correction          ...     -0.03372654 Eh    -21.16 kcal/mol
-----------------------------------------------------------------------
Final Gibbs free enthalpy         ...   -323.44373665 Eh

For completeness - the Gibbs free enthalpy minus the electronic energy
G-E(el)                           ...      0.07894201 Eh     49.54 kcal/mol

                             ****ORCA TERMINATED NORMALLY****
TOTAL RUN TIME: 0 days 0 hours 26 minutes 58 seconds 655 msec
