                         Program Version 3.0.3 - RELEASE   -
|  1> ! NORI PBE0 def2-TZVP UseSym TightOPT Freq TightSCF Grid3 FinalGrid5 XYZFile
|  2> % pal
|  3>     nprocs 8
|  4> end
|  5> %method
|  6>     SymThresh 5.0e-2
|  7> end
|  8> % geom
|  9>     MaxIter 10
| 10> end
| 11> % maxcore 2000
| 12> % output
| 13>     printlevel mini
| 14>     print[ P_Basis ] 0
| 15>     print[ P_SCFInfo ] 1
| 16>     print[ P_SCFIterInfo ] 1
| 17>     print[ P_OrbEn ] 0
| 18>     print[ P_Cartesian ] 0
| 19> end
| 20> % elprop
| 21>     Dipole false
| 22> end
| 23> *xyz 1 1
| 24>  O        0.9047957150    -0.0798114108    -0.5494051293
| 25>  C        2.1168236192     0.2501388426    -0.0295257154
| 26>  C        3.3734828042    -0.5567128550    -0.5264136463
| 27>  N        4.1562045093     0.7159126845    -0.1890906547
| 28>  C        2.9046524482     1.4069157374    -0.7390706411
| 29>  C        2.9611892997     0.9040895566    -2.1693474868
| 30>  C        3.2693146076    -0.3836827521    -2.0290148971
| 31>  H        0.2560473909    -0.2283303138     0.1440382410
| 32>  H        2.1055883641     0.3647654851     1.0612653142
| 33>  H        3.7339395281    -1.4807465879    -0.0833809399
| 34>  H        4.3190035735     0.8635549757     0.8091268814
| 35>  H        5.0098844209     0.8607592550    -0.7301288190
| 36>  H        2.7918591356     2.4631123149    -0.5106797582
| 37>  H        2.7559230360     1.4884741064    -3.0530470189
| 38>  H        3.3900415478    -1.1639990385    -2.7647957300
| 39> *
| 40>
| 41>                          ****END OF INPUT****
 Total Charge           Charge          ....    1
 Multiplicity           Mult            ....    1
 Number of Electrons    NEL             ....   52
FINAL SINGLE POINT ENERGY      -324.742082677033

CARTESIAN COORDINATES (ANGSTROEM)
---------------------------------
  O      0.000224   -0.000373    1.941110
  C      0.706344   -0.011959    0.779531
  C      0.255013   -1.017357   -0.344092
  N      0.865670    0.000029   -1.312669
  C      0.273078    1.012428   -0.327674
  C     -1.197066    0.677262   -0.494366
  C     -1.208202   -0.654193   -0.505589
  H      0.580479   -0.078217    2.703261
  H      1.792391   -0.023721    0.930965
  H      0.600456   -2.043240   -0.435537
  H      1.887083   -0.008225   -1.350567
  H      0.459399    0.011057   -2.249445
  H      0.636230    2.033546   -0.402081
  H     -2.005211    1.390304   -0.550029
  H     -2.028829   -1.351870   -0.572657

FINAL SINGLE POINT ENERGY      -324.742082996067
                    ***********************HURRAY********************
 Multiplicity           Mult            ....    1
 Number of Electrons    NEL             ....   52
 Basis Dimension        Dim             ....  265
FINAL SINGLE POINT ENERGY      -324.742083077172

VIBRATIONAL FREQUENCIES
-----------------------

   0:         0.00 cm**-1
   1:         0.00 cm**-1
   2:         0.00 cm**-1
   3:         0.00 cm**-1
   4:         0.00 cm**-1
   5:         0.00 cm**-1
   6:        68.95 cm**-1
   7:       254.26 cm**-1
   8:       355.52 cm**-1
   9:       496.42 cm**-1
  10:       561.07 cm**-1
  11:       618.37 cm**-1
  12:       729.44 cm**-1
  13:       753.06 cm**-1
  14:       785.35 cm**-1
  15:       820.68 cm**-1
  16:       849.06 cm**-1
  17:       859.02 cm**-1
  18:       949.30 cm**-1
  19:       952.97 cm**-1
  20:       967.38 cm**-1
  21:      1004.34 cm**-1
  22:      1025.14 cm**-1
  23:      1108.65 cm**-1
  24:      1141.60 cm**-1
  25:      1154.39 cm**-1
  26:      1192.09 cm**-1
  27:      1214.01 cm**-1
  28:      1246.59 cm**-1
  29:      1254.37 cm**-1
  30:      1270.13 cm**-1
  31:      1275.00 cm**-1
  32:      1313.42 cm**-1
  33:      1353.43 cm**-1
  34:      1481.23 cm**-1
  35:      1611.54 cm**-1
  36:      1642.78 cm**-1
  37:      3059.07 cm**-1
  38:      3189.56 cm**-1
  39:      3190.43 cm**-1
  40:      3265.39 cm**-1
  41:      3285.87 cm**-1
  42:      3428.30 cm**-1
  43:      3521.14 cm**-1
  44:      3874.73 cm**-1

IR SPECTRUM
-----------

 Mode    freq (cm**-1)   T**2         TX         TY         TZ
-------------------------------------------------------------------
   6:        68.95   94.563850  (  0.911266   9.671798   0.435630)
   7:       254.26    1.839927  ( -0.482624  -0.022643   1.267473)
   8:       355.52   19.060495  ( -0.325633  -4.329896  -0.454372)
   9:       496.42   12.549421  ( -2.339875   0.003056  -2.659774)
  10:       561.07    0.023904  (  0.018648   0.008776  -0.153231)
  11:       618.37    1.579220  (  1.236087  -0.142555   0.176031)
  12:       729.44   74.244435  (  0.107336  -0.040663  -8.615757)
  13:       753.06    0.985909  ( -0.021156  -0.988171   0.094764)
  14:       785.35    7.315870  (  0.878646   0.208358  -2.549596)
  15:       820.68    6.021845  ( -0.214223  -2.444230   0.041182)
  16:       849.06   27.819052  ( -2.442448   0.150886   4.672337)
  17:       859.02    3.585105  (  0.002687  -1.890799  -0.099895)
  18:       949.30    0.684396  ( -0.010230  -0.823011   0.083337)
  19:       952.97   24.293524  (  1.692497  -0.023098  -4.629087)
  20:       967.38    0.185784  ( -0.055285  -0.424613   0.049306)
  21:      1004.34    3.044774  (  1.735288  -0.020491  -0.182015)
  22:      1025.14    5.692897  ( -2.381518   0.022855   0.144043)
  23:      1108.65    2.665925  (  0.089797   1.623794   0.145443)
  24:      1141.60    4.189132  ( -1.978802  -0.006234   0.522910)
  25:      1154.39    8.966624  (  0.102989   2.991984  -0.063612)
  26:      1192.09   15.720843  ( -0.354195   3.880606   0.732315)
  27:      1214.01   71.631501  ( -1.940040  -0.293550   8.232957)
  28:      1246.59  110.558332  (  2.853614  -0.334928 -10.114497)
  29:      1254.37   29.519567  ( -0.106238  -5.421475   0.340429)
  30:      1270.13   10.352818  ( -1.491451  -0.080043  -2.849909)
  31:      1275.00    4.801861  (  0.026612  -2.189148  -0.093733)
  32:      1313.42   24.469177  (  3.785219  -0.140687  -3.181430)
  33:      1353.43   54.808706  ( -0.130809  -7.401841   0.065964)
  34:      1481.23   24.349401  (  3.011841  -0.005559   3.908732)
  35:      1611.54   81.158434  ( -4.558883  -0.017881   7.770116)
  36:      1642.78   10.140933  ( -0.459212  -0.018074   3.151147)
  37:      3059.07   18.457766  (  4.278602  -0.031413  -0.387747)
  38:      3189.56    0.493191  (  0.081455  -0.668599   0.198826)
  39:      3190.43    0.239860  (  0.125525   0.332439   0.337027)
  40:      3265.39   10.185534  (  0.021599   3.191294   0.026606)
  41:      3285.87    9.767952  ( -3.122568   0.044101  -0.124813)
  42:      3428.30   47.619420  (  3.182639   0.022024  -6.122887)
  43:      3521.14   60.400850  (  5.890364  -0.090262   5.069153)
  44:      3874.73  159.484439  ( -4.345156   0.689803 -11.837577)

--------------------------
THERMOCHEMISTRY AT 298.15K
--------------------------

Temperature         ... 298.15 K
Pressure            ... 1.00 atm
Total Mass          ... 98.12 AMU

Throughout the following assumptions are being made:
  (1) The electronic state is orbitally nondegenerate
  (2) There are no thermally accessible electronically excited states
  (3) Hindered rotations indicated by low frequency modes) are not
      treated as such but are treated as vibrations and this may
      case some error
  (4) All equations used are the standard statistical mechanics
      equations for an ideal gas
  (5) All vibrations are strinctly harmonic

------------
INNER ENERGY
------------

The inner energy is: U= E(el) + E(ZPE) + E(vib) + E(rot) + E(trans)
    E(el)   - is the total energy from the electronic structure calculation
              = E(kin-el) + E(nuc-el) + E(el-el) + E(nuc-nuc)
    E(ZPE)  - the the zero temperature vibrational energy from the frequency calculation
    E(vib)  - the the finite temperature correction to E(ZPE) due to population
              of excietd vibrational states
    E(rot)  - is the rotational thermal energy
    E(trans)- is the translational thermal energy

Summary of contributions to the inner energy U:
Electronic energy                ...   -324.74208308 Eh
Zero point energy                ...      0.13013814 Eh      81.66 kcal/mol
Thermal vibrational correction   ...      0.00305145 Eh       1.91 kcal/mol
Thermal rotational correction    ...      0.00141627 Eh       0.89 kcal/mol
Thermal translational correction ...      0.00141627 Eh       0.89 kcal/mol
-----------------------------------------------------------------------
Total thermal energy                   -324.60606094 Eh

Summary of corrections to the electronic energy:
(perhaps to be used in another calculation)
Total thermal correction                  0.00588400 Eh       3.69 kcal/mol
Non-thermal (ZPE) correction              0.13013814 Eh      81.66 kcal/mol
-----------------------------------------------------------------------
Total correction                          0.13602213 Eh      85.35 kcal/mol

--------
ENTHALPY
--------

The enthalpy is H = U + kB*T
                kB is Boltzmann's constant
Total free energy                 ...   -324.60606094 Eh
Thermal Enthalpy correction       ...      0.00094421 Eh       0.59 kcal/mol
-----------------------------------------------------------------------
Total Enthalpy                    ...   -324.60511674 Eh

-------
ENTROPY
-------

The entropy contributions are T*S = T*(S(el)+S(vib)+S(rot)+S(trans)
     S(el)   - electronic entropy
     S(vib)  - vibrational entropy
     S(rot)  - rotational entropy
     S(trans)- translational entropy
The entropies will be listed as mutliplied by the temperature to get
units of energy

Electronic entropy                ...      0.00000000 Eh      0.00 kcal/mol
Vibrational entropy               ...      0.00515979 Eh      3.24 kcal/mol
Rotational entropy                ...      0.01159466 Eh      7.28 kcal/mol
Translational entropy             ...      0.01884443 Eh     11.83 kcal/mol
-----------------------------------------------------------------------
Final entropy term                ...      0.03559889 Eh     22.34 kcal/mol

CAUTION: The rotational entropy is not quite correctly treated here
         because it includes a symmetry number that is not yet correctly
         implemented in ORCA!
For a nonlinear molecule the correct rotational entropy is:
    S(rot) = R*(ln(qrot/sn)+1.5)
    R    = 8.31441 J/mol/K = 1.987191683e-3 kcal/mol/K
    qrot = 144168.4095099
    sn is the rotational symmetry number. We have assumed 3 here
       if it is different for your molecule then you should correct
       the printed rotational entropy by manually evaluating the equation
       as given above

For convenience we print out the resulting values for sn=1 - 12:
 sn= 1  qrot/sn=  144168.4095 T*S(rot)=     7.93 kcal/mol T*S(tot)=    22.99 kcal/mol
 sn= 2  qrot/sn=   72084.2048 T*S(rot)=     7.52 kcal/mol T*S(tot)=    22.58 kcal/mol
 sn= 3  qrot/sn=   48056.1365 T*S(rot)=     7.28 kcal/mol T*S(tot)=    22.34 kcal/mol
 sn= 4  qrot/sn=   36042.1024 T*S(rot)=     7.11 kcal/mol T*S(tot)=    22.17 kcal/mol
 sn= 5  qrot/sn=   28833.6819 T*S(rot)=     6.97 kcal/mol T*S(tot)=    22.04 kcal/mol
 sn= 6  qrot/sn=   24028.0683 T*S(rot)=     6.87 kcal/mol T*S(tot)=    21.93 kcal/mol
 sn= 7  qrot/sn=   20595.4871 T*S(rot)=     6.77 kcal/mol T*S(tot)=    21.84 kcal/mol
 sn= 8  qrot/sn=   18021.0512 T*S(rot)=     6.69 kcal/mol T*S(tot)=    21.76 kcal/mol
 sn= 9  qrot/sn=   16018.7122 T*S(rot)=     6.62 kcal/mol T*S(tot)=    21.69 kcal/mol
 sn=10  qrot/sn=   14416.8410 T*S(rot)=     6.56 kcal/mol T*S(tot)=    21.63 kcal/mol
 sn=11  qrot/sn=   13106.2190 T*S(rot)=     6.51 kcal/mol T*S(tot)=    21.57 kcal/mol
 sn=12  qrot/sn=   12014.0341 T*S(rot)=     6.45 kcal/mol T*S(tot)=    21.52 kcal/mol

-------------------
GIBBS FREE ENTHALPY
-------------------

The Gibbs free enthalpy is G = H - T*S

Total enthalpy                    ...   -324.60511674 Eh
Total entropy correction          ...     -0.03559889 Eh    -22.34 kcal/mol
-----------------------------------------------------------------------
Final Gibbs free enthalpy         ...   -324.64071562 Eh

For completeness - the Gibbs free enthalpy minus the electronic energy
G-E(el)                           ...      0.10136745 Eh     63.61 kcal/mol

                             ****ORCA TERMINATED NORMALLY****
TOTAL RUN TIME: 0 days 0 hours 31 minutes 46 seconds 986 msec
