                         Program Version 3.0.3 - RELEASE   -
|  1> ! NORI PBE0 def2-TZVP UseSym TightOPT Freq TightSCF Grid3 FinalGrid5 XYZFile
|  2> % pal
|  3>     nprocs 8
|  4> end
|  5> %method
|  6>     SymThresh 5.0e-2
|  7> end
|  8> % geom
|  9>     MaxIter 10
| 10> end
| 11> % maxcore 2000
| 12> % output
| 13>     printlevel mini
| 14>     print[ P_Basis ] 0
| 15>     print[ P_SCFInfo ] 1
| 16>     print[ P_SCFIterInfo ] 1
| 17>     print[ P_OrbEn ] 0
| 18>     print[ P_Cartesian ] 0
| 19> end
| 20> % elprop
| 21>     Dipole false
| 22> end
| 23> *xyz 1 1
| 24>  O        1.0550332640    -0.0249183691     0.3479049760
| 25>  C        2.3916429440    -0.2054876041     0.0611334837
| 26>  C        2.8340594987    -0.5221560696    -1.3246110130
| 27>  C        2.9857762791     0.8826582948    -0.7831064413
| 28>  C        4.3246999509     1.4178910627    -0.4919326351
| 29>  C        4.7931692185     2.7020323863    -1.0368055699
| 30>  N        4.3759303685     2.6505799543     0.3849098706
| 31>  H        0.6228441046    -0.8818379558     0.4243958869
| 32>  H        3.0042823155    -0.5924187602     0.8748881592
| 33>  H        3.7244832045    -1.1248915355    -1.4571057054
| 34>  H        2.0726793978    -0.6502619397    -2.0830893568
| 35>  H        2.2657264571     1.6010402680    -1.1642380351
| 36>  H        5.0906080186     0.7068423105    -0.1998369599
| 37>  H        4.1262767716     3.2779398586    -1.6664021917
| 38>  H        5.8512348924     2.8819484090    -1.1775546855
| 39>  H        3.4862996961     3.0675107372     0.6386084987
| 40>  H        5.0894136180     2.7233689527     1.1014117186
| 41> *
| 42>
| 43>                          ****END OF INPUT****
 Total Charge           Charge          ....    1
 Multiplicity           Mult            ....    1
 Number of Electrons    NEL             ....   54
FINAL SINGLE POINT ENERGY      -325.961027353482

CARTESIAN COORDINATES (ANGSTROEM)
---------------------------------
  O      0.000099    0.000468    2.491000
  C     -0.426635   -0.596668    1.323851
  C     -1.694381   -0.168284    0.671892
  C     -0.364143    0.299934    0.122832
  C      0.115769   -0.205695   -1.172704
  C      0.540565    0.692310   -2.258040
  N      1.586176   -0.000543   -1.467672
  H     -0.486786   -0.364830    3.236936
  H     -0.126404   -1.634680    1.183812
  H     -2.257965   -0.901607    0.107672
  H     -2.287818    0.589622    1.166396
  H     -0.115026    1.333743    0.344956
  H     -0.198506   -1.202788   -1.463464
  H      0.508005    1.762445   -2.094834
  H      0.482557    0.368097   -3.289098
  H      2.115505    0.542257   -0.793113
  H      2.114281   -0.743983   -1.910422

FINAL SINGLE POINT ENERGY      -325.961027945710
                    ***********************HURRAY********************
 Multiplicity           Mult            ....    1
 Number of Electrons    NEL             ....   54
 Basis Dimension        Dim             ....  277
FINAL SINGLE POINT ENERGY      -325.961028504041

VIBRATIONAL FREQUENCIES
-----------------------

   0:         0.00 cm**-1
   1:         0.00 cm**-1
   2:         0.00 cm**-1
   3:         0.00 cm**-1
   4:         0.00 cm**-1
   5:         0.00 cm**-1
   6:        73.48 cm**-1
   7:       144.27 cm**-1
   8:       201.21 cm**-1
   9:       314.58 cm**-1
  10:       367.02 cm**-1
  11:       402.95 cm**-1
  12:       421.77 cm**-1
  13:       474.55 cm**-1
  14:       742.17 cm**-1
  15:       811.51 cm**-1
  16:       832.65 cm**-1
  17:       866.83 cm**-1
  18:       901.46 cm**-1
  19:       916.57 cm**-1
  20:       922.91 cm**-1
  21:       978.22 cm**-1
  22:      1011.60 cm**-1
  23:      1030.71 cm**-1
  24:      1066.88 cm**-1
  25:      1092.04 cm**-1
  26:      1108.36 cm**-1
  27:      1155.36 cm**-1
  28:      1179.87 cm**-1
  29:      1208.16 cm**-1
  30:      1237.42 cm**-1
  31:      1246.00 cm**-1
  32:      1252.52 cm**-1
  33:      1272.26 cm**-1
  34:      1291.38 cm**-1
  35:      1326.68 cm**-1
  36:      1417.92 cm**-1
  37:      1456.59 cm**-1
  38:      1494.08 cm**-1
  39:      1515.98 cm**-1
  40:      1630.53 cm**-1
  41:      3117.19 cm**-1
  42:      3161.36 cm**-1
  43:      3164.01 cm**-1
  44:      3170.79 cm**-1
  45:      3193.60 cm**-1
  46:      3257.05 cm**-1
  47:      3272.11 cm**-1
  48:      3511.03 cm**-1
  49:      3619.29 cm**-1
  50:      3839.34 cm**-1

IR SPECTRUM
-----------

 Mode    freq (cm**-1)   T**2         TX         TY         TZ
-------------------------------------------------------------------
   6:        73.48    5.260359  (  0.144686  -1.601833   1.635101)
   7:       144.27    6.679098  ( -0.282862  -0.853594  -2.422904)
   8:       201.21    2.474246  ( -0.252476   1.184760   1.003417)
   9:       314.58  119.971123  ( -7.722364   7.475888  -2.108865)
  10:       367.02    0.707624  (  0.359041   0.403680  -0.644792)
  11:       402.95   18.275275  ( -2.621671   3.216111   1.028954)
  12:       421.77    7.333988  (  1.104291  -0.540527   2.412957)
  13:       474.55    0.162051  (  0.178142  -0.326766   0.153427)
  14:       742.17   30.270359  ( -4.541073   0.469871   3.070543)
  15:       811.51   13.265637  ( -3.035956   1.373015  -1.470863)
  16:       832.65    3.449300  (  1.082003   0.973419  -1.153701)
  17:       866.83    4.660420  ( -1.295564  -0.526789   1.644514)
  18:       901.46    6.356620  (  1.155627   1.737414  -1.415111)
  19:       916.57   24.208580  ( -4.594411  -1.006128   1.444878)
  20:       922.91   49.972932  ( -2.709617   1.344478   6.389310)
  21:       978.22   24.395841  ( -4.454799  -1.446926   1.567487)
  22:      1011.60   74.856319  (  1.888784   5.555437  -6.358140)
  23:      1030.71    1.350023  ( -0.736180   0.063967  -0.896644)
  24:      1066.88   13.233657  (  0.028501   3.424382  -1.227377)
  25:      1092.04    1.699160  (  0.697982   0.894008  -0.642441)
  26:      1108.36   20.313788  ( -3.083688  -1.892210  -2.687787)
  27:      1155.36    2.849218  (  0.322228   0.429659   1.600244)
  28:      1179.87    2.068391  (  1.185426   0.782569  -0.225260)
  29:      1208.16   13.223948  ( -1.107540  -1.475906  -3.133529)
  30:      1237.42   35.365635  ( -2.173116  -0.901893  -5.461666)
  31:      1246.00   20.350111  (  0.803795  -0.160742   4.436010)
  32:      1252.52    5.726820  ( -1.531432   0.260968   1.820284)
  33:      1272.26   15.878995  (  2.729656   1.011452   2.721201)
  34:      1291.38   62.687002  (  3.503414   3.650747   6.089757)
  35:      1326.68   11.873491  (  2.640253   2.177741   0.399995)
  36:      1417.92    1.495317  (  0.447936  -0.767993   0.839557)
  37:      1456.59   14.088901  (  3.279123  -0.637092  -1.711832)
  38:      1494.08    6.305424  (  1.157333   2.004677  -0.973280)
  39:      1515.98   58.449886  (  0.465698  -1.199268   7.536230)
  40:      1630.53   66.845749  ( -8.161405   0.428150  -0.232172)
  41:      3117.19   17.250687  ( -0.689063   3.526059   2.083935)
  42:      3161.36    1.183701  (  0.088099   1.013977   0.384435)
  43:      3164.01    1.304844  ( -0.807089  -0.051195   0.806741)
  44:      3170.79    2.569912  ( -0.199568   0.941572  -1.282001)
  45:      3193.60    1.012491  (  0.676685   0.715072  -0.207988)
  46:      3257.05    0.734084  (  0.763458  -0.356710  -0.154835)
  47:      3272.11    5.309644  ( -0.152928  -1.872786  -1.333765)
  48:      3511.03  108.687120  ( 10.300118  -1.375903   0.837599)
  49:      3619.29  124.823131  ( -0.781940   8.311880   7.424578)
  50:      3839.34   91.465500  (  2.715356   2.119613  -8.921860)

--------------------------
THERMOCHEMISTRY AT 298.15K
--------------------------

Temperature         ... 298.15 K
Pressure            ... 1.00 atm
Total Mass          ... 100.14 AMU

Throughout the following assumptions are being made:
  (1) The electronic state is orbitally nondegenerate
  (2) There are no thermally accessible electronically excited states
  (3) Hindered rotations indicated by low frequency modes) are not
      treated as such but are treated as vibrations and this may
      case some error
  (4) All equations used are the standard statistical mechanics
      equations for an ideal gas
  (5) All vibrations are strinctly harmonic

------------
INNER ENERGY
------------

The inner energy is: U= E(el) + E(ZPE) + E(vib) + E(rot) + E(trans)
    E(el)   - is the total energy from the electronic structure calculation
              = E(kin-el) + E(nuc-el) + E(el-el) + E(nuc-nuc)
    E(ZPE)  - the the zero temperature vibrational energy from the frequency calculation
    E(vib)  - the the finite temperature correction to E(ZPE) due to population
              of excietd vibrational states
    E(rot)  - is the rotational thermal energy
    E(trans)- is the translational thermal energy

Summary of contributions to the inner energy U:
Electronic energy                ...   -325.96102850 Eh
Zero point energy                ...      0.15189059 Eh      95.31 kcal/mol
Thermal vibrational correction   ...      0.00438166 Eh       2.75 kcal/mol
Thermal rotational correction    ...      0.00141627 Eh       0.89 kcal/mol
Thermal translational correction ...      0.00141627 Eh       0.89 kcal/mol
-----------------------------------------------------------------------
Total thermal energy                   -325.80192371 Eh

Summary of corrections to the electronic energy:
(perhaps to be used in another calculation)
Total thermal correction                  0.00721420 Eh       4.53 kcal/mol
Non-thermal (ZPE) correction              0.15189059 Eh      95.31 kcal/mol
-----------------------------------------------------------------------
Total correction                          0.15910479 Eh      99.84 kcal/mol

--------
ENTHALPY
--------

The enthalpy is H = U + kB*T
                kB is Boltzmann's constant
Total free energy                 ...   -325.80192371 Eh
Thermal Enthalpy correction       ...      0.00094421 Eh       0.59 kcal/mol
-----------------------------------------------------------------------
Total Enthalpy                    ...   -325.80097950 Eh

-------
ENTROPY
-------

The entropy contributions are T*S = T*(S(el)+S(vib)+S(rot)+S(trans)
     S(el)   - electronic entropy
     S(vib)  - vibrational entropy
     S(rot)  - rotational entropy
     S(trans)- translational entropy
The entropies will be listed as mutliplied by the temperature to get
units of energy

Electronic entropy                ...      0.00000000 Eh      0.00 kcal/mol
Vibrational entropy               ...      0.00758695 Eh      4.76 kcal/mol
Rotational entropy                ...      0.01208637 Eh      7.58 kcal/mol
Translational entropy             ...      0.01887324 Eh     11.84 kcal/mol
-----------------------------------------------------------------------
Final entropy term                ...      0.03854655 Eh     24.19 kcal/mol

CAUTION: The rotational entropy is not quite correctly treated here
         because it includes a symmetry number that is not yet correctly
         implemented in ORCA!
For a nonlinear molecule the correct rotational entropy is:
    S(rot) = R*(ln(qrot/sn)+1.5)
    R    = 8.31441 J/mol/K = 1.987191683e-3 kcal/mol/K
    qrot = 242683.3742833
    sn is the rotational symmetry number. We have assumed 3 here
       if it is different for your molecule then you should correct
       the printed rotational entropy by manually evaluating the equation
       as given above

For convenience we print out the resulting values for sn=1 - 12:
 sn= 1  qrot/sn=  242683.3743 T*S(rot)=     8.24 kcal/mol T*S(tot)=    24.84 kcal/mol
 sn= 2  qrot/sn=  121341.6871 T*S(rot)=     7.82 kcal/mol T*S(tot)=    24.43 kcal/mol
 sn= 3  qrot/sn=   80894.4581 T*S(rot)=     7.58 kcal/mol T*S(tot)=    24.19 kcal/mol
 sn= 4  qrot/sn=   60670.8436 T*S(rot)=     7.41 kcal/mol T*S(tot)=    24.02 kcal/mol
 sn= 5  qrot/sn=   48536.6749 T*S(rot)=     7.28 kcal/mol T*S(tot)=    23.89 kcal/mol
 sn= 6  qrot/sn=   40447.2290 T*S(rot)=     7.17 kcal/mol T*S(tot)=    23.78 kcal/mol
 sn= 7  qrot/sn=   34669.0535 T*S(rot)=     7.08 kcal/mol T*S(tot)=    23.69 kcal/mol
 sn= 8  qrot/sn=   30335.4218 T*S(rot)=     7.00 kcal/mol T*S(tot)=    23.61 kcal/mol
 sn= 9  qrot/sn=   26964.8194 T*S(rot)=     6.93 kcal/mol T*S(tot)=    23.54 kcal/mol
 sn=10  qrot/sn=   24268.3374 T*S(rot)=     6.87 kcal/mol T*S(tot)=    23.47 kcal/mol
 sn=11  qrot/sn=   22062.1249 T*S(rot)=     6.81 kcal/mol T*S(tot)=    23.42 kcal/mol
 sn=12  qrot/sn=   20223.6145 T*S(rot)=     6.76 kcal/mol T*S(tot)=    23.37 kcal/mol

-------------------
GIBBS FREE ENTHALPY
-------------------

The Gibbs free enthalpy is G = H - T*S

Total enthalpy                    ...   -325.80097950 Eh
Total entropy correction          ...     -0.03854655 Eh    -24.19 kcal/mol
-----------------------------------------------------------------------
Final Gibbs free enthalpy         ...   -325.83952605 Eh

For completeness - the Gibbs free enthalpy minus the electronic energy
G-E(el)                           ...      0.12150245 Eh     76.24 kcal/mol

                             ****ORCA TERMINATED NORMALLY****
TOTAL RUN TIME: 0 days 0 hours 33 minutes 54 seconds 256 msec
