                         Program Version 3.0.3 - RELEASE   -
|  1> ! NORI PBE0 def2-TZVP UseSym TightOPT Freq TightSCF Grid3 FinalGrid5 XYZFile
|  2> % pal
|  3>     nprocs 8
|  4> end
|  5> %method
|  6>     SymThresh 5.0e-2
|  7> end
|  8> % geom
|  9>     MaxIter 10
| 10> end
| 11> % maxcore 2000
| 12> % output
| 13>     printlevel mini
| 14>     print[ P_Basis ] 0
| 15>     print[ P_SCFInfo ] 1
| 16>     print[ P_SCFIterInfo ] 1
| 17>     print[ P_OrbEn ] 0
| 18>     print[ P_Cartesian ] 0
| 19> end
| 20> % elprop
| 21>     Dipole false
| 22> end
| 23> *xyz 1 1
| 24>  O        0.9307917130     0.3169988033    -0.0994466613
| 25>  C        2.3187123164     0.1937824679    -0.0244795041
| 26>  C        3.0999237702    -0.5992370757    -1.0216316642
| 27>  C        3.2440745516     0.8982808465    -0.9605614466
| 28>  C        2.6818108230     0.1328739258     1.4131038010
| 29>  C        1.9018380647     0.8586525071     2.4274879063
| 30>  N        1.6855283624    -0.5978468544     2.2575286920
| 31>  H        0.6299253481     0.2992102064    -1.0122461335
| 32>  H        3.9231567175    -1.2170487699    -0.6828952681
| 33>  H        2.5460184354    -1.0178597535    -1.8537253320
| 34>  H        2.7800554525     1.4843336740    -1.7451075316
| 35>  H        4.1654516710     1.3206883794    -0.5782443962
| 36>  H        3.7087319802    -0.1196952269     1.6472085374
| 37>  H        1.0576985307     1.4546981286     2.1070988743
| 38>  H        2.3685726996     1.1296953214     3.3653139886
| 39>  H        1.9973788546    -1.2379152319     2.9780771598
| 40>  H        0.8396307093    -0.8625213483     1.7560289782
| 41> *
| 42>
| 43>                          ****END OF INPUT****
 Total Charge           Charge          ....    1
 Multiplicity           Mult            ....    1
 Number of Electrons    NEL             ....   54
FINAL SINGLE POINT ENERGY      -325.967270045983
FINAL SINGLE POINT ENERGY      -325.967271287066
FINAL SINGLE POINT ENERGY      -325.967272299076

CARTESIAN COORDINATES (ANGSTROEM)
---------------------------------
  O      0.000944   -0.000226    1.461036
  C     -0.544787   -0.208341    0.193486
  C     -1.404853   -1.390377   -0.116497
  C     -1.993025   -0.004274   -0.105854
  C      0.454360    0.256066   -0.800957
  C      1.352248    1.384274   -0.510004
  N      1.871939    0.000697   -0.393966
  H     -0.574073   -0.350166    2.147391
  H     -1.284455   -1.899266   -1.065371
  H     -1.648185   -2.046932    0.710708
  H     -2.622167    0.272336    0.731604
  H     -2.280941    0.450254   -1.046238
  H      0.256751    0.020091   -1.839596
  H      1.264251    1.886370    0.444147
  H      1.779537    1.949220   -1.327791
  H      2.545111   -0.339543   -1.070097
  H      1.965102   -0.356801    0.555036

FINAL SINGLE POINT ENERGY      -325.967272860625
                    ***********************HURRAY********************
 Multiplicity           Mult            ....    1
 Number of Electrons    NEL             ....   54
 Basis Dimension        Dim             ....  277
FINAL SINGLE POINT ENERGY      -325.967274001644

VIBRATIONAL FREQUENCIES
-----------------------

   0:         0.00 cm**-1
   1:         0.00 cm**-1
   2:         0.00 cm**-1
   3:         0.00 cm**-1
   4:         0.00 cm**-1
   5:         0.00 cm**-1
   6:        96.39 cm**-1
   7:       114.21 cm**-1
   8:       216.16 cm**-1
   9:       248.28 cm**-1
  10:       335.30 cm**-1
  11:       368.31 cm**-1
  12:       475.53 cm**-1
  13:       544.49 cm**-1
  14:       721.38 cm**-1
  15:       762.76 cm**-1
  16:       794.59 cm**-1
  17:       858.96 cm**-1
  18:       885.40 cm**-1
  19:       894.65 cm**-1
  20:       929.07 cm**-1
  21:       963.82 cm**-1
  22:      1004.96 cm**-1
  23:      1014.49 cm**-1
  24:      1034.45 cm**-1
  25:      1071.16 cm**-1
  26:      1078.59 cm**-1
  27:      1091.89 cm**-1
  28:      1158.10 cm**-1
  29:      1176.73 cm**-1
  30:      1185.99 cm**-1
  31:      1187.24 cm**-1
  32:      1253.91 cm**-1
  33:      1274.11 cm**-1
  34:      1330.82 cm**-1
  35:      1358.81 cm**-1
  36:      1456.85 cm**-1
  37:      1470.66 cm**-1
  38:      1489.10 cm**-1
  39:      1514.77 cm**-1
  40:      1596.13 cm**-1
  41:      3152.14 cm**-1
  42:      3156.09 cm**-1
  43:      3179.26 cm**-1
  44:      3216.89 cm**-1
  45:      3235.15 cm**-1
  46:      3248.24 cm**-1
  47:      3285.25 cm**-1
  48:      3478.20 cm**-1
  49:      3612.14 cm**-1
  50:      3869.10 cm**-1

IR SPECTRUM
-----------

 Mode    freq (cm**-1)   T**2         TX         TY         TZ
-------------------------------------------------------------------
   6:        96.39   39.562731  ( -2.239654   5.637391   1.663281)
   7:       114.21   69.838899  (  4.009271  -7.301337  -0.674629)
   8:       216.16    8.941591  (  0.043809   2.745177  -1.184769)
   9:       248.28    4.230019  ( -0.836033  -0.080160   1.877403)
  10:       335.30   15.909897  (  2.832726   0.809778  -2.688832)
  11:       368.31    3.589873  (  1.353537  -1.322626   0.092049)
  12:       475.53    7.745090  ( -0.202813  -0.756213   2.670599)
  13:       544.49    0.312252  (  0.460615  -0.109571  -0.296783)
  14:       721.38    5.021707  ( -1.472499  -0.544889  -1.598921)
  15:       762.76    1.842500  ( -0.737556  -0.382143  -1.073535)
  16:       794.59   13.769013  ( -3.313982   1.476401   0.778958)
  17:       858.96   20.022590  ( -3.493021   0.499369  -2.751731)
  18:       885.40   29.067202  ( -4.374728   0.318537  -3.134883)
  19:       894.65   12.589902  ( -3.157901  -0.364100   1.576386)
  20:       929.07    9.788581  ( -2.160619  -1.950332  -1.147393)
  21:       963.82   14.092192  ( -2.820206   2.476375  -0.078697)
  22:      1004.96   13.320644  ( -0.073199   3.648700  -0.047692)
  23:      1014.49    6.888103  (  1.515454   2.132630  -0.208305)
  24:      1034.45   90.733062  (  6.106263   5.876923   4.348377)
  25:      1071.16   10.295316  (  0.827588  -0.429752   3.070135)
  26:      1078.59   46.347799  ( -3.300455  -1.876736   5.650898)
  27:      1091.89    2.799829  (  0.193234  -1.525650   0.659456)
  28:      1158.10    5.486704  (  1.300522   1.116268   1.596651)
  29:      1176.73    1.268906  (  1.008182   0.353109  -0.357476)
  30:      1185.99   57.950527  (  4.560614   2.053645   5.738804)
  31:      1187.24    4.148716  ( -1.153724  -0.684216  -1.532803)
  32:      1253.91    2.404834  ( -0.222264   0.221926   1.518612)
  33:      1274.11    2.442727  (  0.230860   1.154081  -1.028362)
  34:      1330.82   52.203920  (  4.865201   1.413196   5.151370)
  35:      1358.81    7.766845  ( -0.873471  -0.069811  -2.645566)
  36:      1456.85   10.568533  ( -1.434292   2.911082   0.192203)
  37:      1470.66    7.852231  ( -0.232331  -2.501627  -1.241014)
  38:      1489.10   14.338311  (  2.351668   2.966961   0.071512)
  39:      1514.77   17.317645  ( -2.605220   0.258811  -3.234732)
  40:      1596.13   78.491694  ( -7.962559   3.781722  -0.887658)
  41:      3152.14    0.737898  (  0.642731  -0.568423  -0.041105)
  42:      3156.09    0.701459  ( -0.667807  -0.486734   0.136320)
  43:      3179.26    3.652127  (  0.383607   1.706580   0.769778)
  44:      3216.89    2.016090  (  0.428985   0.197139   1.339104)
  45:      3235.15    0.515245  (  0.331229  -0.574112  -0.275551)
  46:      3248.24    0.276588  (  0.516695   0.096478   0.017482)
  47:      3285.25    9.195233  ( -0.782595   0.236948   2.920040)
  48:      3478.20   99.361349  (  5.621614  -5.805157   5.836006)
  49:      3612.14  160.949660  (  7.349800  -1.177189 -10.273477)
  50:      3869.10  102.859603  ( -3.243224  -2.395109   9.306157)

--------------------------
THERMOCHEMISTRY AT 298.15K
--------------------------

Temperature         ... 298.15 K
Pressure            ... 1.00 atm
Total Mass          ... 100.14 AMU

Throughout the following assumptions are being made:
  (1) The electronic state is orbitally nondegenerate
  (2) There are no thermally accessible electronically excited states
  (3) Hindered rotations indicated by low frequency modes) are not
      treated as such but are treated as vibrations and this may
      case some error
  (4) All equations used are the standard statistical mechanics
      equations for an ideal gas
  (5) All vibrations are strinctly harmonic

------------
INNER ENERGY
------------

The inner energy is: U= E(el) + E(ZPE) + E(vib) + E(rot) + E(trans)
    E(el)   - is the total energy from the electronic structure calculation
              = E(kin-el) + E(nuc-el) + E(el-el) + E(nuc-nuc)
    E(ZPE)  - the the zero temperature vibrational energy from the frequency calculation
    E(vib)  - the the finite temperature correction to E(ZPE) due to population
              of excietd vibrational states
    E(rot)  - is the rotational thermal energy
    E(trans)- is the translational thermal energy

Summary of contributions to the inner energy U:
Electronic energy                ...   -325.96727400 Eh
Zero point energy                ...      0.15124884 Eh      94.91 kcal/mol
Thermal vibrational correction   ...      0.00449643 Eh       2.82 kcal/mol
Thermal rotational correction    ...      0.00141627 Eh       0.89 kcal/mol
Thermal translational correction ...      0.00141627 Eh       0.89 kcal/mol
-----------------------------------------------------------------------
Total thermal energy                   -325.80869619 Eh

Summary of corrections to the electronic energy:
(perhaps to be used in another calculation)
Total thermal correction                  0.00732897 Eh       4.60 kcal/mol
Non-thermal (ZPE) correction              0.15124884 Eh      94.91 kcal/mol
-----------------------------------------------------------------------
Total correction                          0.15857781 Eh      99.51 kcal/mol

--------
ENTHALPY
--------

The enthalpy is H = U + kB*T
                kB is Boltzmann's constant
Total free energy                 ...   -325.80869619 Eh
Thermal Enthalpy correction       ...      0.00094421 Eh       0.59 kcal/mol
-----------------------------------------------------------------------
Total Enthalpy                    ...   -325.80775198 Eh

-------
ENTROPY
-------

The entropy contributions are T*S = T*(S(el)+S(vib)+S(rot)+S(trans)
     S(el)   - electronic entropy
     S(vib)  - vibrational entropy
     S(rot)  - rotational entropy
     S(trans)- translational entropy
The entropies will be listed as mutliplied by the temperature to get
units of energy

Electronic entropy                ...      0.00000000 Eh      0.00 kcal/mol
Vibrational entropy               ...      0.00773984 Eh      4.86 kcal/mol
Rotational entropy                ...      0.01187863 Eh      7.45 kcal/mol
Translational entropy             ...      0.01887324 Eh     11.84 kcal/mol
-----------------------------------------------------------------------
Final entropy term                ...      0.03849171 Eh     24.15 kcal/mol

CAUTION: The rotational entropy is not quite correctly treated here
         because it includes a symmetry number that is not yet correctly
         implemented in ORCA!
For a nonlinear molecule the correct rotational entropy is:
    S(rot) = R*(ln(qrot/sn)+1.5)
    R    = 8.31441 J/mol/K = 1.987191683e-3 kcal/mol/K
    qrot = 194754.4079808
    sn is the rotational symmetry number. We have assumed 3 here
       if it is different for your molecule then you should correct
       the printed rotational entropy by manually evaluating the equation
       as given above

For convenience we print out the resulting values for sn=1 - 12:
 sn= 1  qrot/sn=  194754.4080 T*S(rot)=     8.10 kcal/mol T*S(tot)=    24.80 kcal/mol
 sn= 2  qrot/sn=   97377.2040 T*S(rot)=     7.69 kcal/mol T*S(tot)=    24.39 kcal/mol
 sn= 3  qrot/sn=   64918.1360 T*S(rot)=     7.45 kcal/mol T*S(tot)=    24.15 kcal/mol
 sn= 4  qrot/sn=   48688.6020 T*S(rot)=     7.28 kcal/mol T*S(tot)=    23.98 kcal/mol
 sn= 5  qrot/sn=   38950.8816 T*S(rot)=     7.15 kcal/mol T*S(tot)=    23.85 kcal/mol
 sn= 6  qrot/sn=   32459.0680 T*S(rot)=     7.04 kcal/mol T*S(tot)=    23.74 kcal/mol
 sn= 7  qrot/sn=   27822.0583 T*S(rot)=     6.95 kcal/mol T*S(tot)=    23.65 kcal/mol
 sn= 8  qrot/sn=   24344.3010 T*S(rot)=     6.87 kcal/mol T*S(tot)=    23.57 kcal/mol
 sn= 9  qrot/sn=   21639.3787 T*S(rot)=     6.80 kcal/mol T*S(tot)=    23.50 kcal/mol
 sn=10  qrot/sn=   19475.4408 T*S(rot)=     6.74 kcal/mol T*S(tot)=    23.44 kcal/mol
 sn=11  qrot/sn=   17704.9462 T*S(rot)=     6.68 kcal/mol T*S(tot)=    23.38 kcal/mol
 sn=12  qrot/sn=   16229.5340 T*S(rot)=     6.63 kcal/mol T*S(tot)=    23.33 kcal/mol

-------------------
GIBBS FREE ENTHALPY
-------------------

The Gibbs free enthalpy is G = H - T*S

Total enthalpy                    ...   -325.80775198 Eh
Total entropy correction          ...     -0.03849171 Eh    -24.15 kcal/mol
-----------------------------------------------------------------------
Final Gibbs free enthalpy         ...   -325.84624370 Eh

For completeness - the Gibbs free enthalpy minus the electronic energy
G-E(el)                           ...      0.12103031 Eh     75.95 kcal/mol

                             ****ORCA TERMINATED NORMALLY****
TOTAL RUN TIME: 0 days 0 hours 35 minutes 23 seconds 39 msec
