                         Program Version 3.0.3 - RELEASE   -
|  1> ! NORI PBE0 def2-TZVP UseSym TightOPT Freq TightSCF Grid3 FinalGrid5 XYZFile
|  2> % pal
|  3>     nprocs 8
|  4> end
|  5> %method
|  6>     SymThresh 5.0e-2
|  7> end
|  8> % geom
|  9>     MaxIter 10
| 10> end
| 11> % maxcore 2000
| 12> % output
| 13>     printlevel mini
| 14>     print[ P_Basis ] 0
| 15>     print[ P_SCFInfo ] 1
| 16>     print[ P_SCFIterInfo ] 1
| 17>     print[ P_OrbEn ] 0
| 18>     print[ P_Cartesian ] 0
| 19> end
| 20> % elprop
| 21>     Dipole false
| 22> end
| 23> *xyz 1 1
| 24>  O        1.1061324104    -0.2658151098     0.3313320223
| 25>  C        2.4514869980    -0.3960394115     0.0861889529
| 26>  C        2.9739268477    -0.5860458611    -1.3128503478
| 27>  C        3.0538752954     0.7484844520    -0.6454735509
| 28>  N        4.3415615849     1.2841799715    -0.2241867197
| 29>  C        4.9544276714     2.4434855569    -0.9119323075
| 30>  C        4.4381215914     2.5934211159     0.4588710943
| 31>  H        0.6921387974    -1.1352126103     0.3528252450
| 32>  H        3.0472192435    -0.8450009908     0.8820953679
| 33>  H        3.8782719525    -1.1724132666    -1.4318959163
| 34>  H        2.2635960659    -0.6679356477    -2.1257848635
| 35>  H        2.3805588764     1.5314125032    -0.9725010551
| 36>  H        4.9989139441     0.5807199233     0.0977093826
| 37>  H        4.3678144350     2.8112771347    -1.7436060996
| 38>  H        6.0213117749     2.3632052048    -1.0766468353
| 39>  H        3.4784162269     3.0680484401     0.6162245669
| 40>  H        5.1294262842     2.6226085955     1.2912210639
| 41> *
| 42>
| 43>                          ****END OF INPUT****
 Total Charge           Charge          ....    1
 Multiplicity           Mult            ....    1
 Number of Electrons    NEL             ....   54
FINAL SINGLE POINT ENERGY      -325.949847675201

CARTESIAN COORDINATES (ANGSTROEM)
---------------------------------
  O     -0.000437    0.000274    2.514817
  C      0.112600   -0.701421    1.339460
  C     -1.104904   -1.210973    0.615751
  C     -0.398783    0.019029    0.144742
  N      0.362323   -0.000067   -1.097301
  C     -0.103826    0.733783   -2.295700
  C      1.087749    1.200935   -1.568077
  H     -0.116154   -0.610747    3.250223
  H      1.022696   -1.289261    1.212479
  H     -1.000170   -2.130034    0.049763
  H     -2.078177   -1.056650    1.064118
  H     -0.867138    0.981066    0.314079
  H      0.822850   -0.884327   -1.288769
  H     -1.048126    1.241985   -2.149886
  H      0.014229    0.200942   -3.230442
  H      1.003102    2.045305   -0.896278
  H      2.072509    1.008104   -1.973695

FINAL SINGLE POINT ENERGY      -325.949848471684
                    ***********************HURRAY********************
 Multiplicity           Mult            ....    1
 Number of Electrons    NEL             ....   54
 Basis Dimension        Dim             ....  277
FINAL SINGLE POINT ENERGY      -325.949849015763

VIBRATIONAL FREQUENCIES
-----------------------

   0:         0.00 cm**-1
   1:         0.00 cm**-1
   2:         0.00 cm**-1
   3:         0.00 cm**-1
   4:         0.00 cm**-1
   5:         0.00 cm**-1
   6:        52.10 cm**-1
   7:       157.96 cm**-1
   8:       202.98 cm**-1
   9:       314.47 cm**-1
  10:       361.91 cm**-1
  11:       384.05 cm**-1
  12:       416.46 cm**-1
  13:       474.08 cm**-1
  14:       760.85 cm**-1
  15:       813.32 cm**-1
  16:       832.75 cm**-1
  17:       856.66 cm**-1
  18:       915.91 cm**-1
  19:       924.42 cm**-1
  20:       964.28 cm**-1
  21:      1028.33 cm**-1
  22:      1050.73 cm**-1
  23:      1070.90 cm**-1
  24:      1091.27 cm**-1
  25:      1107.59 cm**-1
  26:      1147.68 cm**-1
  27:      1153.49 cm**-1
  28:      1176.14 cm**-1
  29:      1212.47 cm**-1
  30:      1218.51 cm**-1
  31:      1235.39 cm**-1
  32:      1251.05 cm**-1
  33:      1273.82 cm**-1
  34:      1290.72 cm**-1
  35:      1350.64 cm**-1
  36:      1426.75 cm**-1
  37:      1462.00 cm**-1
  38:      1478.22 cm**-1
  39:      1513.21 cm**-1
  40:      1527.26 cm**-1
  41:      3106.97 cm**-1
  42:      3155.09 cm**-1
  43:      3173.07 cm**-1
  44:      3174.56 cm**-1
  45:      3205.64 cm**-1
  46:      3251.00 cm**-1
  47:      3271.26 cm**-1
  48:      3281.68 cm**-1
  49:      3543.12 cm**-1
  50:      3837.66 cm**-1

IR SPECTRUM
-----------

 Mode    freq (cm**-1)   T**2         TX         TY         TZ
-------------------------------------------------------------------
   6:        52.10    0.213010  (  0.109928  -0.420291   0.155825)
   7:       157.96    1.983797  ( -0.421179  -0.223572  -1.325300)
   8:       202.98    0.424373  ( -0.089545   0.104281   0.636773)
   9:       314.47  119.075365  ( 10.510895  -0.314610   2.915041)
  10:       361.91    4.119875  (  1.382326   0.465848  -1.411395)
  11:       384.05   24.069026  ( -4.697596   0.932969   1.063571)
  12:       416.46   10.340545  (  1.203942   0.854912   2.856605)
  13:       474.08    1.283166  ( -1.058293  -0.272995   0.297751)
  14:       760.85    1.013233  ( -0.674576   0.000392  -0.747115)
  15:       813.32    2.293240  ( -0.329098  -0.540776  -1.375680)
  16:       832.75   13.310913  (  0.633648  -2.714314   2.354125)
  17:       856.66    1.694966  (  0.387847   0.226148   1.222046)
  18:       915.91   20.423984  ( -4.476881  -0.173713   0.592742)
  19:       924.42   36.382369  ( -1.081845  -2.865601   5.196182)
  20:       964.28   22.058174  ( -0.653361  -4.613093   0.592169)
  21:      1028.33    4.307907  (  1.709611   0.948441   0.696848)
  22:      1050.73   15.144623  ( -1.833519  -0.803870   3.337158)
  23:      1070.90   25.357344  ( -0.813770   2.552596  -4.263728)
  24:      1091.27    0.434175  ( -0.532691   0.017641   0.387433)
  25:      1107.59   18.800857  ( -0.542358  -2.953368  -3.127990)
  26:      1147.68    8.622666  ( -2.224771  -1.059065  -1.597323)
  27:      1153.49    0.907294  (  0.594915  -0.426421  -0.609537)
  28:      1176.14    1.308007  (  0.862392   0.304880   0.686539)
  29:      1212.47    9.654699  ( -1.935841  -1.269639  -2.072496)
  30:      1218.51    6.264374  ( -0.684207   1.198912   2.087785)
  31:      1235.39   81.070504  (  0.783312   2.728481   8.544724)
  32:      1251.05   10.363882  ( -1.183835  -0.964184  -2.834213)
  33:      1273.82   15.311277  ( -0.102446   1.852429  -3.445183)
  34:      1290.72   61.152542  (  0.571908   5.692571   5.331050)
  35:      1350.64   12.242127  (  1.147956  -3.194510  -0.848191)
  36:      1426.75   17.214271  ( -1.712026  -1.918839   3.255963)
  37:      1462.00   25.470539  (  0.199808   0.337279  -5.031586)
  38:      1478.22   16.277995  (  3.309487   1.361263   1.863399)
  39:      1513.21    7.705787  (  0.334435   1.513913   2.302609)
  40:      1527.26   17.653223  ( -3.084547  -2.846975  -0.183102)
  41:      3106.97   17.341773  (  2.452066  -1.826082  -2.827467)
  42:      3155.09    2.786874  (  1.422664   0.087387  -0.869060)
  43:      3173.07    4.408835  ( -1.673489  -0.740884  -1.029253)
  44:      3174.56    2.216234  ( -0.245660  -1.076811   0.998180)
  45:      3205.64    1.983492  ( -0.879300   1.061908   0.287532)
  46:      3251.00    1.492687  (  1.144980  -0.252194  -0.343665)
  47:      3271.26    0.123049  ( -0.202402  -0.163072  -0.235564)
  48:      3281.68   12.287744  ( -1.999630   2.080548   1.990112)
  49:      3543.12   75.079112  ( -3.578546   7.840578   0.893564)
  50:      3837.66  104.744607  (  0.663035   3.645694  -9.540121)

--------------------------
THERMOCHEMISTRY AT 298.15K
--------------------------

Temperature         ... 298.15 K
Pressure            ... 1.00 atm
Total Mass          ... 100.14 AMU

Throughout the following assumptions are being made:
  (1) The electronic state is orbitally nondegenerate
  (2) There are no thermally accessible electronically excited states
  (3) Hindered rotations indicated by low frequency modes) are not
      treated as such but are treated as vibrations and this may
      case some error
  (4) All equations used are the standard statistical mechanics
      equations for an ideal gas
  (5) All vibrations are strinctly harmonic

------------
INNER ENERGY
------------

The inner energy is: U= E(el) + E(ZPE) + E(vib) + E(rot) + E(trans)
    E(el)   - is the total energy from the electronic structure calculation
              = E(kin-el) + E(nuc-el) + E(el-el) + E(nuc-nuc)
    E(ZPE)  - the the zero temperature vibrational energy from the frequency calculation
    E(vib)  - the the finite temperature correction to E(ZPE) due to population
              of excietd vibrational states
    E(rot)  - is the rotational thermal energy
    E(trans)- is the translational thermal energy

Summary of contributions to the inner energy U:
Electronic energy                ...   -325.94984902 Eh
Zero point energy                ...      0.15149454 Eh      95.06 kcal/mol
Thermal vibrational correction   ...      0.00439061 Eh       2.76 kcal/mol
Thermal rotational correction    ...      0.00141627 Eh       0.89 kcal/mol
Thermal translational correction ...      0.00141627 Eh       0.89 kcal/mol
-----------------------------------------------------------------------
Total thermal energy                   -325.79113132 Eh

Summary of corrections to the electronic energy:
(perhaps to be used in another calculation)
Total thermal correction                  0.00722316 Eh       4.53 kcal/mol
Non-thermal (ZPE) correction              0.15149454 Eh      95.06 kcal/mol
-----------------------------------------------------------------------
Total correction                          0.15871770 Eh      99.60 kcal/mol

--------
ENTHALPY
--------

The enthalpy is H = U + kB*T
                kB is Boltzmann's constant
Total free energy                 ...   -325.79113132 Eh
Thermal Enthalpy correction       ...      0.00094421 Eh       0.59 kcal/mol
-----------------------------------------------------------------------
Total Enthalpy                    ...   -325.79018711 Eh

-------
ENTROPY
-------

The entropy contributions are T*S = T*(S(el)+S(vib)+S(rot)+S(trans)
     S(el)   - electronic entropy
     S(vib)  - vibrational entropy
     S(rot)  - rotational entropy
     S(trans)- translational entropy
The entropies will be listed as mutliplied by the temperature to get
units of energy

Electronic entropy                ...      0.00000000 Eh      0.00 kcal/mol
Vibrational entropy               ...      0.00782480 Eh      4.91 kcal/mol
Rotational entropy                ...      0.01205065 Eh      7.56 kcal/mol
Translational entropy             ...      0.01887324 Eh     11.84 kcal/mol
-----------------------------------------------------------------------
Final entropy term                ...      0.03874869 Eh     24.32 kcal/mol

CAUTION: The rotational entropy is not quite correctly treated here
         because it includes a symmetry number that is not yet correctly
         implemented in ORCA!
For a nonlinear molecule the correct rotational entropy is:
    S(rot) = R*(ln(qrot/sn)+1.5)
    R    = 8.31441 J/mol/K = 1.987191683e-3 kcal/mol/K
    qrot = 233675.7371352
    sn is the rotational symmetry number. We have assumed 3 here
       if it is different for your molecule then you should correct
       the printed rotational entropy by manually evaluating the equation
       as given above

For convenience we print out the resulting values for sn=1 - 12:
 sn= 1  qrot/sn=  233675.7371 T*S(rot)=     8.21 kcal/mol T*S(tot)=    24.97 kcal/mol
 sn= 2  qrot/sn=  116837.8686 T*S(rot)=     7.80 kcal/mol T*S(tot)=    24.56 kcal/mol
 sn= 3  qrot/sn=   77891.9124 T*S(rot)=     7.56 kcal/mol T*S(tot)=    24.32 kcal/mol
 sn= 4  qrot/sn=   58418.9343 T*S(rot)=     7.39 kcal/mol T*S(tot)=    24.14 kcal/mol
 sn= 5  qrot/sn=   46735.1474 T*S(rot)=     7.26 kcal/mol T*S(tot)=    24.01 kcal/mol
 sn= 6  qrot/sn=   38945.9562 T*S(rot)=     7.15 kcal/mol T*S(tot)=    23.90 kcal/mol
 sn= 7  qrot/sn=   33382.2482 T*S(rot)=     7.06 kcal/mol T*S(tot)=    23.81 kcal/mol
 sn= 8  qrot/sn=   29209.4671 T*S(rot)=     6.98 kcal/mol T*S(tot)=    23.73 kcal/mol
 sn= 9  qrot/sn=   25963.9708 T*S(rot)=     6.91 kcal/mol T*S(tot)=    23.66 kcal/mol
 sn=10  qrot/sn=   23367.5737 T*S(rot)=     6.85 kcal/mol T*S(tot)=    23.60 kcal/mol
 sn=11  qrot/sn=   21243.2488 T*S(rot)=     6.79 kcal/mol T*S(tot)=    23.55 kcal/mol
 sn=12  qrot/sn=   19472.9781 T*S(rot)=     6.74 kcal/mol T*S(tot)=    23.49 kcal/mol

-------------------
GIBBS FREE ENTHALPY
-------------------

The Gibbs free enthalpy is G = H - T*S

Total enthalpy                    ...   -325.79018711 Eh
Total entropy correction          ...     -0.03874869 Eh    -24.32 kcal/mol
-----------------------------------------------------------------------
Final Gibbs free enthalpy         ...   -325.82893580 Eh

For completeness - the Gibbs free enthalpy minus the electronic energy
G-E(el)                           ...      0.12091322 Eh     75.87 kcal/mol

                             ****ORCA TERMINATED NORMALLY****
TOTAL RUN TIME: 0 days 0 hours 31 minutes 30 seconds 664 msec
