                         Program Version 3.0.3 - RELEASE   -
|  1> ! NORI PBE0 def2-TZVP UseSym TightOPT Freq TightSCF Grid3 FinalGrid5 XYZFile
|  2> % pal
|  3>     nprocs 8
|  4> end
|  5> %method
|  6>     SymThresh 5.0e-2
|  7> end
|  8> % geom
|  9>     MaxIter 10
| 10> end
| 11> % maxcore 2000
| 12> % output
| 13>     printlevel mini
| 14>     print[ P_Basis ] 0
| 15>     print[ P_SCFInfo ] 1
| 16>     print[ P_SCFIterInfo ] 1
| 17>     print[ P_OrbEn ] 0
| 18>     print[ P_Cartesian ] 0
| 19> end
| 20> % elprop
| 21>     Dipole false
| 22> end
| 23> *xyz 1 1
| 24>  O        1.1085365463     0.0300441127     0.1370076348
| 25>  C        2.4960912350     0.0160501921    -0.0583126437
| 26>  C        3.1015292879    -1.1346438082     0.7851819127
| 27>  C        3.8693912011    -0.3069522279     1.8019781931
| 28>  C        4.6007251953     0.7259937625     0.9269411561
| 29>  C        3.1672665633     1.2007811524     0.6541637727
| 30>  N        2.8462310096     0.8002685551     2.0862861644
| 31>  H        0.6636626063     0.4885610212    -0.5824084859
| 32>  H        2.7738229386    -0.0203369606    -1.1135822651
| 33>  H        3.7737101838    -1.7826823413     0.2248109103
| 34>  H        2.3110448886    -1.7458025008     1.2218948983
| 35>  H        4.3070914837    -0.7798104063     2.6768190331
| 36>  H        5.1952043719     1.4457338058     1.4911278189
| 37>  H        5.1685525081     0.3409879230     0.0827960785
| 38>  H        2.8975549206     2.2145683371     0.3686890441
| 39>  H        1.8733693848     0.5287194216     2.2542087919
| 40>  H        3.1648256752     1.4761199616     2.7786079857
| 41> *
| 42>
| 43>                          ****END OF INPUT****
 Total Charge           Charge          ....    1
 Multiplicity           Mult            ....    1
 Number of Electrons    NEL             ....   54
FINAL SINGLE POINT ENERGY      -326.000754886612
FINAL SINGLE POINT ENERGY      -326.000756026320

CARTESIAN COORDINATES (ANGSTROEM)
---------------------------------
  O      0.000769   -0.001004    2.015057
  C     -0.685602    0.213715    0.812345
  C     -0.740681   -1.123399    0.030756
  C      0.167592   -0.758024   -1.131326
  C     -0.356691    0.623863   -1.560830
  C      0.169652    1.022671   -0.175710
  N      1.275897    0.000932   -0.389672
  H     -0.210993    0.681181    2.659628
  H     -1.663358    0.675879    0.960627
  H     -1.736998   -1.384387   -0.322406
  H     -0.362570   -1.941130    0.644812
  H      0.504030   -1.522579   -1.826298
  H      0.202395    1.074733   -2.381621
  H     -1.426704    0.712379   -1.734117
  H      0.490081    2.025440    0.096677
  H      1.657067   -0.412927    0.465938
  H      2.018980    0.330024   -1.003368

FINAL SINGLE POINT ENERGY      -326.000756560318
                    ***********************HURRAY********************
 Multiplicity           Mult            ....    1
 Number of Electrons    NEL             ....   54
 Basis Dimension        Dim             ....  277
FINAL SINGLE POINT ENERGY      -326.000756723280

VIBRATIONAL FREQUENCIES
-----------------------

   0:         0.00 cm**-1
   1:         0.00 cm**-1
   2:         0.00 cm**-1
   3:         0.00 cm**-1
   4:         0.00 cm**-1
   5:         0.00 cm**-1
   6:       180.09 cm**-1
   7:       296.19 cm**-1
   8:       355.31 cm**-1
   9:       453.02 cm**-1
  10:       466.62 cm**-1
  11:       542.79 cm**-1
  12:       667.39 cm**-1
  13:       812.53 cm**-1
  14:       830.48 cm**-1
  15:       851.43 cm**-1
  16:       875.31 cm**-1
  17:       899.88 cm**-1
  18:       953.34 cm**-1
  19:       956.77 cm**-1
  20:       984.88 cm**-1
  21:      1022.25 cm**-1
  22:      1032.61 cm**-1
  23:      1064.83 cm**-1
  24:      1092.92 cm**-1
  25:      1122.41 cm**-1
  26:      1130.82 cm**-1
  27:      1166.20 cm**-1
  28:      1190.81 cm**-1
  29:      1243.89 cm**-1
  30:      1250.32 cm**-1
  31:      1276.14 cm**-1
  32:      1280.02 cm**-1
  33:      1295.03 cm**-1
  34:      1318.20 cm**-1
  35:      1333.48 cm**-1
  36:      1351.02 cm**-1
  37:      1425.84 cm**-1
  38:      1481.94 cm**-1
  39:      1503.04 cm**-1
  40:      1634.77 cm**-1
  41:      3108.91 cm**-1
  42:      3109.34 cm**-1
  43:      3112.33 cm**-1
  44:      3169.93 cm**-1
  45:      3175.72 cm**-1
  46:      3183.75 cm**-1
  47:      3184.66 cm**-1
  48:      3422.54 cm**-1
  49:      3537.21 cm**-1
  50:      3854.50 cm**-1

IR SPECTRUM
-----------

 Mode    freq (cm**-1)   T**2         TX         TY         TZ
-------------------------------------------------------------------
   6:       180.09   12.167535  (  1.231547  -0.537461  -3.219000)
   7:       296.19  118.298305  ( -8.372380  -5.517889   4.213605)
   8:       355.31    1.852751  ( -0.861836  -0.335887   0.998584)
   9:       453.02    0.681949  (  0.753126   0.053514   0.334495)
  10:       466.62   22.097852  (  1.125410   1.321581  -4.368607)
  11:       542.79    0.241627  ( -0.490802  -0.024958  -0.010854)
  12:       667.39    3.271060  (  1.215373   0.596510   1.199210)
  13:       812.53    2.555002  ( -1.430471  -0.543103  -0.462378)
  14:       830.48    5.927003  (  1.981429   0.608454  -1.276999)
  15:       851.43    2.135617  ( -1.076368   0.984443  -0.088987)
  16:       875.31    1.079899  ( -0.160611   0.478437   0.908406)
  17:       899.88    4.794994  (  0.381824   1.955671   0.908050)
  18:       953.34   16.493557  (  0.979102  -0.970876   3.819989)
  19:       956.77    2.747902  ( -0.843524  -0.945580   1.068760)
  20:       984.88    0.369760  ( -0.471774   0.190967   0.332747)
  21:      1022.25    4.510319  ( -1.415953  -0.795255  -1.368563)
  22:      1032.61    5.278980  ( -1.753818  -0.415760  -1.424867)
  23:      1064.83   43.712130  ( -1.058540   2.444638  -6.051063)
  24:      1092.92    2.117008  (  0.182871  -0.368815   1.395543)
  25:      1122.41    8.336199  ( -1.354009  -0.124435  -2.547032)
  26:      1130.82   19.798147  ( -1.576044   2.816387  -3.063037)
  27:      1166.20   40.915835  (  0.927186   2.518598   5.806275)
  28:      1190.81   10.571219  ( -0.531014  -1.972560  -2.529476)
  29:      1243.89   44.493318  ( -2.836869   1.990692  -5.699354)
  30:      1250.32   17.585115  (  1.478487  -3.587773   1.589679)
  31:      1276.14   15.098607  ( -3.029825   2.055348  -1.301656)
  32:      1280.02   55.369896  ( -0.060735  -6.324572  -3.919949)
  33:      1295.03    0.612290  ( -0.110879   0.352540   0.689719)
  34:      1318.20   12.491142  (  1.241532  -0.108819   3.307249)
  35:      1333.48   12.737089  (  0.081215   2.143481   2.852364)
  36:      1351.02   21.003328  (  0.132353   2.631564   3.749757)
  37:      1425.84   12.927941  ( -2.154988   1.776260   2.264701)
  38:      1481.94   12.667542  ( -1.016069  -3.111386   1.398007)
  39:      1503.04   14.746128  ( -3.087287   0.269258  -2.267661)
  40:      1634.77   74.391849  (  8.608855  -0.526735   0.044817)
  41:      3108.91    2.124434  ( -1.280580   0.005942   0.696070)
  42:      3109.34    3.734598  ( -1.149846   1.175816  -1.014845)
  43:      3112.33    1.082746  (  0.872840  -0.410242   0.390637)
  44:      3169.93    0.117046  ( -0.162483   0.044293   0.297797)
  45:      3175.72    1.833580  ( -0.057568   1.098532   0.789616)
  46:      3183.75    0.544571  ( -0.132089  -0.638196  -0.346164)
  47:      3184.66    0.616722  (  0.556992  -0.149319  -0.533091)
  48:      3422.54   61.695101  ( -5.900128   1.607950  -4.929309)
  49:      3537.21   84.445848  (  5.245811   3.085683  -6.885192)
  50:      3854.50  116.132055  (  1.328402  -5.201100  -9.344301)

--------------------------
THERMOCHEMISTRY AT 298.15K
--------------------------

Temperature         ... 298.15 K
Pressure            ... 1.00 atm
Total Mass          ... 100.14 AMU

Throughout the following assumptions are being made:
  (1) The electronic state is orbitally nondegenerate
  (2) There are no thermally accessible electronically excited states
  (3) Hindered rotations indicated by low frequency modes) are not
      treated as such but are treated as vibrations and this may
      case some error
  (4) All equations used are the standard statistical mechanics
      equations for an ideal gas
  (5) All vibrations are strinctly harmonic

------------
INNER ENERGY
------------

The inner energy is: U= E(el) + E(ZPE) + E(vib) + E(rot) + E(trans)
    E(el)   - is the total energy from the electronic structure calculation
              = E(kin-el) + E(nuc-el) + E(el-el) + E(nuc-nuc)
    E(ZPE)  - the the zero temperature vibrational energy from the frequency calculation
    E(vib)  - the the finite temperature correction to E(ZPE) due to population
              of excietd vibrational states
    E(rot)  - is the rotational thermal energy
    E(trans)- is the translational thermal energy

Summary of contributions to the inner energy U:
Electronic energy                ...   -326.00075672 Eh
Zero point energy                ...      0.15537431 Eh      97.50 kcal/mol
Thermal vibrational correction   ...      0.00296942 Eh       1.86 kcal/mol
Thermal rotational correction    ...      0.00141627 Eh       0.89 kcal/mol
Thermal translational correction ...      0.00141627 Eh       0.89 kcal/mol
-----------------------------------------------------------------------
Total thermal energy                   -325.83958045 Eh

Summary of corrections to the electronic energy:
(perhaps to be used in another calculation)
Total thermal correction                  0.00580197 Eh       3.64 kcal/mol
Non-thermal (ZPE) correction              0.15537431 Eh      97.50 kcal/mol
-----------------------------------------------------------------------
Total correction                          0.16117627 Eh     101.14 kcal/mol

--------
ENTHALPY
--------

The enthalpy is H = U + kB*T
                kB is Boltzmann's constant
Total free energy                 ...   -325.83958045 Eh
Thermal Enthalpy correction       ...      0.00094421 Eh       0.59 kcal/mol
-----------------------------------------------------------------------
Total Enthalpy                    ...   -325.83863624 Eh

-------
ENTROPY
-------

The entropy contributions are T*S = T*(S(el)+S(vib)+S(rot)+S(trans)
     S(el)   - electronic entropy
     S(vib)  - vibrational entropy
     S(rot)  - rotational entropy
     S(trans)- translational entropy
The entropies will be listed as mutliplied by the temperature to get
units of energy

Electronic entropy                ...      0.00000000 Eh      0.00 kcal/mol
Vibrational entropy               ...      0.00441724 Eh      2.77 kcal/mol
Rotational entropy                ...      0.01166027 Eh      7.32 kcal/mol
Translational entropy             ...      0.01887324 Eh     11.84 kcal/mol
-----------------------------------------------------------------------
Final entropy term                ...      0.03495074 Eh     21.93 kcal/mol

CAUTION: The rotational entropy is not quite correctly treated here
         because it includes a symmetry number that is not yet correctly
         implemented in ORCA!
For a nonlinear molecule the correct rotational entropy is:
    S(rot) = R*(ln(qrot/sn)+1.5)
    R    = 8.31441 J/mol/K = 1.987191683e-3 kcal/mol/K
    qrot = 154542.0908043
    sn is the rotational symmetry number. We have assumed 3 here
       if it is different for your molecule then you should correct
       the printed rotational entropy by manually evaluating the equation
       as given above

For convenience we print out the resulting values for sn=1 - 12:
 sn= 1  qrot/sn=  154542.0908 T*S(rot)=     7.97 kcal/mol T*S(tot)=    22.58 kcal/mol
 sn= 2  qrot/sn=   77271.0454 T*S(rot)=     7.56 kcal/mol T*S(tot)=    22.17 kcal/mol
 sn= 3  qrot/sn=   51514.0303 T*S(rot)=     7.32 kcal/mol T*S(tot)=    21.93 kcal/mol
 sn= 4  qrot/sn=   38635.5227 T*S(rot)=     7.15 kcal/mol T*S(tot)=    21.76 kcal/mol
 sn= 5  qrot/sn=   30908.4182 T*S(rot)=     7.01 kcal/mol T*S(tot)=    21.63 kcal/mol
 sn= 6  qrot/sn=   25757.0151 T*S(rot)=     6.91 kcal/mol T*S(tot)=    21.52 kcal/mol
 sn= 7  qrot/sn=   22077.4415 T*S(rot)=     6.81 kcal/mol T*S(tot)=    21.43 kcal/mol
 sn= 8  qrot/sn=   19317.7614 T*S(rot)=     6.74 kcal/mol T*S(tot)=    21.35 kcal/mol
 sn= 9  qrot/sn=   17171.3434 T*S(rot)=     6.67 kcal/mol T*S(tot)=    21.28 kcal/mol
 sn=10  qrot/sn=   15454.2091 T*S(rot)=     6.60 kcal/mol T*S(tot)=    21.22 kcal/mol
 sn=11  qrot/sn=   14049.2810 T*S(rot)=     6.55 kcal/mol T*S(tot)=    21.16 kcal/mol
 sn=12  qrot/sn=   12878.5076 T*S(rot)=     6.50 kcal/mol T*S(tot)=    21.11 kcal/mol

-------------------
GIBBS FREE ENTHALPY
-------------------

The Gibbs free enthalpy is G = H - T*S

Total enthalpy                    ...   -325.83863624 Eh
Total entropy correction          ...     -0.03495074 Eh    -21.93 kcal/mol
-----------------------------------------------------------------------
Final Gibbs free enthalpy         ...   -325.87358698 Eh

For completeness - the Gibbs free enthalpy minus the electronic energy
G-E(el)                           ...      0.12716974 Eh     79.80 kcal/mol

                             ****ORCA TERMINATED NORMALLY****
TOTAL RUN TIME: 0 days 0 hours 43 minutes 17 seconds 775 msec
