                         Program Version 3.0.3 - RELEASE   -
|  1> ! NORI PBE0 def2-TZVP UseSym TightOPT Freq TightSCF Grid3 FinalGrid5 XYZFile
|  2> % pal
|  3>     nprocs 8
|  4> end
|  5> %method
|  6>     SymThresh 5.0e-2
|  7> end
|  8> % geom
|  9>     MaxIter 10
| 10> end
| 11> % maxcore 2000
| 12> % output
| 13>     printlevel mini
| 14>     print[ P_Basis ] 0
| 15>     print[ P_SCFInfo ] 1
| 16>     print[ P_SCFIterInfo ] 1
| 17>     print[ P_OrbEn ] 0
| 18>     print[ P_Cartesian ] 0
| 19> end
| 20> % elprop
| 21>     Dipole false
| 22> end
| 23> *xyz 1 1
| 24>  O        1.0941813906    -0.0879407855    -0.0160140563
| 25>  C        2.2777336542    -0.1141842528     0.0053739821
| 26>  C        3.2542114051    -1.2922801705     0.0672152948
| 27>  C        4.5439068006    -0.4904268177    -0.0289572485
| 28>  C        4.2527962720     0.5594523014    -1.1197759552
| 29>  C        3.2478415748     1.0803840699    -0.0689765461
| 30>  N        4.2620591242     0.6357031805     0.9799794065
| 31>  H        3.1477924968    -1.8764849568     0.9846202963
| 32>  H        3.1231226935    -1.9664817823    -0.7809096118
| 33>  H        5.5025819978    -0.9883577068     0.0854459211
| 34>  H        5.0784908027     1.2498164796    -1.2977270038
| 35>  H        3.8447303133     0.1992314025    -2.0614203495
| 36>  H        2.8628833252     2.0931963289    -0.0006057979
| 37>  H        3.9210068359     0.3875605499     1.9110912501
| 38>  H        5.0428213134     1.2878921597     1.0611404181
| 39> *
| 40>
| 41>                          ****END OF INPUT****
 Total Charge           Charge          ....    1
 Multiplicity           Mult            ....    1
 Number of Electrons    NEL             ....   52
FINAL SINGLE POINT ENERGY      -324.771941926559

CARTESIAN COORDINATES (ANGSTROEM)
---------------------------------
  O      0.000008    0.000119    2.182633
  C     -0.034113   -0.095634    1.003016
  C     -0.567996   -1.212982    0.101846
  C     -0.319691   -0.529846   -1.235161
  C     -0.777225    0.924053   -1.004305
  C      0.428972    0.939715   -0.039879
  N      1.109439    0.000044   -1.030091
  H     -0.030737   -2.154411    0.239608
  H     -1.628428   -1.399124    0.279453
  H     -0.486224   -1.072484   -2.161186
  H     -0.637669    1.572139   -1.870794
  H     -1.762995    1.073139   -0.569208
  H      0.979251    1.819118    0.280334
  H      1.825278   -0.639823   -0.679495
  H      1.461030    0.494924   -1.850277

FINAL SINGLE POINT ENERGY      -324.771942211427
                    ***********************HURRAY********************
 Multiplicity           Mult            ....    1
 Number of Electrons    NEL             ....   52
 Basis Dimension        Dim             ....  265
FINAL SINGLE POINT ENERGY      -324.771942266196

VIBRATIONAL FREQUENCIES
-----------------------

   0:         0.00 cm**-1
   1:         0.00 cm**-1
   2:         0.00 cm**-1
   3:         0.00 cm**-1
   4:         0.00 cm**-1
   5:         0.00 cm**-1
   6:       152.17 cm**-1
   7:       398.76 cm**-1
   8:       431.57 cm**-1
   9:       488.72 cm**-1
  10:       590.30 cm**-1
  11:       607.41 cm**-1
  12:       745.75 cm**-1
  13:       800.86 cm**-1
  14:       812.94 cm**-1
  15:       852.89 cm**-1
  16:       892.48 cm**-1
  17:       936.57 cm**-1
  18:       964.25 cm**-1
  19:       973.41 cm**-1
  20:      1020.39 cm**-1
  21:      1044.14 cm**-1
  22:      1085.72 cm**-1
  23:      1109.89 cm**-1
  24:      1137.87 cm**-1
  25:      1147.34 cm**-1
  26:      1172.80 cm**-1
  27:      1248.49 cm**-1
  28:      1265.95 cm**-1
  29:      1270.69 cm**-1
  30:      1298.39 cm**-1
  31:      1315.27 cm**-1
  32:      1345.80 cm**-1
  33:      1447.34 cm**-1
  34:      1499.93 cm**-1
  35:      1650.85 cm**-1
  36:      1933.82 cm**-1
  37:      3094.01 cm**-1
  38:      3106.60 cm**-1
  39:      3149.62 cm**-1
  40:      3184.51 cm**-1
  41:      3189.12 cm**-1
  42:      3200.69 cm**-1
  43:      3437.33 cm**-1
  44:      3520.46 cm**-1

IR SPECTRUM
-----------

 Mode    freq (cm**-1)   T**2         TX         TY         TZ
-------------------------------------------------------------------
   6:       152.17    6.240032  ( -1.841244   1.037934   1.331370)
   7:       398.76    1.224021  ( -0.247649  -0.710955   0.810700)
   8:       431.57    7.628845  ( -0.453563  -2.236961   1.555355)
   9:       488.72    3.271287  (  1.282069   0.643487   1.101595)
  10:       590.30    2.519452  ( -0.420338  -0.081297   1.528450)
  11:       607.41    0.218443  ( -0.124876  -0.160982  -0.420635)
  12:       745.75   11.538359  ( -1.178396  -2.639304   1.784325)
  13:       800.86    3.091879  (  0.381477   0.064795   1.715271)
  14:       812.94    7.194156  (  1.926709   1.490597  -1.122527)
  15:       852.89    9.407519  (  1.157835  -2.838300  -0.104837)
  16:       892.48    4.590194  ( -0.725596  -1.982578  -0.364811)
  17:       936.57    2.203769  ( -0.520511  -1.334931  -0.388327)
  18:       964.25    2.230859  (  1.365824   0.247420   0.551514)
  19:       973.41    6.768804  (  1.171680  -2.318906  -0.136544)
  20:      1020.39    3.068219  ( -0.612531  -1.610571  -0.314778)
  21:      1044.14   24.950812  (  1.088185   4.589220  -1.644909)
  22:      1085.72    2.199387  (  0.627614   1.266048   0.450123)
  23:      1109.89    5.863080  ( -0.954580  -1.914908  -1.133572)
  24:      1137.87    2.030937  ( -0.225417  -1.177253  -0.770844)
  25:      1147.34   14.919993  (  2.373144   3.047325  -0.044592)
  26:      1172.80   16.139402  ( -2.225276  -1.276290  -3.091704)
  27:      1248.49    8.442168  ( -1.109342  -2.427559  -1.148253)
  28:      1265.95   47.254886  ( -2.566576  -5.817922  -2.611391)
  29:      1270.69    1.748834  (  0.141658   0.179776   1.302478)
  30:      1298.39    1.479264  (  0.163832  -0.243002   1.180412)
  31:      1315.27   42.525818  ( -2.588545  -3.613372  -4.771666)
  32:      1345.80    4.235051  ( -0.320951   0.566965   1.952074)
  33:      1447.34   18.376641  (  1.579281   3.842266  -1.058068)
  34:      1499.93   14.209303  ( -3.224241   1.911719  -0.398630)
  35:      1650.85   66.911332  (  7.326937  -0.657246  -3.577060)
  36:      1933.82  229.263711  (  0.853402   0.833582  15.094388)
  37:      3094.01    4.986229  (  1.481210   1.635391   0.343138)
  38:      3106.60    0.707314  (  0.606191   0.194215  -0.549661)
  39:      3149.62    3.825952  ( -1.895532  -0.408712   0.256643)
  40:      3184.51    0.321411  ( -0.510707   0.176104   0.171980)
  41:      3189.12    0.017921  ( -0.062435  -0.030082   0.114533)
  42:      3200.69    1.472788  ( -0.555925  -1.077197   0.058149)
  43:      3437.33   63.828396  (  7.361191  -1.453108  -2.744037)
  44:      3520.46   78.019491  ( -0.020012  -5.466475   6.938065)

--------------------------
THERMOCHEMISTRY AT 298.15K
--------------------------

Temperature         ... 298.15 K
Pressure            ... 1.00 atm
Total Mass          ... 98.12 AMU

Throughout the following assumptions are being made:
  (1) The electronic state is orbitally nondegenerate
  (2) There are no thermally accessible electronically excited states
  (3) Hindered rotations indicated by low frequency modes) are not
      treated as such but are treated as vibrations and this may
      case some error
  (4) All equations used are the standard statistical mechanics
      equations for an ideal gas
  (5) All vibrations are strinctly harmonic

------------
INNER ENERGY
------------

The inner energy is: U= E(el) + E(ZPE) + E(vib) + E(rot) + E(trans)
    E(el)   - is the total energy from the electronic structure calculation
              = E(kin-el) + E(nuc-el) + E(el-el) + E(nuc-nuc)
    E(ZPE)  - the the zero temperature vibrational energy from the frequency calculation
    E(vib)  - the the finite temperature correction to E(ZPE) due to population
              of excietd vibrational states
    E(rot)  - is the rotational thermal energy
    E(trans)- is the translational thermal energy

Summary of contributions to the inner energy U:
Electronic energy                ...   -324.77194227 Eh
Zero point energy                ...      0.13105175 Eh      82.24 kcal/mol
Thermal vibrational correction   ...      0.00254371 Eh       1.60 kcal/mol
Thermal rotational correction    ...      0.00141627 Eh       0.89 kcal/mol
Thermal translational correction ...      0.00141627 Eh       0.89 kcal/mol
-----------------------------------------------------------------------
Total thermal energy                   -324.63551427 Eh

Summary of corrections to the electronic energy:
(perhaps to be used in another calculation)
Total thermal correction                  0.00537625 Eh       3.37 kcal/mol
Non-thermal (ZPE) correction              0.13105175 Eh      82.24 kcal/mol
-----------------------------------------------------------------------
Total correction                          0.13642800 Eh      85.61 kcal/mol

--------
ENTHALPY
--------

The enthalpy is H = U + kB*T
                kB is Boltzmann's constant
Total free energy                 ...   -324.63551427 Eh
Thermal Enthalpy correction       ...      0.00094421 Eh       0.59 kcal/mol
-----------------------------------------------------------------------
Total Enthalpy                    ...   -324.63457006 Eh

-------
ENTROPY
-------

The entropy contributions are T*S = T*(S(el)+S(vib)+S(rot)+S(trans)
     S(el)   - electronic entropy
     S(vib)  - vibrational entropy
     S(rot)  - rotational entropy
     S(trans)- translational entropy
The entropies will be listed as mutliplied by the temperature to get
units of energy

Electronic entropy                ...      0.00000000 Eh      0.00 kcal/mol
Vibrational entropy               ...      0.00380554 Eh      2.39 kcal/mol
Rotational entropy                ...      0.01164485 Eh      7.31 kcal/mol
Translational entropy             ...      0.01884443 Eh     11.83 kcal/mol
-----------------------------------------------------------------------
Final entropy term                ...      0.03429482 Eh     21.52 kcal/mol

CAUTION: The rotational entropy is not quite correctly treated here
         because it includes a symmetry number that is not yet correctly
         implemented in ORCA!
For a nonlinear molecule the correct rotational entropy is:
    S(rot) = R*(ln(qrot/sn)+1.5)
    R    = 8.31441 J/mol/K = 1.987191683e-3 kcal/mol/K
    qrot = 152038.8550945
    sn is the rotational symmetry number. We have assumed 3 here
       if it is different for your molecule then you should correct
       the printed rotational entropy by manually evaluating the equation
       as given above

For convenience we print out the resulting values for sn=1 - 12:
 sn= 1  qrot/sn=  152038.8551 T*S(rot)=     7.96 kcal/mol T*S(tot)=    22.17 kcal/mol
 sn= 2  qrot/sn=   76019.4275 T*S(rot)=     7.55 kcal/mol T*S(tot)=    21.76 kcal/mol
 sn= 3  qrot/sn=   50679.6184 T*S(rot)=     7.31 kcal/mol T*S(tot)=    21.52 kcal/mol
 sn= 4  qrot/sn=   38009.7138 T*S(rot)=     7.14 kcal/mol T*S(tot)=    21.35 kcal/mol
 sn= 5  qrot/sn=   30407.7710 T*S(rot)=     7.00 kcal/mol T*S(tot)=    21.22 kcal/mol
 sn= 6  qrot/sn=   25339.8092 T*S(rot)=     6.90 kcal/mol T*S(tot)=    21.11 kcal/mol
 sn= 7  qrot/sn=   21719.8364 T*S(rot)=     6.81 kcal/mol T*S(tot)=    21.02 kcal/mol
 sn= 8  qrot/sn=   19004.8569 T*S(rot)=     6.73 kcal/mol T*S(tot)=    20.94 kcal/mol
 sn= 9  qrot/sn=   16893.2061 T*S(rot)=     6.66 kcal/mol T*S(tot)=    20.87 kcal/mol
 sn=10  qrot/sn=   15203.8855 T*S(rot)=     6.59 kcal/mol T*S(tot)=    20.81 kcal/mol
 sn=11  qrot/sn=   13821.7141 T*S(rot)=     6.54 kcal/mol T*S(tot)=    20.75 kcal/mol
 sn=12  qrot/sn=   12669.9046 T*S(rot)=     6.49 kcal/mol T*S(tot)=    20.70 kcal/mol

-------------------
GIBBS FREE ENTHALPY
-------------------

The Gibbs free enthalpy is G = H - T*S

Total enthalpy                    ...   -324.63457006 Eh
Total entropy correction          ...     -0.03429482 Eh    -21.52 kcal/mol
-----------------------------------------------------------------------
Final Gibbs free enthalpy         ...   -324.66886488 Eh

For completeness - the Gibbs free enthalpy minus the electronic energy
G-E(el)                           ...      0.10307739 Eh     64.68 kcal/mol

                             ****ORCA TERMINATED NORMALLY****
TOTAL RUN TIME: 0 days 0 hours 32 minutes 1 seconds 68 msec
