                         Program Version 3.0.3 - RELEASE   -
|  1> ! NORI PBE0 def2-TZVP UseSym TightOPT Freq TightSCF Grid3 FinalGrid5 XYZFile
|  2> % pal
|  3>     nprocs 8
|  4> end
|  5> %method
|  6>     SymThresh 5.0e-2
|  7> end
|  8> % geom
|  9>     MaxIter 10
| 10> end
| 11> % maxcore 2000
| 12> % output
| 13>     printlevel mini
| 14>     print[ P_Basis ] 0
| 15>     print[ P_SCFInfo ] 1
| 16>     print[ P_SCFIterInfo ] 1
| 17>     print[ P_OrbEn ] 0
| 18>     print[ P_Cartesian ] 0
| 19> end
| 20> % elprop
| 21>     Dipole false
| 22> end
| 23> *xyz 1 1
| 24>  O        1.1662334270    -0.0364197532     0.6322445667
| 25>  C        2.5220579676     0.0643981172     0.2878991133
| 26>  C        2.9565604035    -1.3221218552    -0.1980690794
| 27>  C        2.4580437513    -1.3828410944    -1.6253959632
| 28>  C        3.2883321979    -0.8315159077    -2.7091902454
| 29>  N        2.2840613323     0.0398851031    -2.0637900850
| 30>  C        2.6885181470     0.9445484423    -0.9547173581
| 31>  H        0.9138688999     0.6748014452     1.2285336527
| 32>  H        3.1398520075     0.4226495429     1.1162059237
| 33>  H        4.0415600649    -1.4339058393    -0.1553441192
| 34>  H        2.5030053802    -2.0948169261     0.4192796169
| 35>  H        1.6376844483    -2.0396793917    -1.8867151802
| 36>  H        4.3124032474    -0.5437816617    -2.5025933815
| 37>  H        3.0653405921    -1.0859700297    -3.7381885819
| 38>  H        1.4602403285     0.2856096264    -2.6002675274
| 39>  H        2.0326465844     1.8130311593    -0.9529669863
| 40>  H        3.7168912203     1.2684490227    -1.1177543658
| 41> *
| 42>
| 43>                          ****END OF INPUT****
 Total Charge           Charge          ....    1
 Multiplicity           Mult            ....    1
 Number of Electrons    NEL             ....   54
FINAL SINGLE POINT ENERGY      -325.995805679584

CARTESIAN COORDINATES (ANGSTROEM)
---------------------------------
  O     -0.000062   -0.000375    2.027529
  C     -0.590645   -0.634201    0.924769
  C     -1.237678    0.467469    0.079133
  C     -0.083301    1.053853   -0.703737
  C      0.324301    0.430300   -1.973737
  N      0.982259    0.000008   -0.722056
  C      0.490139   -1.203414    0.000437
  H      0.136724   -0.625929    2.745103
  H     -1.310063   -1.403625    1.218621
  H     -1.997903    0.058474   -0.588581
  H     -1.704186    1.209652    0.723899
  H      0.272564    2.052043   -0.481046
  H     -0.304728   -0.330737   -2.420016
  H      0.968915    0.972211   -2.654907
  H      1.945117    0.280038   -0.576588
  H      1.320872   -1.652069    0.541991
  H      0.102582   -1.919512   -0.724992

FINAL SINGLE POINT ENERGY      -325.995806466580
                    ***********************HURRAY********************
 Multiplicity           Mult            ....    1
 Number of Electrons    NEL             ....   54
 Basis Dimension        Dim             ....  277
FINAL SINGLE POINT ENERGY      -325.995807317984

VIBRATIONAL FREQUENCIES
-----------------------

   0:         0.00 cm**-1
   1:         0.00 cm**-1
   2:         0.00 cm**-1
   3:         0.00 cm**-1
   4:         0.00 cm**-1
   5:         0.00 cm**-1
   6:       119.20 cm**-1
   7:       249.13 cm**-1
   8:       272.61 cm**-1
   9:       338.62 cm**-1
  10:       441.72 cm**-1
  11:       464.21 cm**-1
  12:       689.96 cm**-1
  13:       743.66 cm**-1
  14:       787.62 cm**-1
  15:       814.22 cm**-1
  16:       861.24 cm**-1
  17:       874.79 cm**-1
  18:       914.43 cm**-1
  19:       944.71 cm**-1
  20:       966.25 cm**-1
  21:       995.83 cm**-1
  22:      1016.59 cm**-1
  23:      1079.35 cm**-1
  24:      1111.33 cm**-1
  25:      1141.08 cm**-1
  26:      1168.00 cm**-1
  27:      1178.72 cm**-1
  28:      1210.41 cm**-1
  29:      1233.41 cm**-1
  30:      1255.53 cm**-1
  31:      1283.81 cm**-1
  32:      1313.02 cm**-1
  33:      1328.72 cm**-1
  34:      1352.96 cm**-1
  35:      1395.56 cm**-1
  36:      1416.43 cm**-1
  37:      1436.38 cm**-1
  38:      1475.85 cm**-1
  39:      1480.20 cm**-1
  40:      1505.94 cm**-1
  41:      3089.77 cm**-1
  42:      3104.19 cm**-1
  43:      3110.27 cm**-1
  44:      3161.87 cm**-1
  45:      3170.66 cm**-1
  46:      3176.05 cm**-1
  47:      3219.38 cm**-1
  48:      3263.32 cm**-1
  49:      3572.34 cm**-1
  50:      3859.23 cm**-1

IR SPECTRUM
-----------

 Mode    freq (cm**-1)   T**2         TX         TY         TZ
-------------------------------------------------------------------
   6:       119.20    6.078266  (  0.405934   0.177448  -2.425283)
   7:       249.13  115.615087  ( -9.655219   1.744646   4.398642)
   8:       272.61    5.992217  (  2.227442  -0.037036  -1.014567)
   9:       338.62    9.103684  (  1.617916  -0.564245  -2.483477)
  10:       441.72    5.257599  (  0.021544  -0.204074  -2.283745)
  11:       464.21    0.976626  ( -0.305843   0.439365   0.830689)
  12:       689.96    5.341659  ( -1.656721   1.364162  -0.857903)
  13:       743.66    2.610615  ( -0.114403  -0.495191  -1.533725)
  14:       787.62   12.320143  (  2.644564  -1.657950   1.605498)
  15:       814.22    1.249247  ( -0.732628   0.841317   0.068479)
  16:       861.24    1.215164  (  0.841948  -0.455971   0.546240)
  17:       874.79    3.622742  (  0.869596  -0.225311  -1.678029)
  18:       914.43   11.494837  ( -1.609648   0.618689   2.919091)
  19:       944.71    4.110798  (  0.976188  -0.076022   1.775409)
  20:       966.25   58.459274  ( -0.150555  -4.902772  -5.865103)
  21:       995.83    7.092886  ( -0.117336   1.055972   2.442139)
  22:      1016.59   11.735773  ( -0.121409  -2.087564   2.713505)
  23:      1079.35   29.737663  (  3.287827  -1.416744   4.113477)
  24:      1111.33    3.604663  (  0.630859   0.914625   1.539527)
  25:      1141.08    7.850872  (  1.225170  -1.311618  -2.151624)
  26:      1168.00    0.397767  ( -0.006747   0.245798   0.580780)
  27:      1178.72   16.057220  ( -1.584783  -0.448069  -3.653069)
  28:      1210.41   47.087762  ( -2.362281  -2.369976  -5.990877)
  29:      1233.41    7.720305  ( -0.649583   1.136577   2.450825)
  30:      1255.53   13.688212  ( -0.102179  -2.640198  -2.589812)
  31:      1283.81   23.266844  (  2.024599   2.383229   3.672610)
  32:      1313.02   17.284788  (  0.470382  -3.645275  -1.943065)
  33:      1328.72    5.252684  (  0.914686  -0.209213   2.090996)
  34:      1352.96    6.047530  ( -1.707456  -0.883066  -1.533727)
  35:      1395.56   11.786977  (  0.204351   3.332619  -0.799290)
  36:      1416.43   12.129585  (  2.262963  -1.763549   1.974456)
  37:      1436.38   26.836043  ( -0.257401  -3.126164   4.122728)
  38:      1475.85   14.383054  (  3.236413  -1.972285  -0.137029)
  39:      1480.20    3.279246  (  1.377035  -0.449808   1.086597)
  40:      1505.94   16.637719  (  0.314253   3.104288   2.627234)
  41:      3089.77    5.355799  (  1.576611   1.693719  -0.037576)
  42:      3104.19    0.981158  ( -0.774150  -0.308012  -0.535704)
  43:      3110.27    4.786903  ( -1.016455  -1.853319  -0.564739)
  44:      3161.87    1.242113  (  0.140847   0.128492  -1.098073)
  45:      3170.66    0.440951  ( -0.500136   0.345435   0.267374)
  46:      3176.05    0.141097  (  0.071530  -0.245193  -0.275429)
  47:      3219.38    2.661122  (  0.012548  -1.490295  -0.663313)
  48:      3263.32    3.929520  (  1.253296   1.511071  -0.274651)
  49:      3572.34  111.677455  ( 10.309656   1.943327   1.269620)
  50:      3859.23  102.383772  ( -1.444696   3.833273  -9.252170)

--------------------------
THERMOCHEMISTRY AT 298.15K
--------------------------

Temperature         ... 298.15 K
Pressure            ... 1.00 atm
Total Mass          ... 100.14 AMU

Throughout the following assumptions are being made:
  (1) The electronic state is orbitally nondegenerate
  (2) There are no thermally accessible electronically excited states
  (3) Hindered rotations indicated by low frequency modes) are not
      treated as such but are treated as vibrations and this may
      case some error
  (4) All equations used are the standard statistical mechanics
      equations for an ideal gas
  (5) All vibrations are strinctly harmonic

------------
INNER ENERGY
------------

The inner energy is: U= E(el) + E(ZPE) + E(vib) + E(rot) + E(trans)
    E(el)   - is the total energy from the electronic structure calculation
              = E(kin-el) + E(nuc-el) + E(el-el) + E(nuc-nuc)
    E(ZPE)  - the the zero temperature vibrational energy from the frequency calculation
    E(vib)  - the the finite temperature correction to E(ZPE) due to population
              of excietd vibrational states
    E(rot)  - is the rotational thermal energy
    E(trans)- is the translational thermal energy

Summary of contributions to the inner energy U:
Electronic energy                ...   -325.99580732 Eh
Zero point energy                ...      0.15397813 Eh      96.62 kcal/mol
Thermal vibrational correction   ...      0.00347246 Eh       2.18 kcal/mol
Thermal rotational correction    ...      0.00141627 Eh       0.89 kcal/mol
Thermal translational correction ...      0.00141627 Eh       0.89 kcal/mol
-----------------------------------------------------------------------
Total thermal energy                   -325.83552419 Eh

Summary of corrections to the electronic energy:
(perhaps to be used in another calculation)
Total thermal correction                  0.00630500 Eh       3.96 kcal/mol
Non-thermal (ZPE) correction              0.15397813 Eh      96.62 kcal/mol
-----------------------------------------------------------------------
Total correction                          0.16028313 Eh     100.58 kcal/mol

--------
ENTHALPY
--------

The enthalpy is H = U + kB*T
                kB is Boltzmann's constant
Total free energy                 ...   -325.83552419 Eh
Thermal Enthalpy correction       ...      0.00094421 Eh       0.59 kcal/mol
-----------------------------------------------------------------------
Total Enthalpy                    ...   -325.83457998 Eh

-------
ENTROPY
-------

The entropy contributions are T*S = T*(S(el)+S(vib)+S(rot)+S(trans)
     S(el)   - electronic entropy
     S(vib)  - vibrational entropy
     S(rot)  - rotational entropy
     S(trans)- translational entropy
The entropies will be listed as mutliplied by the temperature to get
units of energy

Electronic entropy                ...      0.00000000 Eh      0.00 kcal/mol
Vibrational entropy               ...      0.00553035 Eh      3.47 kcal/mol
Rotational entropy                ...      0.01174225 Eh      7.37 kcal/mol
Translational entropy             ...      0.01887324 Eh     11.84 kcal/mol
-----------------------------------------------------------------------
Final entropy term                ...      0.03614584 Eh     22.68 kcal/mol

CAUTION: The rotational entropy is not quite correctly treated here
         because it includes a symmetry number that is not yet correctly
         implemented in ORCA!
For a nonlinear molecule the correct rotational entropy is:
    S(rot) = R*(ln(qrot/sn)+1.5)
    R    = 8.31441 J/mol/K = 1.987191683e-3 kcal/mol/K
    qrot = 168560.3576215
    sn is the rotational symmetry number. We have assumed 3 here
       if it is different for your molecule then you should correct
       the printed rotational entropy by manually evaluating the equation
       as given above

For convenience we print out the resulting values for sn=1 - 12:
 sn= 1  qrot/sn=  168560.3576 T*S(rot)=     8.02 kcal/mol T*S(tot)=    23.33 kcal/mol
 sn= 2  qrot/sn=   84280.1788 T*S(rot)=     7.61 kcal/mol T*S(tot)=    22.92 kcal/mol
 sn= 3  qrot/sn=   56186.7859 T*S(rot)=     7.37 kcal/mol T*S(tot)=    22.68 kcal/mol
 sn= 4  qrot/sn=   42140.0894 T*S(rot)=     7.20 kcal/mol T*S(tot)=    22.51 kcal/mol
 sn= 5  qrot/sn=   33712.0715 T*S(rot)=     7.07 kcal/mol T*S(tot)=    22.38 kcal/mol
 sn= 6  qrot/sn=   28093.3929 T*S(rot)=     6.96 kcal/mol T*S(tot)=    22.27 kcal/mol
 sn= 7  qrot/sn=   24080.0511 T*S(rot)=     6.87 kcal/mol T*S(tot)=    22.18 kcal/mol
 sn= 8  qrot/sn=   21070.0447 T*S(rot)=     6.79 kcal/mol T*S(tot)=    22.10 kcal/mol
 sn= 9  qrot/sn=   18728.9286 T*S(rot)=     6.72 kcal/mol T*S(tot)=    22.03 kcal/mol
 sn=10  qrot/sn=   16856.0358 T*S(rot)=     6.66 kcal/mol T*S(tot)=    21.97 kcal/mol
 sn=11  qrot/sn=   15323.6689 T*S(rot)=     6.60 kcal/mol T*S(tot)=    21.91 kcal/mol
 sn=12  qrot/sn=   14046.6965 T*S(rot)=     6.55 kcal/mol T*S(tot)=    21.86 kcal/mol

-------------------
GIBBS FREE ENTHALPY
-------------------

The Gibbs free enthalpy is G = H - T*S

Total enthalpy                    ...   -325.83457998 Eh
Total entropy correction          ...     -0.03614584 Eh    -22.68 kcal/mol
-----------------------------------------------------------------------
Final Gibbs free enthalpy         ...   -325.87072582 Eh

For completeness - the Gibbs free enthalpy minus the electronic energy
G-E(el)                           ...      0.12508150 Eh     78.49 kcal/mol

                             ****ORCA TERMINATED NORMALLY****
TOTAL RUN TIME: 0 days 0 hours 37 minutes 4 seconds 577 msec
