                         Program Version 3.0.3 - RELEASE   -
|  1> ! NORI PBE0 def2-TZVP UseSym TightOPT Freq TightSCF Grid3 FinalGrid5 XYZFile
|  2> % pal
|  3>     nprocs 8
|  4> end
|  5> %method
|  6>     SymThresh 5.0e-2
|  7> end
|  8> % geom
|  9>     MaxIter 10
| 10> end
| 11> % maxcore 2000
| 12> % output
| 13>     printlevel mini
| 14>     print[ P_Basis ] 0
| 15>     print[ P_SCFInfo ] 1
| 16>     print[ P_SCFIterInfo ] 1
| 17>     print[ P_OrbEn ] 0
| 18>     print[ P_Cartesian ] 0
| 19> end
| 20> % elprop
| 21>     Dipole false
| 22> end
| 23> *xyz 1 1
| 24>  O        1.8716407288     0.1684771411     1.6115462431
| 25>  C        2.5300049000     0.0068645945     0.6389251673
| 26>  C        2.9921306101    -1.3295326847     0.0603017521
| 27>  C        3.9857051476    -0.9904994102    -1.0064985937
| 28>  C        5.1585855211    -0.1720377744    -0.6556561353
| 29>  N        3.9624195280     0.5119551285    -1.1912585223
| 30>  C        3.0332205413     1.1508937352    -0.2532554362
| 31>  H        3.4132086704    -1.9506237647     0.8531177626
| 32>  H        2.1237305102    -1.8564125487    -0.3452573540
| 33>  H        4.0104933565    -1.5496271879    -1.9336949761
| 34>  H        5.3641915935     0.0545705885     0.3846747637
| 35>  H        6.0142031711    -0.1570699725    -1.3194057797
| 36>  H        4.0247538847     0.8854699431    -2.1318559245
| 37>  H        2.1982756435     1.5825267241    -0.8092268915
| 38>  H        3.5248461931     1.9318954881     0.3268139243
| 39> *
| 40>
| 41>                          ****END OF INPUT****
 Total Charge           Charge          ....    1
 Multiplicity           Mult            ....    1
 Number of Electrons    NEL             ....   52
FINAL SINGLE POINT ENERGY      -324.780090454882

CARTESIAN COORDINATES (ANGSTROEM)
---------------------------------
  O      0.000227    0.000919    2.281737
  C      0.009457    0.140616    1.104523
  C     -1.163542    0.574009    0.226717
  C     -0.717206    0.360480   -1.185708
  C     -0.261865   -0.978320   -1.595883
  N      0.752909    0.000089   -1.150380
  C      1.251349   -0.074957    0.227211
  H     -2.052358   -0.004424    0.484607
  H     -1.384445    1.625818    0.428632
  H     -0.979922    1.071193   -1.959621
  H     -0.386892   -1.818441   -0.921478
  H     -0.211282   -1.222928   -2.649501
  H      1.364244    0.388732   -1.859752
  H      1.969314    0.730337    0.396242
  H      1.728423   -1.034075    0.427931

FINAL SINGLE POINT ENERGY      -324.780090930336
                    ***********************HURRAY********************
 Multiplicity           Mult            ....    1
 Number of Electrons    NEL             ....   52
 Basis Dimension        Dim             ....  265
FINAL SINGLE POINT ENERGY      -324.780091089657

VIBRATIONAL FREQUENCIES
-----------------------

   0:         0.00 cm**-1
   1:         0.00 cm**-1
   2:         0.00 cm**-1
   3:         0.00 cm**-1
   4:         0.00 cm**-1
   5:         0.00 cm**-1
   6:        85.87 cm**-1
   7:       306.60 cm**-1
   8:       389.09 cm**-1
   9:       457.03 cm**-1
  10:       467.29 cm**-1
  11:       619.52 cm**-1
  12:       642.95 cm**-1
  13:       763.84 cm**-1
  14:       780.18 cm**-1
  15:       798.52 cm**-1
  16:       826.19 cm**-1
  17:       893.74 cm**-1
  18:       957.11 cm**-1
  19:      1003.88 cm**-1
  20:      1048.68 cm**-1
  21:      1079.00 cm**-1
  22:      1125.97 cm**-1
  23:      1151.90 cm**-1
  24:      1161.55 cm**-1
  25:      1168.48 cm**-1
  26:      1205.94 cm**-1
  27:      1243.41 cm**-1
  28:      1265.20 cm**-1
  29:      1298.88 cm**-1
  30:      1311.17 cm**-1
  31:      1406.47 cm**-1
  32:      1433.39 cm**-1
  33:      1443.42 cm**-1
  34:      1459.07 cm**-1
  35:      1503.49 cm**-1
  36:      1909.52 cm**-1
  37:      3088.03 cm**-1
  38:      3100.53 cm**-1
  39:      3142.20 cm**-1
  40:      3159.40 cm**-1
  41:      3165.54 cm**-1
  42:      3216.78 cm**-1
  43:      3262.52 cm**-1
  44:      3562.77 cm**-1

IR SPECTRUM
-----------

 Mode    freq (cm**-1)   T**2         TX         TY         TZ
-------------------------------------------------------------------
   6:        85.87    4.301518  (  0.461593   2.012404   0.196674)
   7:       306.60    0.390802  (  0.063091  -0.594421   0.182988)
   8:       389.09    2.093467  (  0.088720   1.219684  -0.773284)
   9:       457.03    6.674201  (  2.497863  -0.658752  -0.030499)
  10:       467.29    0.664809  (  0.032149  -0.453395  -0.676911)
  11:       619.52    4.792874  ( -0.694364   0.320002   2.051422)
  12:       642.95    3.983570  ( -1.768211   0.808833  -0.450321)
  13:       763.84    5.493788  (  0.510011   0.253819  -2.273599)
  14:       780.18   14.468802  (  3.762860  -0.333935  -0.445171)
  15:       798.52    5.938799  ( -1.563470  -0.779680  -1.698958)
  16:       826.19    5.328065  (  1.875785   1.283158   0.403736)
  17:       893.74   16.640509  (  1.521831  -3.474521  -1.500747)
  18:       957.11    8.948579  ( -1.062652   2.757409  -0.464805)
  19:      1003.88    9.945298  ( -1.023170  -2.566443  -1.520458)
  20:      1048.68   11.990197  ( -3.351922  -0.509044  -0.704051)
  21:      1079.00   14.468614  ( -3.280932   1.443505   1.272948)
  22:      1125.97   50.044354  (  6.427684  -2.778237   1.005300)
  23:      1151.90    2.995822  ( -0.785736  -1.188357  -0.982979)
  24:      1161.55    0.619593  (  0.475013  -0.532982   0.331491)
  25:      1168.48   19.896941  (  4.417734   0.098875   0.608929)
  26:      1205.94    5.160367  ( -2.217352   0.405735  -0.281242)
  27:      1243.41    2.442272  (  0.018561   1.541612   0.255656)
  28:      1265.20    2.091610  (  0.691083   0.459437  -1.184455)
  29:      1298.88   18.434580  (  3.099552  -2.045027   2.155277)
  30:      1311.17   18.088286  ( -4.252155   0.052860   0.068328)
  31:      1406.47    9.999565  (  1.421796  -1.155247   2.577492)
  32:      1433.39   20.085307  ( -2.160989  -2.327452  -3.162025)
  33:      1443.42   18.971635  (  4.055472  -1.311419  -0.897197)
  34:      1459.07   13.661846  ( -3.652859  -0.549852   0.126998)
  35:      1503.49   11.660326  (  1.890075  -2.843229  -0.063184)
  36:      1909.52  218.983015  (  0.137801  -1.344584  14.736218)
  37:      3088.03    8.955367  (  2.731624  -1.187852   0.287411)
  38:      3100.53    4.962650  (  2.138540   0.102448  -0.615468)
  39:      3142.20    5.519815  ( -1.623614  -1.667490   0.321202)
  40:      3159.40    4.283666  (  0.346787   1.733774   1.075841)
  41:      3165.54    5.100873  (  0.182643   2.244247   0.175696)
  42:      3216.78    3.483681  (  0.879766  -1.409660   0.850030)
  43:      3262.52    7.037228  (  0.107205   0.784887  -2.531736)
  44:      3562.77  125.459372  (  7.562686   3.879601  -7.294782)

--------------------------
THERMOCHEMISTRY AT 298.15K
--------------------------

Temperature         ... 298.15 K
Pressure            ... 1.00 atm
Total Mass          ... 98.12 AMU

Throughout the following assumptions are being made:
  (1) The electronic state is orbitally nondegenerate
  (2) There are no thermally accessible electronically excited states
  (3) Hindered rotations indicated by low frequency modes) are not
      treated as such but are treated as vibrations and this may
      case some error
  (4) All equations used are the standard statistical mechanics
      equations for an ideal gas
  (5) All vibrations are strinctly harmonic

------------
INNER ENERGY
------------

The inner energy is: U= E(el) + E(ZPE) + E(vib) + E(rot) + E(trans)
    E(el)   - is the total energy from the electronic structure calculation
              = E(kin-el) + E(nuc-el) + E(el-el) + E(nuc-nuc)
    E(ZPE)  - the the zero temperature vibrational energy from the frequency calculation
    E(vib)  - the the finite temperature correction to E(ZPE) due to population
              of excietd vibrational states
    E(rot)  - is the rotational thermal energy
    E(trans)- is the translational thermal energy

Summary of contributions to the inner energy U:
Electronic energy                ...   -324.78009109 Eh
Zero point energy                ...      0.12963934 Eh      81.35 kcal/mol
Thermal vibrational correction   ...      0.00298354 Eh       1.87 kcal/mol
Thermal rotational correction    ...      0.00141627 Eh       0.89 kcal/mol
Thermal translational correction ...      0.00141627 Eh       0.89 kcal/mol
-----------------------------------------------------------------------
Total thermal energy                   -324.64463566 Eh

Summary of corrections to the electronic energy:
(perhaps to be used in another calculation)
Total thermal correction                  0.00581608 Eh       3.65 kcal/mol
Non-thermal (ZPE) correction              0.12963934 Eh      81.35 kcal/mol
-----------------------------------------------------------------------
Total correction                          0.13545543 Eh      85.00 kcal/mol

--------
ENTHALPY
--------

The enthalpy is H = U + kB*T
                kB is Boltzmann's constant
Total free energy                 ...   -324.64463566 Eh
Thermal Enthalpy correction       ...      0.00094421 Eh       0.59 kcal/mol
-----------------------------------------------------------------------
Total Enthalpy                    ...   -324.64369145 Eh

-------
ENTROPY
-------

The entropy contributions are T*S = T*(S(el)+S(vib)+S(rot)+S(trans)
     S(el)   - electronic entropy
     S(vib)  - vibrational entropy
     S(rot)  - rotational entropy
     S(trans)- translational entropy
The entropies will be listed as mutliplied by the temperature to get
units of energy

Electronic entropy                ...      0.00000000 Eh      0.00 kcal/mol
Vibrational entropy               ...      0.00486655 Eh      3.05 kcal/mol
Rotational entropy                ...      0.01173180 Eh      7.36 kcal/mol
Translational entropy             ...      0.01884443 Eh     11.83 kcal/mol
-----------------------------------------------------------------------
Final entropy term                ...      0.03544278 Eh     22.24 kcal/mol

CAUTION: The rotational entropy is not quite correctly treated here
         because it includes a symmetry number that is not yet correctly
         implemented in ORCA!
For a nonlinear molecule the correct rotational entropy is:
    S(rot) = R*(ln(qrot/sn)+1.5)
    R    = 8.31441 J/mol/K = 1.987191683e-3 kcal/mol/K
    qrot = 166705.0507350
    sn is the rotational symmetry number. We have assumed 3 here
       if it is different for your molecule then you should correct
       the printed rotational entropy by manually evaluating the equation
       as given above

For convenience we print out the resulting values for sn=1 - 12:
 sn= 1  qrot/sn=  166705.0507 T*S(rot)=     8.01 kcal/mol T*S(tot)=    22.89 kcal/mol
 sn= 2  qrot/sn=   83352.5254 T*S(rot)=     7.60 kcal/mol T*S(tot)=    22.48 kcal/mol
 sn= 3  qrot/sn=   55568.3502 T*S(rot)=     7.36 kcal/mol T*S(tot)=    22.24 kcal/mol
 sn= 4  qrot/sn=   41676.2627 T*S(rot)=     7.19 kcal/mol T*S(tot)=    22.07 kcal/mol
 sn= 5  qrot/sn=   33341.0101 T*S(rot)=     7.06 kcal/mol T*S(tot)=    21.94 kcal/mol
 sn= 6  qrot/sn=   27784.1751 T*S(rot)=     6.95 kcal/mol T*S(tot)=    21.83 kcal/mol
 sn= 7  qrot/sn=   23815.0072 T*S(rot)=     6.86 kcal/mol T*S(tot)=    21.74 kcal/mol
 sn= 8  qrot/sn=   20838.1313 T*S(rot)=     6.78 kcal/mol T*S(tot)=    21.66 kcal/mol
 sn= 9  qrot/sn=   18522.7834 T*S(rot)=     6.71 kcal/mol T*S(tot)=    21.59 kcal/mol
 sn=10  qrot/sn=   16670.5051 T*S(rot)=     6.65 kcal/mol T*S(tot)=    21.53 kcal/mol
 sn=11  qrot/sn=   15155.0046 T*S(rot)=     6.59 kcal/mol T*S(tot)=    21.47 kcal/mol
 sn=12  qrot/sn=   13892.0876 T*S(rot)=     6.54 kcal/mol T*S(tot)=    21.42 kcal/mol

-------------------
GIBBS FREE ENTHALPY
-------------------

The Gibbs free enthalpy is G = H - T*S

Total enthalpy                    ...   -324.64369145 Eh
Total entropy correction          ...     -0.03544278 Eh    -22.24 kcal/mol
-----------------------------------------------------------------------
Final Gibbs free enthalpy         ...   -324.67913423 Eh

For completeness - the Gibbs free enthalpy minus the electronic energy
G-E(el)                           ...      0.10095686 Eh     63.35 kcal/mol

                             ****ORCA TERMINATED NORMALLY****
TOTAL RUN TIME: 0 days 0 hours 32 minutes 38 seconds 605 msec
