                         Program Version 3.0.3 - RELEASE   -
|  1> ! NORI PBE0 def2-TZVP UseSym TightOPT Freq TightSCF Grid3 FinalGrid5 XYZFile
|  2> % pal
|  3>     nprocs 8
|  4> end
|  5> %method
|  6>     SymThresh 5.0e-2
|  7> end
|  8> % geom
|  9>     MaxIter 10
| 10> end
| 11> % maxcore 2000
| 12> % output
| 13>     printlevel mini
| 14>     print[ P_Basis ] 0
| 15>     print[ P_SCFInfo ] 1
| 16>     print[ P_SCFIterInfo ] 1
| 17>     print[ P_OrbEn ] 0
| 18>     print[ P_Cartesian ] 0
| 19> end
| 20> % elprop
| 21>     Dipole false
| 22> end
| 23> *xyz 1 1
| 24>  O        1.1105805495     0.1118588441     0.5952039822
| 25>  C        2.4755144130     0.0876050076     0.2687015171
| 26>  C        2.7345197604    -1.3188026641    -0.2859898587
| 27>  C        2.4187499649    -1.2056832794    -1.7601731020
| 28>  N        3.5501190313    -0.6736374385    -2.5807772817
| 29>  C        2.4372486538     0.2216044896    -2.1385554049
| 30>  C        2.7683363194     1.0405414004    -0.9107748878
| 31>  H        0.9038218311     0.8990790835     1.1080140841
| 32>  H        3.1050082093     0.3071052157     1.1363609736
| 33>  H        3.7613599984    -1.6535867200    -0.1168480729
| 34>  H        2.0740263203    -2.0381392825     0.1963616275
| 35>  H        1.8270130235    -1.9459294042    -2.2828250601
| 36>  H        4.4586859795    -0.5682898198    -2.1399556608
| 37>  H        3.5923354924    -0.9337134863    -3.5603075498
| 38>  H        1.8591280854     0.6186443706    -2.9629041710
| 39>  H        2.1425949202     1.9314396791    -0.8652128396
| 40>  H        3.8075774477     1.3834640041    -0.9254982952
| 41> *
| 42>
| 43>                          ****END OF INPUT****
 Total Charge           Charge          ....    1
 Multiplicity           Mult            ....    1
 Number of Electrons    NEL             ....   54
FINAL SINGLE POINT ENERGY      -325.997714519051

CARTESIAN COORDINATES (ANGSTROEM)
---------------------------------
  O      0.000143   -0.000115    2.100746
  C     -0.808502    0.122470    0.960082
  C     -0.192643    1.268993    0.147776
  C      0.857770    0.600272   -0.709697
  N      0.316348    0.000213   -1.968009
  C      0.571520   -0.847269   -0.763169
  C     -0.667908   -1.123418    0.058509
  H     -0.416685   -0.580516    2.744797
  H     -1.852381    0.320987    1.221452
  H     -0.932831    1.797819   -0.458877
  H      0.261710    1.999014    0.816541
  H      1.853009    1.008574   -0.828327
  H     -0.646041    0.199876   -2.222865
  H      0.943548   -0.095179   -2.759433
  H      1.339615   -1.592631   -0.923899
  H     -0.540134   -2.029010    0.651084
  H     -1.544026   -1.281946   -0.578261

FINAL SINGLE POINT ENERGY      -325.997715325541
                    ***********************HURRAY********************
 Multiplicity           Mult            ....    1
 Number of Electrons    NEL             ....   54
 Basis Dimension        Dim             ....  277
FINAL SINGLE POINT ENERGY      -325.997715864783

VIBRATIONAL FREQUENCIES
-----------------------

   0:         0.00 cm**-1
   1:         0.00 cm**-1
   2:         0.00 cm**-1
   3:         0.00 cm**-1
   4:         0.00 cm**-1
   5:         0.00 cm**-1
   6:        87.97 cm**-1
   7:       284.31 cm**-1
   8:       294.24 cm**-1
   9:       343.68 cm**-1
  10:       442.42 cm**-1
  11:       456.11 cm**-1
  12:       684.61 cm**-1
  13:       744.19 cm**-1
  14:       763.09 cm**-1
  15:       834.22 cm**-1
  16:       850.86 cm**-1
  17:       873.56 cm**-1
  18:       915.49 cm**-1
  19:       934.97 cm**-1
  20:       950.43 cm**-1
  21:       971.93 cm**-1
  22:       990.15 cm**-1
  23:      1018.08 cm**-1
  24:      1075.02 cm**-1
  25:      1081.36 cm**-1
  26:      1153.63 cm**-1
  27:      1160.53 cm**-1
  28:      1211.67 cm**-1
  29:      1215.21 cm**-1
  30:      1252.91 cm**-1
  31:      1267.46 cm**-1
  32:      1293.94 cm**-1
  33:      1318.36 cm**-1
  34:      1340.70 cm**-1
  35:      1380.70 cm**-1
  36:      1390.99 cm**-1
  37:      1430.36 cm**-1
  38:      1460.13 cm**-1
  39:      1470.65 cm**-1
  40:      1627.02 cm**-1
  41:      3068.52 cm**-1
  42:      3077.31 cm**-1
  43:      3088.26 cm**-1
  44:      3145.87 cm**-1
  45:      3156.06 cm**-1
  46:      3223.68 cm**-1
  47:      3231.35 cm**-1
  48:      3498.20 cm**-1
  49:      3608.81 cm**-1
  50:      3853.28 cm**-1

IR SPECTRUM
-----------

 Mode    freq (cm**-1)   T**2         TX         TY         TZ
-------------------------------------------------------------------
   6:        87.97    3.015603  ( -0.942897   0.425750  -1.394735)
   7:       284.31    2.924912  (  1.423978  -0.938266  -0.129821)
   8:       294.24   79.642118  (  4.336709  -6.928186  -3.582640)
   9:       343.68   55.944232  (  3.256645  -4.471177  -5.034587)
  10:       442.42    7.077447  ( -0.230402  -0.019503   2.650280)
  11:       456.11    1.807017  (  1.076078   0.257202   0.763491)
  12:       684.61    1.210445  ( -0.251232   1.037871  -0.264862)
  13:       744.19    3.101246  (  0.056866  -1.480231   0.952328)
  14:       763.09   10.455693  (  0.341690   0.523255   3.172561)
  15:       834.22   18.757173  ( -0.453993   0.101341  -4.305902)
  16:       850.86    1.034824  ( -0.206277   0.071538   0.993558)
  17:       873.56    6.105549  ( -0.718286   0.252781  -2.350684)
  18:       915.49    2.540725  ( -0.024447   0.383723   1.546895)
  19:       934.97    2.469627  (  1.485046  -0.355211   0.371605)
  20:       950.43    2.673101  (  0.314313   1.479437  -0.620945)
  21:       971.93    9.817047  (  1.733233  -1.621665   2.045275)
  22:       990.15   13.976803  ( -2.138051  -0.537903  -3.019305)
  23:      1018.08   96.462418  (  1.854945   9.639947   0.304992)
  24:      1075.02    5.578439  ( -1.249378  -0.527064  -1.933830)
  25:      1081.36   21.487179  ( -0.353184   0.161222   4.619139)
  26:      1153.63   23.893795  ( -2.764858   0.233973  -4.024253)
  27:      1160.53    7.251966  (  1.410280  -1.159894   1.979323)
  28:      1211.67   35.809491  ( -3.129434   0.225590  -5.095610)
  29:      1215.21    8.044418  ( -1.581792   0.491606  -2.302320)
  30:      1252.91   29.019664  ( -2.597754   0.607461  -4.679992)
  31:      1267.46    1.882924  ( -0.315015  -1.261595   0.438255)
  32:      1293.94   35.930407  (  1.596578   2.652632   5.132727)
  33:      1318.36   10.622989  (  0.208156  -0.044924  -3.252329)
  34:      1340.70   13.023909  (  3.593716   0.162762   0.287444)
  35:      1380.70    8.060273  ( -1.537937  -1.165688   2.082353)
  36:      1390.99    3.596206  (  1.305391  -1.252413   0.568878)
  37:      1430.36    6.814823  ( -2.497265  -0.057610   0.758399)
  38:      1460.13   19.538290  (  0.604835   4.378198  -0.062001)
  39:      1470.65    4.619342  (  2.052113  -0.429621   0.472863)
  40:      1627.02   76.489518  (  3.327886  -1.001964   8.025632)
  41:      3068.52    4.262670  ( -1.246378   0.885057   1.387763)
  42:      3077.31    7.837890  (  2.798330   0.075261  -0.039717)
  43:      3088.26   11.885682  ( -2.930506   0.696723  -1.677019)
  44:      3145.87    0.433772  ( -0.145948  -0.027816  -0.641636)
  45:      3156.06    0.932754  (  0.183516   0.751425   0.578305)
  46:      3223.68    2.254465  ( -0.198983  -1.488243  -0.002151)
  47:      3231.35    3.264415  (  1.693166  -0.123984   0.618248)
  48:      3498.20   85.851891  (  1.897343  -0.746728   9.038494)
  49:      3608.81  115.418156  ( -9.240083   1.628067   5.233395)
  50:      3853.28   84.238151  (  1.984415   3.837251  -8.097885)

--------------------------
THERMOCHEMISTRY AT 298.15K
--------------------------

Temperature         ... 298.15 K
Pressure            ... 1.00 atm
Total Mass          ... 100.14 AMU

Throughout the following assumptions are being made:
  (1) The electronic state is orbitally nondegenerate
  (2) There are no thermally accessible electronically excited states
  (3) Hindered rotations indicated by low frequency modes) are not
      treated as such but are treated as vibrations and this may
      case some error
  (4) All equations used are the standard statistical mechanics
      equations for an ideal gas
  (5) All vibrations are strinctly harmonic

------------
INNER ENERGY
------------

The inner energy is: U= E(el) + E(ZPE) + E(vib) + E(rot) + E(trans)
    E(el)   - is the total energy from the electronic structure calculation
              = E(kin-el) + E(nuc-el) + E(el-el) + E(nuc-nuc)
    E(ZPE)  - the the zero temperature vibrational energy from the frequency calculation
    E(vib)  - the the finite temperature correction to E(ZPE) due to population
              of excietd vibrational states
    E(rot)  - is the rotational thermal energy
    E(trans)- is the translational thermal energy

Summary of contributions to the inner energy U:
Electronic energy                ...   -325.99771586 Eh
Zero point energy                ...      0.15382709 Eh      96.53 kcal/mol
Thermal vibrational correction   ...      0.00349809 Eh       2.20 kcal/mol
Thermal rotational correction    ...      0.00141627 Eh       0.89 kcal/mol
Thermal translational correction ...      0.00141627 Eh       0.89 kcal/mol
-----------------------------------------------------------------------
Total thermal energy                   -325.83755814 Eh

Summary of corrections to the electronic energy:
(perhaps to be used in another calculation)
Total thermal correction                  0.00633064 Eh       3.97 kcal/mol
Non-thermal (ZPE) correction              0.15382709 Eh      96.53 kcal/mol
-----------------------------------------------------------------------
Total correction                          0.16015772 Eh     100.50 kcal/mol

--------
ENTHALPY
--------

The enthalpy is H = U + kB*T
                kB is Boltzmann's constant
Total free energy                 ...   -325.83755814 Eh
Thermal Enthalpy correction       ...      0.00094421 Eh       0.59 kcal/mol
-----------------------------------------------------------------------
Total Enthalpy                    ...   -325.83661393 Eh

-------
ENTROPY
-------

The entropy contributions are T*S = T*(S(el)+S(vib)+S(rot)+S(trans)
     S(el)   - electronic entropy
     S(vib)  - vibrational entropy
     S(rot)  - rotational entropy
     S(trans)- translational entropy
The entropies will be listed as mutliplied by the temperature to get
units of energy

Electronic entropy                ...      0.00000000 Eh      0.00 kcal/mol
Vibrational entropy               ...      0.00569204 Eh      3.57 kcal/mol
Rotational entropy                ...      0.01177160 Eh      7.39 kcal/mol
Translational entropy             ...      0.01887324 Eh     11.84 kcal/mol
-----------------------------------------------------------------------
Final entropy term                ...      0.03633688 Eh     22.80 kcal/mol

CAUTION: The rotational entropy is not quite correctly treated here
         because it includes a symmetry number that is not yet correctly
         implemented in ORCA!
For a nonlinear molecule the correct rotational entropy is:
    S(rot) = R*(ln(qrot/sn)+1.5)
    R    = 8.31441 J/mol/K = 1.987191683e-3 kcal/mol/K
    qrot = 173882.9274662
    sn is the rotational symmetry number. We have assumed 3 here
       if it is different for your molecule then you should correct
       the printed rotational entropy by manually evaluating the equation
       as given above

For convenience we print out the resulting values for sn=1 - 12:
 sn= 1  qrot/sn=  173882.9275 T*S(rot)=     8.04 kcal/mol T*S(tot)=    23.45 kcal/mol
 sn= 2  qrot/sn=   86941.4637 T*S(rot)=     7.63 kcal/mol T*S(tot)=    23.04 kcal/mol
 sn= 3  qrot/sn=   57960.9758 T*S(rot)=     7.39 kcal/mol T*S(tot)=    22.80 kcal/mol
 sn= 4  qrot/sn=   43470.7319 T*S(rot)=     7.22 kcal/mol T*S(tot)=    22.63 kcal/mol
 sn= 5  qrot/sn=   34776.5855 T*S(rot)=     7.08 kcal/mol T*S(tot)=    22.50 kcal/mol
 sn= 6  qrot/sn=   28980.4879 T*S(rot)=     6.98 kcal/mol T*S(tot)=    22.39 kcal/mol
 sn= 7  qrot/sn=   24840.4182 T*S(rot)=     6.88 kcal/mol T*S(tot)=    22.30 kcal/mol
 sn= 8  qrot/sn=   21735.3659 T*S(rot)=     6.81 kcal/mol T*S(tot)=    22.22 kcal/mol
 sn= 9  qrot/sn=   19320.3253 T*S(rot)=     6.74 kcal/mol T*S(tot)=    22.15 kcal/mol
 sn=10  qrot/sn=   17388.2927 T*S(rot)=     6.67 kcal/mol T*S(tot)=    22.09 kcal/mol
 sn=11  qrot/sn=   15807.5389 T*S(rot)=     6.62 kcal/mol T*S(tot)=    22.03 kcal/mol
 sn=12  qrot/sn=   14490.2440 T*S(rot)=     6.57 kcal/mol T*S(tot)=    21.98 kcal/mol

-------------------
GIBBS FREE ENTHALPY
-------------------

The Gibbs free enthalpy is G = H - T*S

Total enthalpy                    ...   -325.83661393 Eh
Total entropy correction          ...     -0.03633688 Eh    -22.80 kcal/mol
-----------------------------------------------------------------------
Final Gibbs free enthalpy         ...   -325.87295081 Eh

For completeness - the Gibbs free enthalpy minus the electronic energy
G-E(el)                           ...      0.12476505 Eh     78.29 kcal/mol

                             ****ORCA TERMINATED NORMALLY****
TOTAL RUN TIME: 0 days 0 hours 35 minutes 23 seconds 251 msec
