                         Program Version 3.0.3 - RELEASE   -
|  1> ! NORI PBE0 def2-TZVP UseSym TightOPT Freq TightSCF Grid3 FinalGrid5 XYZFile
|  2> % pal
|  3>     nprocs 8
|  4> end
|  5> %method
|  6>     SymThresh 5.0e-2
|  7> end
|  8> % geom
|  9>     MaxIter 10
| 10> end
| 11> % maxcore 2000
| 12> % output
| 13>     printlevel mini
| 14>     print[ P_Basis ] 0
| 15>     print[ P_SCFInfo ] 1
| 16>     print[ P_SCFIterInfo ] 1
| 17>     print[ P_OrbEn ] 0
| 18>     print[ P_Cartesian ] 0
| 19> end
| 20> % elprop
| 21>     Dipole false
| 22> end
| 23> *xyz 1 1
| 24>  O        1.9322553384     0.0350321004     1.6578587293
| 25>  C        2.5459679351     0.0025044534     0.6404113473
| 26>  C        3.0035248853    -1.2692874204    -0.0848304481
| 27>  C        4.0047464626    -0.7987934118    -1.0940466095
| 28>  N        5.1549158751    -0.0516819075    -0.4961198812
| 29>  C        4.0186073030     0.6840185559    -1.1330864623
| 30>  C        3.0270889770     1.2255480237    -0.1504259514
| 31>  H        3.3719961346    -2.0238788008     0.6128496296
| 32>  H        2.1468740521    -1.7086924272    -0.6069178923
| 33>  H        4.2848135015    -1.3993993243    -1.9499903323
| 34>  H        5.2530575491    -0.0257104164     0.5156834746
| 35>  H        6.0400462459    -0.0729290461    -0.9916846888
| 36>  H        4.3092561211     1.2333222548    -2.0193991258
| 37>  H        2.1788691577     1.6540605626    -0.6946647050
| 38>  H        3.4110604615     2.0078568037     0.5071729158
| 39> *
| 40>
| 41>                          ****END OF INPUT****
 Total Charge           Charge          ....    1
 Multiplicity           Mult            ....    1
 Number of Electrons    NEL             ....   52
FINAL SINGLE POINT ENERGY      -324.786649617748

CARTESIAN COORDINATES (ANGSTROEM)
---------------------------------
  O      2.269544    0.000955    0.000000
  C      1.096256    0.191133   -0.000000
  C      0.214432    0.324114    1.247891
  C     -1.190126    0.209763    0.741728
  N     -1.459853   -1.061205    0.000000
  C     -1.190126    0.209763   -0.741728
  C      0.214432    0.324114   -1.247891
  H      0.487562   -0.401397    2.016401
  H      0.359953    1.318935    1.682062
  H     -2.039135    0.556296    1.317012
  H     -0.752082   -1.791153    0.000000
  H     -2.410943   -1.414738    0.000000
  H     -2.039135    0.556296   -1.317012
  H      0.359953    1.318935   -1.682062
  H      0.487562   -0.401397   -2.016401

FINAL SINGLE POINT ENERGY      -324.786649773838
                    ***********************HURRAY********************
 Multiplicity           Mult            ....    1
 Number of Electrons    NEL             ....   52
 Basis Dimension        Dim             ....  265
FINAL SINGLE POINT ENERGY      -324.786649817554

VIBRATIONAL FREQUENCIES
-----------------------

   0:         0.00 cm**-1
   1:         0.00 cm**-1
   2:         0.00 cm**-1
   3:         0.00 cm**-1
   4:         0.00 cm**-1
   5:         0.00 cm**-1
   6:        88.17 cm**-1
   7:       317.70 cm**-1
   8:       379.19 cm**-1
   9:       463.04 cm**-1
  10:       469.40 cm**-1
  11:       615.78 cm**-1
  12:       639.01 cm**-1
  13:       756.29 cm**-1
  14:       783.80 cm**-1
  15:       801.31 cm**-1
  16:       848.64 cm**-1
  17:       895.80 cm**-1
  18:       934.34 cm**-1
  19:       950.06 cm**-1
  20:      1012.84 cm**-1
  21:      1041.06 cm**-1
  22:      1042.58 cm**-1
  23:      1117.03 cm**-1
  24:      1121.07 cm**-1
  25:      1158.17 cm**-1
  26:      1196.70 cm**-1
  27:      1220.33 cm**-1
  28:      1250.34 cm**-1
  29:      1291.21 cm**-1
  30:      1309.61 cm**-1
  31:      1384.36 cm**-1
  32:      1397.59 cm**-1
  33:      1427.04 cm**-1
  34:      1436.04 cm**-1
  35:      1630.99 cm**-1
  36:      1898.18 cm**-1
  37:      3077.49 cm**-1
  38:      3080.15 cm**-1
  39:      3135.88 cm**-1
  40:      3136.11 cm**-1
  41:      3221.49 cm**-1
  42:      3228.47 cm**-1
  43:      3491.69 cm**-1
  44:      3601.42 cm**-1

IR SPECTRUM
-----------

 Mode    freq (cm**-1)   T**2         TX         TY         TZ
-------------------------------------------------------------------
   6:        88.17    6.793553  ( -1.690582  -1.983806  -0.000011)
   7:       317.70    1.588419  ( -0.000067   0.000002   1.260325)
   8:       379.19    7.300414  (  2.542612  -0.914078   0.000035)
   9:       463.04    6.519767  (  0.000004  -0.000006  -2.553383)
  10:       469.40    0.101033  ( -0.315095  -0.041813   0.000010)
  11:       615.78    3.714173  ( -0.000007   0.000003  -1.927219)
  12:       639.01    0.986997  ( -0.976347   0.183692   0.000010)
  13:       756.29    7.118622  ( -0.000012   0.000005   2.668075)
  14:       783.80    5.632701  ( -2.369003  -0.143266  -0.000017)
  15:       801.31    1.050601  (  0.000009  -0.000016  -1.024988)
  16:       848.64   25.539007  ( -1.850307  -4.702698   0.000006)
  17:       895.80    3.038683  ( -0.359146  -1.705784   0.000003)
  18:       934.34    4.649007  (  2.065125  -0.619893   0.000011)
  19:       950.06    0.105168  (  0.000000  -0.000002   0.324297)
  20:      1012.84   16.117473  (  0.000000   0.000000  -4.014657)
  21:      1041.06   89.401246  (  0.000040   0.000053   9.455223)
  22:      1042.58    8.021026  (  1.753386   2.224109  -0.000228)
  23:      1117.03    5.355690  ( -1.882685   1.345804  -0.000013)
  24:      1121.07   29.583624  (  0.000005  -0.000006  -5.439083)
  25:      1158.17   27.263831  ( -0.000000   0.000000   5.221478)
  26:      1196.70    0.121838  (  0.000002   0.000004   0.349054)
  27:      1220.33    1.817772  (  0.088252  -1.345356  -0.000002)
  28:      1250.34    1.857051  (  0.388899   1.306066   0.000005)
  29:      1291.21   23.733569  (  0.000001  -0.000003   4.871711)
  30:      1309.61   19.233319  (  4.207282  -1.237778   0.000009)
  31:      1384.36    1.142467  (  0.000000   0.000000  -1.068862)
  32:      1397.59    5.624941  ( -2.029105  -1.227874   0.000019)
  33:      1427.04   32.687133  ( -0.000046  -0.000052   5.717266)
  34:      1436.04    2.277833  ( -0.985175  -1.143356  -0.000286)
  35:      1630.99   76.636295  (  1.933763   8.537966  -0.000001)
  36:      1898.18  205.213225  ( 14.207201  -1.835396   0.000001)
  37:      3077.49   12.147759  ( -0.000121  -0.001157   3.485363)
  38:      3080.15    5.375931  (  0.248380   2.305263   0.001715)
  39:      3135.88    0.256996  (  0.000139  -0.002972  -0.506939)
  40:      3136.11    5.278965  ( -0.104334   2.295230  -0.000624)
  41:      3221.49    3.438764  (  0.000000   0.000000   1.854391)
  42:      3228.47    4.453500  ( -1.551378   1.430639  -0.000000)
  43:      3491.69  102.490834  ( -2.714393  -9.753097  -0.000000)
  44:      3601.42  132.012019  ( 11.488492  -0.163018   0.000000)

--------------------------
THERMOCHEMISTRY AT 298.15K
--------------------------

Temperature         ... 298.15 K
Pressure            ... 1.00 atm
Total Mass          ... 98.12 AMU

Throughout the following assumptions are being made:
  (1) The electronic state is orbitally nondegenerate
  (2) There are no thermally accessible electronically excited states
  (3) Hindered rotations indicated by low frequency modes) are not
      treated as such but are treated as vibrations and this may
      case some error
  (4) All equations used are the standard statistical mechanics
      equations for an ideal gas
  (5) All vibrations are strinctly harmonic

------------
INNER ENERGY
------------

The inner energy is: U= E(el) + E(ZPE) + E(vib) + E(rot) + E(trans)
    E(el)   - is the total energy from the electronic structure calculation
              = E(kin-el) + E(nuc-el) + E(el-el) + E(nuc-nuc)
    E(ZPE)  - the the zero temperature vibrational energy from the frequency calculation
    E(vib)  - the the finite temperature correction to E(ZPE) due to population
              of excietd vibrational states
    E(rot)  - is the rotational thermal energy
    E(trans)- is the translational thermal energy

Summary of contributions to the inner energy U:
Electronic energy                ...   -324.78664982 Eh
Zero point energy                ...      0.12951466 Eh      81.27 kcal/mol
Thermal vibrational correction   ...      0.00300834 Eh       1.89 kcal/mol
Thermal rotational correction    ...      0.00141627 Eh       0.89 kcal/mol
Thermal translational correction ...      0.00141627 Eh       0.89 kcal/mol
-----------------------------------------------------------------------
Total thermal energy                   -324.65129427 Eh

Summary of corrections to the electronic energy:
(perhaps to be used in another calculation)
Total thermal correction                  0.00584089 Eh       3.67 kcal/mol
Non-thermal (ZPE) correction              0.12951466 Eh      81.27 kcal/mol
-----------------------------------------------------------------------
Total correction                          0.13535555 Eh      84.94 kcal/mol

--------
ENTHALPY
--------

The enthalpy is H = U + kB*T
                kB is Boltzmann's constant
Total free energy                 ...   -324.65129427 Eh
Thermal Enthalpy correction       ...      0.00094421 Eh       0.59 kcal/mol
-----------------------------------------------------------------------
Total Enthalpy                    ...   -324.65035006 Eh

-------
ENTROPY
-------

The entropy contributions are T*S = T*(S(el)+S(vib)+S(rot)+S(trans)
     S(el)   - electronic entropy
     S(vib)  - vibrational entropy
     S(rot)  - rotational entropy
     S(trans)- translational entropy
The entropies will be listed as mutliplied by the temperature to get
units of energy

Electronic entropy                ...      0.00000000 Eh      0.00 kcal/mol
Vibrational entropy               ...      0.00487083 Eh      3.06 kcal/mol
Rotational entropy                ...      0.01173960 Eh      7.37 kcal/mol
Translational entropy             ...      0.01884443 Eh     11.83 kcal/mol
-----------------------------------------------------------------------
Final entropy term                ...      0.03545487 Eh     22.25 kcal/mol

CAUTION: The rotational entropy is not quite correctly treated here
         because it includes a symmetry number that is not yet correctly
         implemented in ORCA!
For a nonlinear molecule the correct rotational entropy is:
    S(rot) = R*(ln(qrot/sn)+1.5)
    R    = 8.31441 J/mol/K = 1.987191683e-3 kcal/mol/K
    qrot = 168089.3864714
    sn is the rotational symmetry number. We have assumed 3 here
       if it is different for your molecule then you should correct
       the printed rotational entropy by manually evaluating the equation
       as given above

For convenience we print out the resulting values for sn=1 - 12:
 sn= 1  qrot/sn=  168089.3865 T*S(rot)=     8.02 kcal/mol T*S(tot)=    22.90 kcal/mol
 sn= 2  qrot/sn=   84044.6932 T*S(rot)=     7.61 kcal/mol T*S(tot)=    22.49 kcal/mol
 sn= 3  qrot/sn=   56029.7955 T*S(rot)=     7.37 kcal/mol T*S(tot)=    22.25 kcal/mol
 sn= 4  qrot/sn=   42022.3466 T*S(rot)=     7.20 kcal/mol T*S(tot)=    22.08 kcal/mol
 sn= 5  qrot/sn=   33617.8773 T*S(rot)=     7.06 kcal/mol T*S(tot)=    21.95 kcal/mol
 sn= 6  qrot/sn=   28014.8977 T*S(rot)=     6.96 kcal/mol T*S(tot)=    21.84 kcal/mol
 sn= 7  qrot/sn=   24012.7695 T*S(rot)=     6.86 kcal/mol T*S(tot)=    21.75 kcal/mol
 sn= 8  qrot/sn=   21011.1733 T*S(rot)=     6.79 kcal/mol T*S(tot)=    21.67 kcal/mol
 sn= 9  qrot/sn=   18676.5985 T*S(rot)=     6.72 kcal/mol T*S(tot)=    21.60 kcal/mol
 sn=10  qrot/sn=   16808.9386 T*S(rot)=     6.65 kcal/mol T*S(tot)=    21.53 kcal/mol
 sn=11  qrot/sn=   15280.8533 T*S(rot)=     6.60 kcal/mol T*S(tot)=    21.48 kcal/mol
 sn=12  qrot/sn=   14007.4489 T*S(rot)=     6.55 kcal/mol T*S(tot)=    21.43 kcal/mol

-------------------
GIBBS FREE ENTHALPY
-------------------

The Gibbs free enthalpy is G = H - T*S

Total enthalpy                    ...   -324.65035006 Eh
Total entropy correction          ...     -0.03545487 Eh    -22.25 kcal/mol
-----------------------------------------------------------------------
Final Gibbs free enthalpy         ...   -324.68580493 Eh

For completeness - the Gibbs free enthalpy minus the electronic energy
G-E(el)                           ...      0.10084489 Eh     63.28 kcal/mol

                             ****ORCA TERMINATED NORMALLY****
TOTAL RUN TIME: 0 days 0 hours 30 minutes 32 seconds 245 msec
