                         Program Version 3.0.3 - RELEASE   -
|  1> ! NORI PBE0 def2-TZVP UseSym TightOPT Freq TightSCF Grid3 FinalGrid5 XYZFile
|  2> % pal
|  3>     nprocs 8
|  4> end
|  5> %method
|  6>     SymThresh 5.0e-2
|  7> end
|  8> % geom
|  9>     MaxIter 10
| 10> end
| 11> % maxcore 2000
| 12> % output
| 13>     printlevel mini
| 14>     print[ P_Basis ] 0
| 15>     print[ P_SCFInfo ] 1
| 16>     print[ P_SCFIterInfo ] 1
| 17>     print[ P_OrbEn ] 0
| 18>     print[ P_Cartesian ] 0
| 19> end
| 20> % elprop
| 21>     Dipole false
| 22> end
| 23> *xyz 1 1
| 24>  O        1.0206856805     0.2745618073    -0.0932981492
| 25>  C        2.4123105124     0.0346538382    -0.1449553059
| 26>  C        2.6628125298    -1.4581091146    -0.3522761968
| 27>  C        2.5859965119    -1.6979859425    -1.8676813209
| 28>  C        3.0165875770    -0.3779399128    -2.4691708977
| 29>  N        1.9647127698     0.6793164718    -2.4772853194
| 30>  C        2.9997943470     0.6694785633    -1.4263077707
| 31>  H        0.8103733176     0.9471875599     0.5605456776
| 32>  H        2.9164941382     0.4277388831     0.7385659783
| 33>  H        3.6708784719    -1.6944423872    -0.0036754811
| 34>  H        1.9582244533    -2.0546987628     0.2250739180
| 35>  H        3.2587647927    -2.4886888669    -2.1988561815
| 36>  H        1.5848119418    -1.9767158970    -2.2045798650
| 37>  H        3.6688365621    -0.3265428863    -3.3323136703
| 38>  H        1.0320018392     0.4628522972    -2.1145357731
| 39>  H        2.0019763947     1.3931410439    -3.1962424961
| 40>  H        3.6612181599     1.5264233056    -1.4106371462
| 41> *
| 42>
| 43>                          ****END OF INPUT****
 Total Charge           Charge          ....    1
 Multiplicity           Mult            ....    1
 Number of Electrons    NEL             ....   54
FINAL SINGLE POINT ENERGY      -326.001120591897

CARTESIAN COORDINATES (ANGSTROEM)
---------------------------------
  O     -0.000222    0.000323    1.812980
  C     -0.608763   -0.641064    0.710796
  C     -1.505960    0.353724   -0.023709
  C     -0.592663    1.114962   -0.996788
  C      0.508059    0.126378   -1.314400
  N      1.558242    0.000076   -0.263064
  C      0.466079   -0.988299   -0.344795
  H      0.055676   -0.591212    2.568596
  H     -1.142006   -1.541074    1.019417
  H     -2.251219   -0.204321   -0.595560
  H     -2.033049    0.995831    0.680441
  H     -1.106695    1.399222   -1.914705
  H     -0.185528    2.033814   -0.567872
  H      0.901879    0.008840   -2.316279
  H      1.500725    0.583177    0.576676
  H      2.492238   -0.276422   -0.543172
  H      0.767233   -2.003671   -0.568286

FINAL SINGLE POINT ENERGY      -326.001121572492
                    ***********************HURRAY********************
 Multiplicity           Mult            ....    1
 Number of Electrons    NEL             ....   54
 Basis Dimension        Dim             ....  277
FINAL SINGLE POINT ENERGY      -326.001122460799

VIBRATIONAL FREQUENCIES
-----------------------

   0:         0.00 cm**-1
   1:         0.00 cm**-1
   2:         0.00 cm**-1
   3:         0.00 cm**-1
   4:         0.00 cm**-1
   5:         0.00 cm**-1
   6:       103.79 cm**-1
   7:       224.11 cm**-1
   8:       270.22 cm**-1
   9:       393.50 cm**-1
  10:       415.22 cm**-1
  11:       530.18 cm**-1
  12:       676.61 cm**-1
  13:       696.54 cm**-1
  14:       765.15 cm**-1
  15:       828.82 cm**-1
  16:       849.71 cm**-1
  17:       880.96 cm**-1
  18:       919.15 cm**-1
  19:       945.80 cm**-1
  20:       970.48 cm**-1
  21:      1011.29 cm**-1
  22:      1028.99 cm**-1
  23:      1040.84 cm**-1
  24:      1062.85 cm**-1
  25:      1084.06 cm**-1
  26:      1135.67 cm**-1
  27:      1155.92 cm**-1
  28:      1205.11 cm**-1
  29:      1232.14 cm**-1
  30:      1259.94 cm**-1
  31:      1264.53 cm**-1
  32:      1305.87 cm**-1
  33:      1324.61 cm**-1
  34:      1339.06 cm**-1
  35:      1372.89 cm**-1
  36:      1396.84 cm**-1
  37:      1420.18 cm**-1
  38:      1470.98 cm**-1
  39:      1488.61 cm**-1
  40:      1620.37 cm**-1
  41:      3086.03 cm**-1
  42:      3089.96 cm**-1
  43:      3120.00 cm**-1
  44:      3144.48 cm**-1
  45:      3160.59 cm**-1
  46:      3218.42 cm**-1
  47:      3228.01 cm**-1
  48:      3401.29 cm**-1
  49:      3591.54 cm**-1
  50:      3867.77 cm**-1

IR SPECTRUM
-----------

 Mode    freq (cm**-1)   T**2         TX         TY         TZ
-------------------------------------------------------------------
   6:       103.79    4.133355  ( -0.718616  -0.548574   1.820992)
   7:       224.11  107.344962  ( -9.043299   2.865904   4.165369)
   8:       270.22   10.988877  (  0.923702   1.065769  -2.999964)
   9:       393.50    4.735395  ( -1.573062   0.542102   1.402496)
  10:       415.22    9.524203  (  0.433504  -1.391337  -2.720379)
  11:       530.18    1.538756  ( -1.069675  -0.306383   0.548344)
  12:       676.61    0.598978  ( -0.579152  -0.490613   0.151195)
  13:       696.54    3.061297  (  1.260844   0.683962   1.001881)
  14:       765.15    1.965652  ( -0.367457   1.342691  -0.166759)
  15:       828.82    3.118169  ( -1.697545  -0.292575  -0.388469)
  16:       849.71   18.392393  (  4.085236   1.114383  -0.679257)
  17:       880.96    8.149561  (  0.958795   1.475841   2.247702)
  18:       919.15   10.873600  ( -0.423813   2.287151   2.337290)
  19:       945.80    5.917291  ( -0.905827   0.434000   2.215494)
  20:       970.48    3.714875  ( -1.785184  -0.496192  -0.530837)
  21:      1011.29   57.561858  ( -3.397635  -6.779337   0.241914)
  22:      1028.99   82.794358  ( -0.039365  -4.290001   8.024257)
  23:      1040.84   16.137422  ( -3.221248   0.905537  -2.222834)
  24:      1062.85    6.945369  ( -1.891294  -0.706206  -1.694004)
  25:      1084.06   37.224620  ( -0.017478   2.213444   5.685506)
  26:      1135.67    8.380267  ( -0.604109   1.160665  -2.582281)
  27:      1155.92    0.734897  ( -0.376930   0.538875  -0.549940)
  28:      1205.11   12.696481  (  1.633909   1.514097   2.781067)
  29:      1232.14   35.574398  (  2.489250   1.623890   5.171171)
  30:      1259.94   23.348179  (  0.933950   2.557326   3.991992)
  31:      1264.53    0.930441  (  0.251361   0.702334  -0.611544)
  32:      1305.87    6.069960  ( -0.910481   0.321932  -2.266571)
  33:      1324.61    1.325287  (  0.573974  -0.929223  -0.363847)
  34:      1339.06    7.722055  ( -0.744201   1.537592   2.191810)
  35:      1372.89    1.444313  (  0.067898   0.515561  -1.083466)
  36:      1396.84    0.239057  (  0.265050   0.229878  -0.340532)
  37:      1420.18   16.822779  ( -1.600392  -3.447656   1.541167)
  38:      1470.98    6.636730  (  2.486800   0.671643   0.038105)
  39:      1488.61   14.809321  (  1.946187  -3.200777   0.881307)
  40:      1620.37   72.252338  (  7.577663   2.967956   2.454099)
  41:      3086.03    0.319509  (  0.361782  -0.171209   0.399137)
  42:      3089.96    4.790486  (  1.661588   1.399876  -0.264497)
  43:      3120.00    5.199550  ( -0.981733  -2.052412   0.152822)
  44:      3144.48    0.100198  (  0.239010   0.084815   0.189418)
  45:      3160.59    0.473122  ( -0.114393   0.335122   0.589686)
  46:      3218.42    0.976260  ( -0.237943   0.605229  -0.743869)
  47:      3228.01    1.921236  ( -0.065450   1.037411   0.916914)
  48:      3401.29  113.334668  (  2.586595   3.715716   9.635230)
  49:      3591.54  155.778300  (-10.675910   3.494102   5.440082)
  50:      3867.77  129.322748  (  0.832287  -4.586285  10.372851)

--------------------------
THERMOCHEMISTRY AT 298.15K
--------------------------

Temperature         ... 298.15 K
Pressure            ... 1.00 atm
Total Mass          ... 100.14 AMU

Throughout the following assumptions are being made:
  (1) The electronic state is orbitally nondegenerate
  (2) There are no thermally accessible electronically excited states
  (3) Hindered rotations indicated by low frequency modes) are not
      treated as such but are treated as vibrations and this may
      case some error
  (4) All equations used are the standard statistical mechanics
      equations for an ideal gas
  (5) All vibrations are strinctly harmonic

------------
INNER ENERGY
------------

The inner energy is: U= E(el) + E(ZPE) + E(vib) + E(rot) + E(trans)
    E(el)   - is the total energy from the electronic structure calculation
              = E(kin-el) + E(nuc-el) + E(el-el) + E(nuc-nuc)
    E(ZPE)  - the the zero temperature vibrational energy from the frequency calculation
    E(vib)  - the the finite temperature correction to E(ZPE) due to population
              of excietd vibrational states
    E(rot)  - is the rotational thermal energy
    E(trans)- is the translational thermal energy

Summary of contributions to the inner energy U:
Electronic energy                ...   -326.00112246 Eh
Zero point energy                ...      0.15400206 Eh      96.64 kcal/mol
Thermal vibrational correction   ...      0.00350055 Eh       2.20 kcal/mol
Thermal rotational correction    ...      0.00141627 Eh       0.89 kcal/mol
Thermal translational correction ...      0.00141627 Eh       0.89 kcal/mol
-----------------------------------------------------------------------
Total thermal energy                   -325.84078731 Eh

Summary of corrections to the electronic energy:
(perhaps to be used in another calculation)
Total thermal correction                  0.00633309 Eh       3.97 kcal/mol
Non-thermal (ZPE) correction              0.15400206 Eh      96.64 kcal/mol
-----------------------------------------------------------------------
Total correction                          0.16033515 Eh     100.61 kcal/mol

--------
ENTHALPY
--------

The enthalpy is H = U + kB*T
                kB is Boltzmann's constant
Total free energy                 ...   -325.84078731 Eh
Thermal Enthalpy correction       ...      0.00094421 Eh       0.59 kcal/mol
-----------------------------------------------------------------------
Total Enthalpy                    ...   -325.83984310 Eh

-------
ENTROPY
-------

The entropy contributions are T*S = T*(S(el)+S(vib)+S(rot)+S(trans)
     S(el)   - electronic entropy
     S(vib)  - vibrational entropy
     S(rot)  - rotational entropy
     S(trans)- translational entropy
The entropies will be listed as mutliplied by the temperature to get
units of energy

Electronic entropy                ...      0.00000000 Eh      0.00 kcal/mol
Vibrational entropy               ...      0.00566447 Eh      3.55 kcal/mol
Rotational entropy                ...      0.01172891 Eh      7.36 kcal/mol
Translational entropy             ...      0.01887324 Eh     11.84 kcal/mol
-----------------------------------------------------------------------
Final entropy term                ...      0.03626661 Eh     22.76 kcal/mol

CAUTION: The rotational entropy is not quite correctly treated here
         because it includes a symmetry number that is not yet correctly
         implemented in ORCA!
For a nonlinear molecule the correct rotational entropy is:
    S(rot) = R*(ln(qrot/sn)+1.5)
    R    = 8.31441 J/mol/K = 1.987191683e-3 kcal/mol/K
    qrot = 166196.4685084
    sn is the rotational symmetry number. We have assumed 3 here
       if it is different for your molecule then you should correct
       the printed rotational entropy by manually evaluating the equation
       as given above

For convenience we print out the resulting values for sn=1 - 12:
 sn= 1  qrot/sn=  166196.4685 T*S(rot)=     8.01 kcal/mol T*S(tot)=    23.41 kcal/mol
 sn= 2  qrot/sn=   83098.2343 T*S(rot)=     7.60 kcal/mol T*S(tot)=    23.00 kcal/mol
 sn= 3  qrot/sn=   55398.8228 T*S(rot)=     7.36 kcal/mol T*S(tot)=    22.76 kcal/mol
 sn= 4  qrot/sn=   41549.1171 T*S(rot)=     7.19 kcal/mol T*S(tot)=    22.59 kcal/mol
 sn= 5  qrot/sn=   33239.2937 T*S(rot)=     7.06 kcal/mol T*S(tot)=    22.45 kcal/mol
 sn= 6  qrot/sn=   27699.4114 T*S(rot)=     6.95 kcal/mol T*S(tot)=    22.35 kcal/mol
 sn= 7  qrot/sn=   23742.3526 T*S(rot)=     6.86 kcal/mol T*S(tot)=    22.26 kcal/mol
 sn= 8  qrot/sn=   20774.5586 T*S(rot)=     6.78 kcal/mol T*S(tot)=    22.18 kcal/mol
 sn= 9  qrot/sn=   18466.2743 T*S(rot)=     6.71 kcal/mol T*S(tot)=    22.11 kcal/mol
 sn=10  qrot/sn=   16619.6469 T*S(rot)=     6.65 kcal/mol T*S(tot)=    22.04 kcal/mol
 sn=11  qrot/sn=   15108.7699 T*S(rot)=     6.59 kcal/mol T*S(tot)=    21.99 kcal/mol
 sn=12  qrot/sn=   13849.7057 T*S(rot)=     6.54 kcal/mol T*S(tot)=    21.94 kcal/mol

-------------------
GIBBS FREE ENTHALPY
-------------------

The Gibbs free enthalpy is G = H - T*S

Total enthalpy                    ...   -325.83984310 Eh
Total entropy correction          ...     -0.03626661 Eh    -22.76 kcal/mol
-----------------------------------------------------------------------
Final Gibbs free enthalpy         ...   -325.87610972 Eh

For completeness - the Gibbs free enthalpy minus the electronic energy
G-E(el)                           ...      0.12501275 Eh     78.45 kcal/mol

                             ****ORCA TERMINATED NORMALLY****
TOTAL RUN TIME: 0 days 0 hours 36 minutes 36 seconds 95 msec
