                         Program Version 3.0.3 - RELEASE   -
|  1> ! NORI PBE0 def2-TZVP UseSym TightOPT Freq TightSCF Grid3 FinalGrid5 XYZFile
|  2> % pal
|  3>     nprocs 8
|  4> end
|  5> %method
|  6>     SymThresh 5.0e-2
|  7> end
|  8> % geom
|  9>     MaxIter 10
| 10> end
| 11> % maxcore 2000
| 12> % output
| 13>     printlevel mini
| 14>     print[ P_Basis ] 0
| 15>     print[ P_SCFInfo ] 1
| 16>     print[ P_SCFIterInfo ] 1
| 17>     print[ P_OrbEn ] 0
| 18>     print[ P_Cartesian ] 0
| 19> end
| 20> % elprop
| 21>     Dipole false
| 22> end
| 23> *xyz 1 1
| 24>  O        1.6490160083     0.2580371789     1.1364669213
| 25>  C        2.4308240973    -0.0094901158     0.2837782969
| 26>  C        2.6894176086    -1.3454425465    -0.3913922574
| 27>  C        4.0873101855    -1.2493575957    -1.0130861203
| 28>  C        4.4143259400     0.2251922345    -1.0771173293
| 29>  N        3.3782435611     1.0358697102    -1.7742950682
| 30>  C        3.4362399990     0.9946543317    -0.2863679830
| 31>  H        2.5955952262    -2.1450174829     0.3437333938
| 32>  H        1.9005186696    -1.5298014595    -1.1295066021
| 33>  H        4.8350369943    -1.7081820613    -0.3625303631
| 34>  H        4.1767884938    -1.7293758721    -1.9887982729
| 35>  H        5.4244267729     0.5731422696    -1.2537020374
| 36>  H        2.6141263334     0.5650464962    -2.2516317488
| 37>  H        3.6686359484     1.9010230257    -2.2189483953
| 38>  H        3.6164441617     1.9440218869     0.2005875658
| 39> *
| 40>
| 41>                          ****END OF INPUT****
 Total Charge           Charge          ....    1
 Multiplicity           Mult            ....    1
 Number of Electrons    NEL             ....   52
FINAL SINGLE POINT ENERGY      -324.779540654276

CARTESIAN COORDINATES (ANGSTROEM)
---------------------------------
  O      0.000260    0.000640    2.197325
  C     -0.105263    0.075463    1.017025
  C     -1.026153    0.959565    0.193751
  C     -1.117578    0.311908   -1.192548
  C      0.053469   -0.639597   -1.286357
  N      1.366800   -0.000220   -0.996854
  C      0.671862   -0.812317    0.040953
  H     -1.989312    1.044537    0.697125
  H     -0.615836    1.975445    0.169399
  H     -2.021604   -0.294589   -1.279745
  H     -1.131056    1.024026   -2.019097
  H      0.104580   -1.398921   -2.056767
  H      1.416448    1.008685   -0.882989
  H      2.197808   -0.407125   -1.414601
  H      1.207249   -1.687494    0.385362

FINAL SINGLE POINT ENERGY      -324.779541118583
                    ***********************HURRAY********************
 Multiplicity           Mult            ....    1
 Number of Electrons    NEL             ....   52
 Basis Dimension        Dim             ....  265
FINAL SINGLE POINT ENERGY      -324.779541323186

VIBRATIONAL FREQUENCIES
-----------------------

   0:         0.00 cm**-1
   1:         0.00 cm**-1
   2:         0.00 cm**-1
   3:         0.00 cm**-1
   4:         0.00 cm**-1
   5:         0.00 cm**-1
   6:       107.30 cm**-1
   7:       234.15 cm**-1
   8:       353.80 cm**-1
   9:       443.64 cm**-1
  10:       523.27 cm**-1
  11:       615.82 cm**-1
  12:       653.94 cm**-1
  13:       756.74 cm**-1
  14:       798.17 cm**-1
  15:       828.54 cm**-1
  16:       863.51 cm**-1
  17:       910.62 cm**-1
  18:       940.86 cm**-1
  19:       974.69 cm**-1
  20:      1011.10 cm**-1
  21:      1035.02 cm**-1
  22:      1043.70 cm**-1
  23:      1107.40 cm**-1
  24:      1145.19 cm**-1
  25:      1163.71 cm**-1
  26:      1188.42 cm**-1
  27:      1242.51 cm**-1
  28:      1268.22 cm**-1
  29:      1290.57 cm**-1
  30:      1321.24 cm**-1
  31:      1359.20 cm**-1
  32:      1386.62 cm**-1
  33:      1447.86 cm**-1
  34:      1481.79 cm**-1
  35:      1628.21 cm**-1
  36:      1900.63 cm**-1
  37:      3065.95 cm**-1
  38:      3094.23 cm**-1
  39:      3137.42 cm**-1
  40:      3146.53 cm**-1
  41:      3221.71 cm**-1
  42:      3236.46 cm**-1
  43:      3490.39 cm**-1
  44:      3594.86 cm**-1

IR SPECTRUM
-----------

 Mode    freq (cm**-1)   T**2         TX         TY         TZ
-------------------------------------------------------------------
   6:       107.30    5.273280  ( -1.438874  -1.558053   0.880563)
   7:       234.15    4.176947  (  0.906017  -0.038226  -1.831562)
   8:       353.80    2.724693  ( -1.314745   0.944144  -0.323620)
   9:       443.64    7.352333  (  1.801085  -1.672805  -1.144618)
  10:       523.27    2.245456  ( -0.713449   0.822194  -1.029778)
  11:       615.82    1.090819  (  0.978169   0.006277  -0.366011)
  12:       653.94    2.977599  (  0.728964   0.075870  -1.562195)
  13:       756.74    5.780017  ( -1.991864   0.358308   1.297733)
  14:       798.17    8.003011  (  1.477187  -1.235472  -2.072327)
  15:       828.54    7.554033  (  1.553832   1.641667  -1.563511)
  16:       863.51   20.160170  (  3.305427   2.788867  -1.206873)
  17:       910.62    2.859387  (  1.445128  -0.460432   0.747659)
  18:       940.86    4.280750  ( -1.267588   1.260875  -1.041232)
  19:       974.69   23.015557  ( -3.458718   2.297632  -2.402855)
  20:      1011.10   24.533422  (  4.138246  -2.639296   0.665174)
  21:      1035.02   48.705622  (  2.115943   0.176291   6.648107)
  22:      1043.70   11.879908  ( -1.853719  -0.363789  -2.882931)
  23:      1107.40    6.520109  ( -1.604261   1.849551  -0.724995)
  24:      1145.19   13.288260  ( -2.240742   2.738424   0.876567)
  25:      1163.71   30.252284  (  3.666937  -3.513748  -2.111737)
  26:      1188.42    1.614939  (  0.042993   1.230492   0.314611)
  27:      1242.51    2.852478  (  1.561800   0.082907   0.637483)
  28:      1268.22    4.567031  ( -0.036936  -2.099352  -0.397978)
  29:      1290.57    6.687432  (  1.699964  -1.730708   0.895659)
  30:      1321.24    4.211311  (  0.755562  -0.771690  -1.744973)
  31:      1359.20    9.287179  (  0.241028   0.736500   2.947313)
  32:      1386.62    1.429108  ( -1.066978  -0.307265  -0.443005)
  33:      1447.86   19.261950  ( -2.041188   3.829344   0.656983)
  34:      1481.79   15.117638  ( -3.148408   1.282522  -1.886877)
  35:      1628.21   77.189976  ( -6.928199  -4.938100   2.192079)
  36:      1900.63  211.460814  (  1.390106  -1.183954  14.426596)
  37:      3065.95    4.925445  ( -1.808380   0.890579  -0.928479)
  38:      3094.23    1.169406  ( -0.569711   0.186542   0.900021)
  39:      3137.42    1.146041  ( -0.877982   0.248384   0.559905)
  40:      3146.53    5.375331  ( -2.288634   0.265617   0.258719)
  41:      3221.71    3.940178  (  0.941020   0.555674   1.657071)
  42:      3236.46   11.449646  (  1.374875  -3.039083   0.568631)
  43:      3490.39   95.930078  ( -8.155310  -4.601307   2.872102)
  44:      3594.86  140.849237  ( -7.329286   8.144005   4.561359)

--------------------------
THERMOCHEMISTRY AT 298.15K
--------------------------

Temperature         ... 298.15 K
Pressure            ... 1.00 atm
Total Mass          ... 98.12 AMU

Throughout the following assumptions are being made:
  (1) The electronic state is orbitally nondegenerate
  (2) There are no thermally accessible electronically excited states
  (3) Hindered rotations indicated by low frequency modes) are not
      treated as such but are treated as vibrations and this may
      case some error
  (4) All equations used are the standard statistical mechanics
      equations for an ideal gas
  (5) All vibrations are strinctly harmonic

------------
INNER ENERGY
------------

The inner energy is: U= E(el) + E(ZPE) + E(vib) + E(rot) + E(trans)
    E(el)   - is the total energy from the electronic structure calculation
              = E(kin-el) + E(nuc-el) + E(el-el) + E(nuc-nuc)
    E(ZPE)  - the the zero temperature vibrational energy from the frequency calculation
    E(vib)  - the the finite temperature correction to E(ZPE) due to population
              of excietd vibrational states
    E(rot)  - is the rotational thermal energy
    E(trans)- is the translational thermal energy

Summary of contributions to the inner energy U:
Electronic energy                ...   -324.77954132 Eh
Zero point energy                ...      0.12988744 Eh      81.51 kcal/mol
Thermal vibrational correction   ...      0.00305109 Eh       1.91 kcal/mol
Thermal rotational correction    ...      0.00141627 Eh       0.89 kcal/mol
Thermal translational correction ...      0.00141627 Eh       0.89 kcal/mol
-----------------------------------------------------------------------
Total thermal energy                   -324.64377026 Eh

Summary of corrections to the electronic energy:
(perhaps to be used in another calculation)
Total thermal correction                  0.00588363 Eh       3.69 kcal/mol
Non-thermal (ZPE) correction              0.12988744 Eh      81.51 kcal/mol
-----------------------------------------------------------------------
Total correction                          0.13577107 Eh      85.20 kcal/mol

--------
ENTHALPY
--------

The enthalpy is H = U + kB*T
                kB is Boltzmann's constant
Total free energy                 ...   -324.64377026 Eh
Thermal Enthalpy correction       ...      0.00094421 Eh       0.59 kcal/mol
-----------------------------------------------------------------------
Total Enthalpy                    ...   -324.64282605 Eh

-------
ENTROPY
-------

The entropy contributions are T*S = T*(S(el)+S(vib)+S(rot)+S(trans)
     S(el)   - electronic entropy
     S(vib)  - vibrational entropy
     S(rot)  - rotational entropy
     S(trans)- translational entropy
The entropies will be listed as mutliplied by the temperature to get
units of energy

Electronic entropy                ...      0.00000000 Eh      0.00 kcal/mol
Vibrational entropy               ...      0.00490618 Eh      3.08 kcal/mol
Rotational entropy                ...      0.01175372 Eh      7.38 kcal/mol
Translational entropy             ...      0.01884443 Eh     11.83 kcal/mol
-----------------------------------------------------------------------
Final entropy term                ...      0.03550433 Eh     22.28 kcal/mol

CAUTION: The rotational entropy is not quite correctly treated here
         because it includes a symmetry number that is not yet correctly
         implemented in ORCA!
For a nonlinear molecule the correct rotational entropy is:
    S(rot) = R*(ln(qrot/sn)+1.5)
    R    = 8.31441 J/mol/K = 1.987191683e-3 kcal/mol/K
    qrot = 170620.2369867
    sn is the rotational symmetry number. We have assumed 3 here
       if it is different for your molecule then you should correct
       the printed rotational entropy by manually evaluating the equation
       as given above

For convenience we print out the resulting values for sn=1 - 12:
 sn= 1  qrot/sn=  170620.2370 T*S(rot)=     8.03 kcal/mol T*S(tot)=    22.93 kcal/mol
 sn= 2  qrot/sn=   85310.1185 T*S(rot)=     7.62 kcal/mol T*S(tot)=    22.52 kcal/mol
 sn= 3  qrot/sn=   56873.4123 T*S(rot)=     7.38 kcal/mol T*S(tot)=    22.28 kcal/mol
 sn= 4  qrot/sn=   42655.0592 T*S(rot)=     7.21 kcal/mol T*S(tot)=    22.11 kcal/mol
 sn= 5  qrot/sn=   34124.0474 T*S(rot)=     7.07 kcal/mol T*S(tot)=    21.98 kcal/mol
 sn= 6  qrot/sn=   28436.7062 T*S(rot)=     6.96 kcal/mol T*S(tot)=    21.87 kcal/mol
 sn= 7  qrot/sn=   24374.3196 T*S(rot)=     6.87 kcal/mol T*S(tot)=    21.78 kcal/mol
 sn= 8  qrot/sn=   21327.5296 T*S(rot)=     6.79 kcal/mol T*S(tot)=    21.70 kcal/mol
 sn= 9  qrot/sn=   18957.8041 T*S(rot)=     6.72 kcal/mol T*S(tot)=    21.63 kcal/mol
 sn=10  qrot/sn=   17062.0237 T*S(rot)=     6.66 kcal/mol T*S(tot)=    21.57 kcal/mol
 sn=11  qrot/sn=   15510.9306 T*S(rot)=     6.61 kcal/mol T*S(tot)=    21.51 kcal/mol
 sn=12  qrot/sn=   14218.3531 T*S(rot)=     6.55 kcal/mol T*S(tot)=    21.46 kcal/mol

-------------------
GIBBS FREE ENTHALPY
-------------------

The Gibbs free enthalpy is G = H - T*S

Total enthalpy                    ...   -324.64282605 Eh
Total entropy correction          ...     -0.03550433 Eh    -22.28 kcal/mol
-----------------------------------------------------------------------
Final Gibbs free enthalpy         ...   -324.67833038 Eh

For completeness - the Gibbs free enthalpy minus the electronic energy
G-E(el)                           ...      0.10121095 Eh     63.51 kcal/mol

                             ****ORCA TERMINATED NORMALLY****
TOTAL RUN TIME: 0 days 0 hours 31 minutes 10 seconds 538 msec
