                         Program Version 3.0.3 - RELEASE   -
|  1> ! NORI PBE0 def2-TZVP UseSym TightOPT Freq TightSCF Grid3 FinalGrid5 XYZFile
|  2> % pal
|  3>     nprocs 8
|  4> end
|  5> %method
|  6>     SymThresh 5.0e-2
|  7> end
|  8> % geom
|  9>     MaxIter 10
| 10> end
| 11> % maxcore 2000
| 12> % output
| 13>     printlevel mini
| 14>     print[ P_Basis ] 0
| 15>     print[ P_SCFInfo ] 1
| 16>     print[ P_SCFIterInfo ] 1
| 17>     print[ P_OrbEn ] 0
| 18>     print[ P_Cartesian ] 0
| 19> end
| 20> % elprop
| 21>     Dipole false
| 22> end
| 23> *xyz 1 1
| 24>  O        1.1100057910    -0.2019088398    -0.0085339080
| 25>  C        2.2748662850     0.0360033240    -0.0433508979
| 26>  C        2.9897354222     1.3211774622     0.1673022157
| 27>  C        4.3013736379     1.1665005063    -0.0223180262
| 28>  C        4.6346727618    -0.2511312724    -0.3655708863
| 29>  N        4.3261803926    -1.1838414832     0.7695590598
| 30>  C        3.3735366024    -0.9983169196    -0.3589856666
| 31>  H        2.4751166665     2.2290808379     0.4515191562
| 32>  H        5.0654070297     1.9279493873     0.0646158794
| 33>  H        5.5042086926    -0.5259322211    -0.9488353682
| 34>  H        4.0998355028    -0.7694042083     1.6717126128
| 35>  H        4.8164592205    -2.0734651806     0.8231442601
| 36>  H        3.1596019950    -1.8850613927    -0.9406684310
| 37> *
| 38>
| 39>                          ****END OF INPUT****
 Total Charge           Charge          ....    1
 Multiplicity           Mult            ....    1
 Number of Electrons    NEL             ....   50
FINAL SINGLE POINT ENERGY      -323.545285974261

CARTESIAN COORDINATES (ANGSTROEM)
---------------------------------
  O     -0.000197    0.000031    2.170439
  C     -0.170754    0.026426    0.993655
  C     -1.138698    0.816760    0.190462
  C     -1.042742    0.503905   -1.103070
  C      0.018952   -0.524857   -1.333304
  N      1.383405    0.000076   -0.992068
  C      0.609325   -0.826921   -0.026182
  H     -1.799754    1.547298    0.636859
  H     -1.620289    0.920924   -1.917544
  H     -0.001075   -1.213645   -2.168074
  H      1.473841    0.998855   -0.815958
  H      2.198277   -0.429296   -1.423884
  H      1.068359   -1.763897    0.260082

FINAL SINGLE POINT ENERGY      -323.545286285060
                    ***********************HURRAY********************
 Multiplicity           Mult            ....    1
 Number of Electrons    NEL             ....   50
 Basis Dimension        Dim             ....  253
FINAL SINGLE POINT ENERGY      -323.545286421825

VIBRATIONAL FREQUENCIES
-----------------------

   0:         0.00 cm**-1
   1:         0.00 cm**-1
   2:         0.00 cm**-1
   3:         0.00 cm**-1
   4:         0.00 cm**-1
   5:         0.00 cm**-1
   6:       160.75 cm**-1
   7:       300.95 cm**-1
   8:       423.20 cm**-1
   9:       453.43 cm**-1
  10:       617.36 cm**-1
  11:       718.21 cm**-1
  12:       744.52 cm**-1
  13:       766.25 cm**-1
  14:       817.36 cm**-1
  15:       853.72 cm**-1
  16:       874.01 cm**-1
  17:       943.21 cm**-1
  18:       985.85 cm**-1
  19:      1010.74 cm**-1
  20:      1018.02 cm**-1
  21:      1048.16 cm**-1
  22:      1087.85 cm**-1
  23:      1117.33 cm**-1
  24:      1148.95 cm**-1
  25:      1173.16 cm**-1
  26:      1262.64 cm**-1
  27:      1322.70 cm**-1
  28:      1363.83 cm**-1
  29:      1376.15 cm**-1
  30:      1611.92 cm**-1
  31:      1655.44 cm**-1
  32:      1880.11 cm**-1
  33:      3228.85 cm**-1
  34:      3238.92 cm**-1
  35:      3241.03 cm**-1
  36:      3258.50 cm**-1
  37:      3463.68 cm**-1
  38:      3574.31 cm**-1

IR SPECTRUM
-----------

 Mode    freq (cm**-1)   T**2         TX         TY         TZ
-------------------------------------------------------------------
   6:       160.75    5.090078  (  1.248626   1.301064  -1.355818)
   7:       300.95    3.170039  (  0.895611  -1.035476  -1.138292)
   8:       423.20    2.452920  ( -0.446414  -0.306782   1.469530)
   9:       453.43    6.092426  ( -1.727073   1.761917   0.072750)
  10:       617.36    1.788271  (  0.906803  -0.146262   0.971899)
  11:       718.21    3.359758  ( -0.159971  -1.824158   0.081326)
  12:       744.52    4.811280  (  1.304664   1.760642   0.096279)
  13:       766.25    2.118757  (  1.302817   0.009917   0.649096)
  14:       817.36   25.902584  ( -4.395063   0.682117   2.474009)
  15:       853.72   53.544425  ( -4.702626  -5.366307   1.622494)
  16:       874.01    1.968485  (  1.159543   0.768714   0.181721)
  17:       943.21    8.967749  (  2.224704   1.350154   1.481731)
  18:       985.85    3.817495  (  0.787185   0.358705  -1.751903)
  19:      1010.74   41.470845  ( -4.622296   1.515693  -4.219940)
  20:      1018.02    7.335447  ( -2.023517   0.489919  -1.732283)
  21:      1048.16   46.048259  (  1.784631  -1.082449   6.456908)
  22:      1087.85    9.351141  ( -0.741471   2.860103   0.788146)
  23:      1117.33    1.658860  (  0.905602  -0.556227  -0.727569)
  24:      1148.95    9.781931  ( -2.564298   1.780828  -0.186974)
  25:      1173.16   16.392239  ( -2.622428   3.040388   0.520720)
  26:      1262.64    6.226655  (  0.001051   2.406176   0.661036)
  27:      1322.70    4.596209  (  1.582013  -0.787562  -1.213751)
  28:      1363.83   31.619878  (  1.001468   0.334073   5.523164)
  29:      1376.15   10.151078  ( -0.129459   0.076362   3.182528)
  30:      1611.92   71.362426  ( -7.125682  -4.383955   1.169624)
  31:      1655.44   12.802357  (  0.541371   2.700053  -2.284511)
  32:      1880.11  231.657443  ( -1.466814   0.555565 -15.139262)
  33:      3228.85    3.439886  ( -0.994439  -0.504751  -1.481959)
  34:      3238.92   11.947082  (  0.998842  -1.621102   2.884688)
  35:      3241.03   19.212676  ( -1.358852   3.779747   1.754910)
  36:      3258.50   12.768986  ( -2.737031   2.283061  -0.255505)
  37:      3463.68   96.394736  (  8.035456   4.684113  -3.144086)
  38:      3574.31  128.751989  ( -5.854256   8.523701   4.671851)

--------------------------
THERMOCHEMISTRY AT 298.15K
--------------------------

Temperature         ... 298.15 K
Pressure            ... 1.00 atm
Total Mass          ... 96.11 AMU

Throughout the following assumptions are being made:
  (1) The electronic state is orbitally nondegenerate
  (2) There are no thermally accessible electronically excited states
  (3) Hindered rotations indicated by low frequency modes) are not
      treated as such but are treated as vibrations and this may
      case some error
  (4) All equations used are the standard statistical mechanics
      equations for an ideal gas
  (5) All vibrations are strinctly harmonic

------------
INNER ENERGY
------------

The inner energy is: U= E(el) + E(ZPE) + E(vib) + E(rot) + E(trans)
    E(el)   - is the total energy from the electronic structure calculation
              = E(kin-el) + E(nuc-el) + E(el-el) + E(nuc-nuc)
    E(ZPE)  - the the zero temperature vibrational energy from the frequency calculation
    E(vib)  - the the finite temperature correction to E(ZPE) due to population
              of excietd vibrational states
    E(rot)  - is the rotational thermal energy
    E(trans)- is the translational thermal energy

Summary of contributions to the inner energy U:
Electronic energy                ...   -323.54528642 Eh
Zero point energy                ...      0.10648408 Eh      66.82 kcal/mol
Thermal vibrational correction   ...      0.00255093 Eh       1.60 kcal/mol
Thermal rotational correction    ...      0.00141627 Eh       0.89 kcal/mol
Thermal translational correction ...      0.00141627 Eh       0.89 kcal/mol
-----------------------------------------------------------------------
Total thermal energy                   -323.43341886 Eh

Summary of corrections to the electronic energy:
(perhaps to be used in another calculation)
Total thermal correction                  0.00538348 Eh       3.38 kcal/mol
Non-thermal (ZPE) correction              0.10648408 Eh      66.82 kcal/mol
-----------------------------------------------------------------------
Total correction                          0.11186756 Eh      70.20 kcal/mol

--------
ENTHALPY
--------

The enthalpy is H = U + kB*T
                kB is Boltzmann's constant
Total free energy                 ...   -323.43341886 Eh
Thermal Enthalpy correction       ...      0.00094421 Eh       0.59 kcal/mol
-----------------------------------------------------------------------
Total Enthalpy                    ...   -323.43247465 Eh

-------
ENTROPY
-------

The entropy contributions are T*S = T*(S(el)+S(vib)+S(rot)+S(trans)
     S(el)   - electronic entropy
     S(vib)  - vibrational entropy
     S(rot)  - rotational entropy
     S(trans)- translational entropy
The entropies will be listed as mutliplied by the temperature to get
units of energy

Electronic entropy                ...      0.00000000 Eh      0.00 kcal/mol
Vibrational entropy               ...      0.00386753 Eh      2.43 kcal/mol
Rotational entropy                ...      0.01166647 Eh      7.32 kcal/mol
Translational entropy             ...      0.01881503 Eh     11.81 kcal/mol
-----------------------------------------------------------------------
Final entropy term                ...      0.03434904 Eh     21.55 kcal/mol

CAUTION: The rotational entropy is not quite correctly treated here
         because it includes a symmetry number that is not yet correctly
         implemented in ORCA!
For a nonlinear molecule the correct rotational entropy is:
    S(rot) = R*(ln(qrot/sn)+1.5)
    R    = 8.31441 J/mol/K = 1.987191683e-3 kcal/mol/K
    qrot = 155561.1361179
    sn is the rotational symmetry number. We have assumed 3 here
       if it is different for your molecule then you should correct
       the printed rotational entropy by manually evaluating the equation
       as given above

For convenience we print out the resulting values for sn=1 - 12:
 sn= 1  qrot/sn=  155561.1361 T*S(rot)=     7.97 kcal/mol T*S(tot)=    22.21 kcal/mol
 sn= 2  qrot/sn=   77780.5681 T*S(rot)=     7.56 kcal/mol T*S(tot)=    21.79 kcal/mol
 sn= 3  qrot/sn=   51853.7120 T*S(rot)=     7.32 kcal/mol T*S(tot)=    21.55 kcal/mol
 sn= 4  qrot/sn=   38890.2840 T*S(rot)=     7.15 kcal/mol T*S(tot)=    21.38 kcal/mol
 sn= 5  qrot/sn=   31112.2272 T*S(rot)=     7.02 kcal/mol T*S(tot)=    21.25 kcal/mol
 sn= 6  qrot/sn=   25926.8560 T*S(rot)=     6.91 kcal/mol T*S(tot)=    21.14 kcal/mol
 sn= 7  qrot/sn=   22223.0194 T*S(rot)=     6.82 kcal/mol T*S(tot)=    21.05 kcal/mol
 sn= 8  qrot/sn=   19445.1420 T*S(rot)=     6.74 kcal/mol T*S(tot)=    20.97 kcal/mol
 sn= 9  qrot/sn=   17284.5707 T*S(rot)=     6.67 kcal/mol T*S(tot)=    20.90 kcal/mol
 sn=10  qrot/sn=   15556.1136 T*S(rot)=     6.61 kcal/mol T*S(tot)=    20.84 kcal/mol
 sn=11  qrot/sn=   14141.9215 T*S(rot)=     6.55 kcal/mol T*S(tot)=    20.78 kcal/mol
 sn=12  qrot/sn=   12963.4280 T*S(rot)=     6.50 kcal/mol T*S(tot)=    20.73 kcal/mol

-------------------
GIBBS FREE ENTHALPY
-------------------

The Gibbs free enthalpy is G = H - T*S

Total enthalpy                    ...   -323.43247465 Eh
Total entropy correction          ...     -0.03434904 Eh    -21.55 kcal/mol
-----------------------------------------------------------------------
Final Gibbs free enthalpy         ...   -323.46682369 Eh

For completeness - the Gibbs free enthalpy minus the electronic energy
G-E(el)                           ...      0.07846273 Eh     49.24 kcal/mol

                             ****ORCA TERMINATED NORMALLY****
TOTAL RUN TIME: 0 days 0 hours 26 minutes 6 seconds 542 msec
