                         Program Version 3.0.3 - RELEASE   -
|  1> ! NORI PBE0 def2-TZVP UseSym TightOPT Freq TightSCF Grid3 FinalGrid5 XYZFile
|  2> % pal
|  3>     nprocs 8
|  4> end
|  5> %method
|  6>     SymThresh 5.0e-2
|  7> end
|  8> % geom
|  9>     MaxIter 10
| 10> end
| 11> % maxcore 2000
| 12> % output
| 13>     printlevel mini
| 14>     print[ P_Basis ] 0
| 15>     print[ P_SCFInfo ] 1
| 16>     print[ P_SCFIterInfo ] 1
| 17>     print[ P_OrbEn ] 0
| 18>     print[ P_Cartesian ] 0
| 19> end
| 20> % elprop
| 21>     Dipole false
| 22> end
| 23> *xyz 1 1
| 24>  O        1.1139810715    -0.3519189911     0.2028257123
| 25>  C        2.4436579858     0.0564810522     0.0017303314
| 26>  C        2.7961778425     1.3272371013     0.7465114176
| 27>  C        3.7129630151     1.1323885495     1.6892135252
| 28>  C        4.1179387053    -0.2984427694     1.7121861395
| 29>  N        2.9622454017    -1.1970346413     2.0800071301
| 30>  C        3.3426814511    -0.9780687602     0.6644255344
| 31>  H        0.5187464514     0.1241933255    -0.3843844978
| 32>  H        2.6956322573     0.1222738763    -1.0633941607
| 33>  H        2.2954386535     2.2654282393     0.5424727196
| 34>  H        4.1164253685     1.8668302577     2.3729027162
| 35>  H        5.0772901047    -0.6474725397     2.0704390512
| 36>  H        3.1500506235    -2.1099746008     2.4812659746
| 37>  H        2.0937470400    -0.7592068087     2.3825245253
| 38>  H        3.6704840283    -1.8661532907     0.1417438810
| 39> *
| 40>
| 41>                          ****END OF INPUT****
 Total Charge           Charge          ....    1
 Multiplicity           Mult            ....    1
 Number of Electrons    NEL             ....   52
FINAL SINGLE POINT ENERGY      -324.767138114362

CARTESIAN COORDINATES (ANGSTROEM)
---------------------------------
  O     -0.000919   -0.000330    1.937873
  C     -0.656045   -0.424193    0.768875
  C     -1.246836    0.718085   -0.031135
  C     -0.671213    0.863292   -1.220611
  C      0.388063   -0.165406   -1.398487
  N      1.498378    0.000314   -0.389420
  C      0.404916   -0.976806   -0.172895
  H     -0.631555    0.135575    2.651834
  H     -1.396216   -1.206273    0.974691
  H     -2.018122    1.360385    0.375519
  H     -0.891194    1.613281   -1.968030
  H      0.720709   -0.527447   -2.362529
  H      2.420977   -0.366029   -0.600489
  H      1.484253    0.827005    0.205591
  H      0.723222   -2.009311   -0.128965

FINAL SINGLE POINT ENERGY      -324.767138683399
                    ***********************HURRAY********************
 Multiplicity           Mult            ....    1
 Number of Electrons    NEL             ....   52
 Basis Dimension        Dim             ....  265
FINAL SINGLE POINT ENERGY      -324.767138971087

VIBRATIONAL FREQUENCIES
-----------------------

   0:         0.00 cm**-1
   1:         0.00 cm**-1
   2:         0.00 cm**-1
   3:         0.00 cm**-1
   4:         0.00 cm**-1
   5:         0.00 cm**-1
   6:       142.05 cm**-1
   7:       231.12 cm**-1
   8:       273.85 cm**-1
   9:       409.81 cm**-1
  10:       486.05 cm**-1
  11:       585.35 cm**-1
  12:       696.29 cm**-1
  13:       743.39 cm**-1
  14:       777.14 cm**-1
  15:       824.77 cm**-1
  16:       857.58 cm**-1
  17:       919.70 cm**-1
  18:       945.03 cm**-1
  19:       974.77 cm**-1
  20:      1000.27 cm**-1
  21:      1011.70 cm**-1
  22:      1014.37 cm**-1
  23:      1062.94 cm**-1
  24:      1098.28 cm**-1
  25:      1122.13 cm**-1
  26:      1142.24 cm**-1
  27:      1164.79 cm**-1
  28:      1220.58 cm**-1
  29:      1270.13 cm**-1
  30:      1308.78 cm**-1
  31:      1332.55 cm**-1
  32:      1376.65 cm**-1
  33:      1399.57 cm**-1
  34:      1427.18 cm**-1
  35:      1611.77 cm**-1
  36:      1682.41 cm**-1
  37:      3059.78 cm**-1
  38:      3227.11 cm**-1
  39:      3231.09 cm**-1
  40:      3240.18 cm**-1
  41:      3252.10 cm**-1
  42:      3470.31 cm**-1
  43:      3594.13 cm**-1
  44:      3856.21 cm**-1

IR SPECTRUM
-----------

 Mode    freq (cm**-1)   T**2         TX         TY         TZ
-------------------------------------------------------------------
   6:       142.05    5.811002  (  0.137182  -0.596287  -2.331657)
   7:       231.12  134.180980  (  1.058555 -10.751720   4.178631)
   8:       273.85   14.275978  (  1.151437   1.147733  -3.410701)
   9:       409.81    1.431309  ( -0.299007  -0.734751  -0.895569)
  10:       486.05    2.266863  ( -0.684907  -0.980643  -0.914387)
  11:       585.35    6.822960  ( -0.487382   0.044414  -2.565823)
  12:       696.29    5.618756  (  1.868199   0.137679   1.452458)
  13:       743.39    5.105503  (  0.519099  -0.976031  -1.970635)
  14:       777.14   37.317931  (  4.627131   3.320238   2.209890)
  15:       824.77    4.649000  (  1.580213  -1.445419   0.250378)
  16:       857.58   35.449680  (  5.283725   2.741382   0.129454)
  17:       919.70    1.847650  (  0.359742  -0.367528  -1.258237)
  18:       945.03    4.632687  ( -1.679452  -0.788537  -1.091027)
  19:       974.77    7.417444  (  1.439059  -1.689649  -1.578492)
  20:      1000.27   35.033364  ( -1.835168  -4.785494   2.960502)
  21:      1011.70   53.256327  ( -1.237926   2.652657  -6.684854)
  22:      1014.37   24.352487  ( -1.369946  -2.103322   4.248738)
  23:      1062.94   19.919149  ( -1.013186  -3.339059  -2.782676)
  24:      1098.28   20.157984  ( -0.442454   1.511882   4.204335)
  25:      1122.13   17.724988  ( -1.720025  -0.315837  -3.829719)
  26:      1142.24   42.066903  (  3.089153   1.034871   5.608305)
  27:      1164.79   16.902009  ( -1.993301  -0.339069  -3.579636)
  28:      1220.58   52.375347  (  3.567182   1.580529   6.095284)
  29:      1270.13    6.195121  ( -1.576467   1.908781  -0.257736)
  30:      1308.78    4.134588  ( -0.060909  -0.133934   2.028038)
  31:      1332.55    5.054038  (  0.842649  -0.389946  -2.047419)
  32:      1376.65   23.834491  (  0.511384  -0.306436  -4.845521)
  33:      1399.57    2.721103  (  1.466734   0.498263   0.567035)
  34:      1427.18   19.480762  ( -2.903573  -2.278402   2.420519)
  35:      1611.77   78.581352  (  7.479199   4.022436   2.542232)
  36:      1682.41    3.615812  (  0.097805  -1.536147  -1.116467)
  37:      3059.78    4.266713  ( -1.076669  -1.585240  -0.771045)
  38:      3227.11    1.040661  (  0.911855  -0.412955  -0.196592)
  39:      3231.09    3.091531  ( -0.265912  -0.040092   1.737589)
  40:      3240.18    6.154822  (  0.581683  -2.382770  -0.372657)
  41:      3252.10    3.639258  ( -0.445585   1.112334  -1.484394)
  42:      3470.31   86.583046  (  7.118108   4.904687   3.443780)
  43:      3594.13  131.080827  (  8.090289  -6.431419  -4.925942)
  44:      3856.21  131.163195  ( -4.486362   1.375142  10.447236)

--------------------------
THERMOCHEMISTRY AT 298.15K
--------------------------

Temperature         ... 298.15 K
Pressure            ... 1.00 atm
Total Mass          ... 98.12 AMU

Throughout the following assumptions are being made:
  (1) The electronic state is orbitally nondegenerate
  (2) There are no thermally accessible electronically excited states
  (3) Hindered rotations indicated by low frequency modes) are not
      treated as such but are treated as vibrations and this may
      case some error
  (4) All equations used are the standard statistical mechanics
      equations for an ideal gas
  (5) All vibrations are strinctly harmonic

------------
INNER ENERGY
------------

The inner energy is: U= E(el) + E(ZPE) + E(vib) + E(rot) + E(trans)
    E(el)   - is the total energy from the electronic structure calculation
              = E(kin-el) + E(nuc-el) + E(el-el) + E(nuc-nuc)
    E(ZPE)  - the the zero temperature vibrational energy from the frequency calculation
    E(vib)  - the the finite temperature correction to E(ZPE) due to population
              of excietd vibrational states
    E(rot)  - is the rotational thermal energy
    E(trans)- is the translational thermal energy

Summary of contributions to the inner energy U:
Electronic energy                ...   -324.76713897 Eh
Zero point energy                ...      0.12995608 Eh      81.55 kcal/mol
Thermal vibrational correction   ...      0.00319495 Eh       2.00 kcal/mol
Thermal rotational correction    ...      0.00141627 Eh       0.89 kcal/mol
Thermal translational correction ...      0.00141627 Eh       0.89 kcal/mol
-----------------------------------------------------------------------
Total thermal energy                   -324.63115540 Eh

Summary of corrections to the electronic energy:
(perhaps to be used in another calculation)
Total thermal correction                  0.00602750 Eh       3.78 kcal/mol
Non-thermal (ZPE) correction              0.12995608 Eh      81.55 kcal/mol
-----------------------------------------------------------------------
Total correction                          0.13598357 Eh      85.33 kcal/mol

--------
ENTHALPY
--------

The enthalpy is H = U + kB*T
                kB is Boltzmann's constant
Total free energy                 ...   -324.63115540 Eh
Thermal Enthalpy correction       ...      0.00094421 Eh       0.59 kcal/mol
-----------------------------------------------------------------------
Total Enthalpy                    ...   -324.63021119 Eh

-------
ENTROPY
-------

The entropy contributions are T*S = T*(S(el)+S(vib)+S(rot)+S(trans)
     S(el)   - electronic entropy
     S(vib)  - vibrational entropy
     S(rot)  - rotational entropy
     S(trans)- translational entropy
The entropies will be listed as mutliplied by the temperature to get
units of energy

Electronic entropy                ...      0.00000000 Eh      0.00 kcal/mol
Vibrational entropy               ...      0.00501875 Eh      3.15 kcal/mol
Rotational entropy                ...      0.01166923 Eh      7.32 kcal/mol
Translational entropy             ...      0.01884443 Eh     11.83 kcal/mol
-----------------------------------------------------------------------
Final entropy term                ...      0.03553242 Eh     22.30 kcal/mol

CAUTION: The rotational entropy is not quite correctly treated here
         because it includes a symmetry number that is not yet correctly
         implemented in ORCA!
For a nonlinear molecule the correct rotational entropy is:
    S(rot) = R*(ln(qrot/sn)+1.5)
    R    = 8.31441 J/mol/K = 1.987191683e-3 kcal/mol/K
    qrot = 156016.4327423
    sn is the rotational symmetry number. We have assumed 3 here
       if it is different for your molecule then you should correct
       the printed rotational entropy by manually evaluating the equation
       as given above

For convenience we print out the resulting values for sn=1 - 12:
 sn= 1  qrot/sn=  156016.4327 T*S(rot)=     7.97 kcal/mol T*S(tot)=    22.95 kcal/mol
 sn= 2  qrot/sn=   78008.2164 T*S(rot)=     7.56 kcal/mol T*S(tot)=    22.54 kcal/mol
 sn= 3  qrot/sn=   52005.4776 T*S(rot)=     7.32 kcal/mol T*S(tot)=    22.30 kcal/mol
 sn= 4  qrot/sn=   39004.1082 T*S(rot)=     7.15 kcal/mol T*S(tot)=    22.13 kcal/mol
 sn= 5  qrot/sn=   31203.2865 T*S(rot)=     7.02 kcal/mol T*S(tot)=    21.99 kcal/mol
 sn= 6  qrot/sn=   26002.7388 T*S(rot)=     6.91 kcal/mol T*S(tot)=    21.89 kcal/mol
 sn= 7  qrot/sn=   22288.0618 T*S(rot)=     6.82 kcal/mol T*S(tot)=    21.79 kcal/mol
 sn= 8  qrot/sn=   19502.0541 T*S(rot)=     6.74 kcal/mol T*S(tot)=    21.72 kcal/mol
 sn= 9  qrot/sn=   17335.1592 T*S(rot)=     6.67 kcal/mol T*S(tot)=    21.65 kcal/mol
 sn=10  qrot/sn=   15601.6433 T*S(rot)=     6.61 kcal/mol T*S(tot)=    21.58 kcal/mol
 sn=11  qrot/sn=   14183.3121 T*S(rot)=     6.55 kcal/mol T*S(tot)=    21.53 kcal/mol
 sn=12  qrot/sn=   13001.3694 T*S(rot)=     6.50 kcal/mol T*S(tot)=    21.48 kcal/mol

-------------------
GIBBS FREE ENTHALPY
-------------------

The Gibbs free enthalpy is G = H - T*S

Total enthalpy                    ...   -324.63021119 Eh
Total entropy correction          ...     -0.03553242 Eh    -22.30 kcal/mol
-----------------------------------------------------------------------
Final Gibbs free enthalpy         ...   -324.66574361 Eh

For completeness - the Gibbs free enthalpy minus the electronic energy
G-E(el)                           ...      0.10139536 Eh     63.63 kcal/mol

                             ****ORCA TERMINATED NORMALLY****
TOTAL RUN TIME: 0 days 0 hours 32 minutes 9 seconds 716 msec
