                         Program Version 3.0.3 - RELEASE   -
|  1> ! NORI PBE0 def2-TZVP UseSym TightOPT Freq TightSCF Grid3 FinalGrid5 XYZFile
|  2> % pal
|  3>     nprocs 8
|  4> end
|  5> %method
|  6>     SymThresh 5.0e-2
|  7> end
|  8> % geom
|  9>     MaxIter 10
| 10> end
| 11> % maxcore 2000
| 12> % output
| 13>     printlevel mini
| 14>     print[ P_Basis ] 0
| 15>     print[ P_SCFInfo ] 1
| 16>     print[ P_SCFIterInfo ] 1
| 17>     print[ P_OrbEn ] 0
| 18>     print[ P_Cartesian ] 0
| 19> end
| 20> % elprop
| 21>     Dipole false
| 22> end
| 23> *xyz 1 1
| 24>  O        1.1421273843     0.3124170699    -0.1603895260
| 25>  C        2.5306406513     0.0853680998    -0.0036035467
| 26>  C        2.9169917368    -1.3621112159    -0.2885472820
| 27>  C        2.5284147459    -1.7661653842    -1.7066505232
| 28>  C        3.0457348757    -0.7846450531    -2.7379515591
| 29>  N        2.6319998009     0.6094708520    -2.3633242067
| 30>  C        3.1570149801     1.0161813353    -1.0224990634
| 31>  H        0.6427622438    -0.1451088238     0.5223214790
| 32>  H        2.8748402693     0.3889895410     0.9908695703
| 33>  H        3.9955290756    -1.4758157211    -0.1358901164
| 34>  H        2.4321888845    -2.0216004223     0.4345823867
| 35>  H        2.9274262035    -2.7525635697    -1.9498433699
| 36>  H        1.4410836387    -1.8415269031    -1.7925041238
| 37>  H        4.1366150024    -0.7759138973    -2.7879284882
| 38>  H        2.6523333167    -0.9864083488    -3.7349098504
| 39>  H        1.6086592241     0.6509958806    -2.2931264839
| 40>  H        2.9228836413     1.2734456234    -3.0804572553
| 41>  H        2.8574410212     2.0493859758    -0.8468114239
| 42>  H        4.2441433041     0.9415649615    -1.0450366173
| 43> *
| 44>
| 45>                          ****END OF INPUT****
 Total Charge           Charge          ....    1
 Multiplicity           Mult            ....    1
 Number of Electrons    NEL             ....   56
FINAL SINGLE POINT ENERGY      -327.248563744026
FINAL SINGLE POINT ENERGY      -327.248565252909

CARTESIAN COORDINATES (ANGSTROEM)
---------------------------------
  O      0.000884    0.000355    1.809932
  C     -0.537349   -0.788675    0.765202
  C     -1.475276    0.005567   -0.136428
  C     -0.758478    1.196537   -0.763396
  C      0.534860    0.789379   -1.439186
  N      1.379571    0.000518   -0.481118
  C      0.688495   -1.237578   -0.004648
  H     -0.684695    0.249672    2.436573
  H     -1.039310   -1.680174    1.156269
  H     -1.868048   -0.661357   -0.911127
  H     -2.337489    0.349138    0.440063
  H     -1.392074    1.679511   -1.509499
  H     -0.545578    1.951365   -0.001428
  H      0.363653    0.140233   -2.300648
  H      1.121783    1.649903   -1.762089
  H      1.559531    0.567008    0.355560
  H      2.279073   -0.228686   -0.902899
  H      1.380686   -1.778858    0.640054
  H      0.437414   -1.843451   -0.874875

FINAL SINGLE POINT ENERGY      -327.248565790569
                    ***********************HURRAY********************
 Multiplicity           Mult            ....    1
 Number of Electrons    NEL             ....   56
 Basis Dimension        Dim             ....  289
FINAL SINGLE POINT ENERGY      -327.248565919967

VIBRATIONAL FREQUENCIES
-----------------------

   0:         0.00 cm**-1
   1:         0.00 cm**-1
   2:         0.00 cm**-1
   3:         0.00 cm**-1
   4:         0.00 cm**-1
   5:         0.00 cm**-1
   6:       169.18 cm**-1
   7:       211.70 cm**-1
   8:       286.67 cm**-1
   9:       306.32 cm**-1
  10:       380.12 cm**-1
  11:       409.92 cm**-1
  12:       487.83 cm**-1
  13:       510.47 cm**-1
  14:       684.53 cm**-1
  15:       796.67 cm**-1
  16:       814.07 cm**-1
  17:       855.72 cm**-1
  18:       885.62 cm**-1
  19:       899.23 cm**-1
  20:       965.11 cm**-1
  21:      1004.21 cm**-1
  22:      1027.49 cm**-1
  23:      1054.73 cm**-1
  24:      1059.57 cm**-1
  25:      1096.66 cm**-1
  26:      1153.32 cm**-1
  27:      1170.25 cm**-1
  28:      1184.79 cm**-1
  29:      1252.20 cm**-1
  30:      1278.70 cm**-1
  31:      1323.61 cm**-1
  32:      1333.70 cm**-1
  33:      1359.92 cm**-1
  34:      1375.87 cm**-1
  35:      1403.26 cm**-1
  36:      1408.22 cm**-1
  37:      1423.65 cm**-1
  38:      1426.83 cm**-1
  39:      1453.62 cm**-1
  40:      1476.48 cm**-1
  41:      1480.60 cm**-1
  42:      1483.84 cm**-1
  43:      1503.59 cm**-1
  44:      1628.39 cm**-1
  45:      3059.16 cm**-1
  46:      3069.86 cm**-1
  47:      3076.52 cm**-1
  48:      3089.77 cm**-1
  49:      3109.23 cm**-1
  50:      3114.04 cm**-1
  51:      3129.95 cm**-1
  52:      3150.78 cm**-1
  53:      3173.19 cm**-1
  54:      3402.00 cm**-1
  55:      3503.11 cm**-1
  56:      3860.54 cm**-1

IR SPECTRUM
-----------

 Mode    freq (cm**-1)   T**2         TX         TY         TZ
-------------------------------------------------------------------
   6:       169.18   12.132725  (  0.437614   1.199234  -3.240842)
   7:       211.70    9.021179  (  1.730540  -2.104680  -1.263619)
   8:       286.67  115.967652  (  2.110554  -8.224584   6.623401)
   9:       306.32   21.924161  ( -0.646674  -1.441207   4.407822)
  10:       380.12    7.192541  ( -2.127999   0.619342   1.510158)
  11:       409.92    2.236692  ( -0.634241   0.815629  -1.081286)
  12:       487.83    5.672758  ( -1.171382  -1.182978   1.703287)
  13:       510.47    7.272911  ( -0.360157  -2.147911  -1.590496)
  14:       684.53    2.581681  (  1.106086  -0.084575   1.162369)
  15:       796.67    1.747537  ( -0.929563  -0.042856   0.938942)
  16:       814.07    1.474443  ( -0.414586  -0.012381   1.141231)
  17:       855.72    2.664475  (  0.945815  -1.200183  -0.573993)
  18:       885.62    2.704406  (  1.361392  -0.769150  -0.509340)
  19:       899.23    9.005491  ( -2.414994  -1.780354   0.060306)
  20:       965.11   14.682400  ( -1.481432   2.893638   2.028452)
  21:      1004.21   36.730170  (  1.918338   0.435881   5.732378)
  22:      1027.49   39.925849  (  1.137108   3.901429   4.838563)
  23:      1054.73    4.485626  (  0.429050   2.063223   0.211317)
  24:      1059.57    6.645532  (  0.467734  -0.306168  -2.516549)
  25:      1096.66    8.977164  (  0.608398  -1.913451   2.223897)
  26:      1153.32   12.467985  ( -0.780427  -1.226146  -3.217994)
  27:      1170.25   16.273344  (  1.118126   2.621857   2.854646)
  28:      1184.79    5.449833  (  0.055688  -2.324505  -0.208347)
  29:      1252.20   38.476731  (  4.587367   1.174927   4.006537)
  30:      1278.70   17.965132  ( -2.444604  -2.190313  -2.681711)
  31:      1323.61   10.033596  ( -0.421371   1.558571  -2.725234)
  32:      1333.70    3.068066  ( -0.325431  -1.625018   0.566988)
  33:      1359.92    6.029889  (  0.281407   1.381369   2.010601)
  34:      1375.87    1.597749  ( -0.346100  -0.148870  -1.206566)
  35:      1403.26    5.547577  (  0.658196  -1.316973   1.838461)
  36:      1408.22    5.709475  ( -0.353681  -1.059994  -2.112060)
  37:      1423.65    7.768860  (  1.198726  -1.399889   2.090987)
  38:      1426.83   30.141728  ( -0.933107  -4.293807   3.291544)
  39:      1453.62   19.146166  (  1.955886   3.613441  -1.504567)
  40:      1476.48    2.240365  ( -1.223988   0.013551  -0.861414)
  41:      1480.60   22.896497  ( -2.537058   4.057030   0.018505)
  42:      1483.84    7.485012  (  2.429286   0.603475  -1.104265)
  43:      1503.59   16.069656  ( -1.346778   1.506695   3.462039)
  44:      1628.39   79.236716  (  8.286227   2.719204   1.783561)
  45:      3059.16    1.449948  ( -0.983162   0.439418  -0.538750)
  46:      3069.86   12.112528  ( -1.772929  -2.987782  -0.205932)
  47:      3076.52    6.309991  (  1.244325   2.181954   0.026891)
  48:      3089.77    3.778543  (  0.703897  -0.790205  -1.630536)
  49:      3109.23    0.988146  (  0.128248   0.945068   0.280258)
  50:      3114.04    5.972881  ( -1.162477   1.343800   1.678013)
  51:      3129.95    2.439211  (  0.046932  -0.348536  -1.521687)
  52:      3150.78    1.798171  (  0.478797   1.182867   0.412006)
  53:      3173.19    0.267872  ( -0.294441   0.059617  -0.421452)
  54:      3402.00   59.972414  (  3.487972   3.228289   6.114296)
  55:      3503.11   87.518592  (  7.061097  -2.790118  -5.465779)
  56:      3860.54   99.066439  (  4.527696  -2.832682  -8.398948)

--------------------------
THERMOCHEMISTRY AT 298.15K
--------------------------

Temperature         ... 298.15 K
Pressure            ... 1.00 atm
Total Mass          ... 102.16 AMU

Throughout the following assumptions are being made:
  (1) The electronic state is orbitally nondegenerate
  (2) There are no thermally accessible electronically excited states
  (3) Hindered rotations indicated by low frequency modes) are not
      treated as such but are treated as vibrations and this may
      case some error
  (4) All equations used are the standard statistical mechanics
      equations for an ideal gas
  (5) All vibrations are strinctly harmonic

------------
INNER ENERGY
------------

The inner energy is: U= E(el) + E(ZPE) + E(vib) + E(rot) + E(trans)
    E(el)   - is the total energy from the electronic structure calculation
              = E(kin-el) + E(nuc-el) + E(el-el) + E(nuc-nuc)
    E(ZPE)  - the the zero temperature vibrational energy from the frequency calculation
    E(vib)  - the the finite temperature correction to E(ZPE) due to population
              of excietd vibrational states
    E(rot)  - is the rotational thermal energy
    E(trans)- is the translational thermal energy

Summary of contributions to the inner energy U:
Electronic energy                ...   -327.24856592 Eh
Zero point energy                ...      0.17943944 Eh     112.60 kcal/mol
Thermal vibrational correction   ...      0.00390240 Eh       2.45 kcal/mol
Thermal rotational correction    ...      0.00141627 Eh       0.89 kcal/mol
Thermal translational correction ...      0.00141627 Eh       0.89 kcal/mol
-----------------------------------------------------------------------
Total thermal energy                   -327.06239154 Eh

Summary of corrections to the electronic energy:
(perhaps to be used in another calculation)
Total thermal correction                  0.00673494 Eh       4.23 kcal/mol
Non-thermal (ZPE) correction              0.17943944 Eh     112.60 kcal/mol
-----------------------------------------------------------------------
Total correction                          0.18617438 Eh     116.83 kcal/mol

--------
ENTHALPY
--------

The enthalpy is H = U + kB*T
                kB is Boltzmann's constant
Total free energy                 ...   -327.06239154 Eh
Thermal Enthalpy correction       ...      0.00094421 Eh       0.59 kcal/mol
-----------------------------------------------------------------------
Total Enthalpy                    ...   -327.06144733 Eh

-------
ENTROPY
-------

The entropy contributions are T*S = T*(S(el)+S(vib)+S(rot)+S(trans)
     S(el)   - electronic entropy
     S(vib)  - vibrational entropy
     S(rot)  - rotational entropy
     S(trans)- translational entropy
The entropies will be listed as mutliplied by the temperature to get
units of energy

Electronic entropy                ...      0.00000000 Eh      0.00 kcal/mol
Vibrational entropy               ...      0.00605779 Eh      3.80 kcal/mol
Rotational entropy                ...      0.01186139 Eh      7.44 kcal/mol
Translational entropy             ...      0.01890147 Eh     11.86 kcal/mol
-----------------------------------------------------------------------
Final entropy term                ...      0.03682065 Eh     23.11 kcal/mol

CAUTION: The rotational entropy is not quite correctly treated here
         because it includes a symmetry number that is not yet correctly
         implemented in ORCA!
For a nonlinear molecule the correct rotational entropy is:
    S(rot) = R*(ln(qrot/sn)+1.5)
    R    = 8.31441 J/mol/K = 1.987191683e-3 kcal/mol/K
    qrot = 191231.1709364
    sn is the rotational symmetry number. We have assumed 3 here
       if it is different for your molecule then you should correct
       the printed rotational entropy by manually evaluating the equation
       as given above

For convenience we print out the resulting values for sn=1 - 12:
 sn= 1  qrot/sn=  191231.1709 T*S(rot)=     8.09 kcal/mol T*S(tot)=    23.76 kcal/mol
 sn= 2  qrot/sn=   95615.5855 T*S(rot)=     7.68 kcal/mol T*S(tot)=    23.35 kcal/mol
 sn= 3  qrot/sn=   63743.7236 T*S(rot)=     7.44 kcal/mol T*S(tot)=    23.11 kcal/mol
 sn= 4  qrot/sn=   47807.7927 T*S(rot)=     7.27 kcal/mol T*S(tot)=    22.93 kcal/mol
 sn= 5  qrot/sn=   38246.2342 T*S(rot)=     7.14 kcal/mol T*S(tot)=    22.80 kcal/mol
 sn= 6  qrot/sn=   31871.8618 T*S(rot)=     7.03 kcal/mol T*S(tot)=    22.69 kcal/mol
 sn= 7  qrot/sn=   27318.7387 T*S(rot)=     6.94 kcal/mol T*S(tot)=    22.60 kcal/mol
 sn= 8  qrot/sn=   23903.8964 T*S(rot)=     6.86 kcal/mol T*S(tot)=    22.52 kcal/mol
 sn= 9  qrot/sn=   21247.9079 T*S(rot)=     6.79 kcal/mol T*S(tot)=    22.45 kcal/mol
 sn=10  qrot/sn=   19123.1171 T*S(rot)=     6.73 kcal/mol T*S(tot)=    22.39 kcal/mol
 sn=11  qrot/sn=   17384.6519 T*S(rot)=     6.67 kcal/mol T*S(tot)=    22.34 kcal/mol
 sn=12  qrot/sn=   15935.9309 T*S(rot)=     6.62 kcal/mol T*S(tot)=    22.28 kcal/mol

-------------------
GIBBS FREE ENTHALPY
-------------------

The Gibbs free enthalpy is G = H - T*S

Total enthalpy                    ...   -327.06144733 Eh
Total entropy correction          ...     -0.03682065 Eh    -23.11 kcal/mol
-----------------------------------------------------------------------
Final Gibbs free enthalpy         ...   -327.09826798 Eh

For completeness - the Gibbs free enthalpy minus the electronic energy
G-E(el)                           ...      0.15029794 Eh     94.31 kcal/mol

                             ****ORCA TERMINATED NORMALLY****
TOTAL RUN TIME: 0 days 0 hours 47 minutes 5 seconds 831 msec
