                         Program Version 3.0.3 - RELEASE   -
|  1> ! NORI PBE0 def2-TZVP UseSym TightOPT Freq TightSCF Grid3 FinalGrid5 XYZFile
|  2> % pal
|  3>     nprocs 8
|  4> end
|  5> %method
|  6>     SymThresh 5.0e-2
|  7> end
|  8> % geom
|  9>     MaxIter 10
| 10> end
| 11> % maxcore 2000
| 12> % output
| 13>     printlevel mini
| 14>     print[ P_Basis ] 0
| 15>     print[ P_SCFInfo ] 1
| 16>     print[ P_SCFIterInfo ] 1
| 17>     print[ P_OrbEn ] 0
| 18>     print[ P_Cartesian ] 0
| 19> end
| 20> % elprop
| 21>     Dipole false
| 22> end
| 23> *xyz 1 1
| 24>  O        1.1491417496     0.1623091087     0.4588887806
| 25>  C        2.3023952025     0.0626633157     0.1625671782
| 26>  C        3.0476184182    -1.2343635944     0.0150757062
| 27>  C        4.0372438519    -1.2139017224    -1.1475170230
| 28>  C        4.9364212686    -0.0004087888    -1.1082586184
| 29>  N        4.0980436169     1.2456501779    -1.1492163814
| 30>  C        3.1250725797     1.3455628885    -0.0137059852
| 31>  H        3.5875832383    -1.3956287994     0.9577611760
| 32>  H        2.3221748647    -2.0420876760    -0.0801396460
| 33>  H        4.6674474455    -2.1047808978    -1.1238203979
| 34>  H        3.5043852522    -1.2467702745    -2.1045894214
| 35>  H        5.5226417237     0.0517136372    -0.1882823107
| 36>  H        5.6165993135     0.0417544671    -1.9600606713
| 37>  H        3.5812127802     1.2639177016    -2.0319752264
| 38>  H        4.6993689195     2.0721295766    -1.1572323910
| 39>  H        2.4590695501     2.1893690885    -0.1880405252
| 40>  H        3.7061802249     1.5253917915     0.8945457568
| 41> *
| 42>
| 43>                          ****END OF INPUT****
 Total Charge           Charge          ....    1
 Multiplicity           Mult            ....    1
 Number of Electrons    NEL             ....   54
FINAL SINGLE POINT ENERGY      -326.020267486753

CARTESIAN COORDINATES (ANGSTROEM)
---------------------------------
  O     -0.000321   -0.001437    2.273434
  C     -0.101782   -0.144058    1.091492
  C     -1.359923    0.078244    0.299515
  C     -1.092984    0.725708   -1.057678
  C     -0.011203    0.005509   -1.828827
  N      1.257978    0.000303   -1.024178
  C      1.112683   -0.664089    0.311583
  H     -1.818892   -0.909128    0.154660
  H     -2.050657    0.666139    0.903792
  H     -2.001082    0.723059   -1.663279
  H     -0.817081    1.778783   -0.931980
  H     -0.262433   -1.040580   -2.016706
  H      0.213558    0.488202   -2.780676
  H      1.560413    0.967335   -0.883098
  H      2.005392   -0.455017   -1.552138
  H      2.020141   -0.501376    0.891464
  H      0.988334   -1.734633    0.128075

FINAL SINGLE POINT ENERGY      -326.020268396191
                    ***********************HURRAY********************
 Multiplicity           Mult            ....    1
 Number of Electrons    NEL             ....   54
 Basis Dimension        Dim             ....  277
FINAL SINGLE POINT ENERGY      -326.020268844194

VIBRATIONAL FREQUENCIES
-----------------------

   0:         0.00 cm**-1
   1:         0.00 cm**-1
   2:         0.00 cm**-1
   3:         0.00 cm**-1
   4:         0.00 cm**-1
   5:         0.00 cm**-1
   6:        83.97 cm**-1
   7:       181.52 cm**-1
   8:       310.81 cm**-1
   9:       398.89 cm**-1
  10:       412.77 cm**-1
  11:       472.57 cm**-1
  12:       481.54 cm**-1
  13:       641.84 cm**-1
  14:       749.68 cm**-1
  15:       757.93 cm**-1
  16:       844.78 cm**-1
  17:       897.14 cm**-1
  18:       913.46 cm**-1
  19:       926.53 cm**-1
  20:      1003.62 cm**-1
  21:      1033.12 cm**-1
  22:      1082.86 cm**-1
  23:      1117.82 cm**-1
  24:      1139.53 cm**-1
  25:      1170.96 cm**-1
  26:      1245.36 cm**-1
  27:      1274.25 cm**-1
  28:      1302.62 cm**-1
  29:      1332.99 cm**-1
  30:      1358.56 cm**-1
  31:      1385.26 cm**-1
  32:      1398.35 cm**-1
  33:      1420.76 cm**-1
  34:      1433.94 cm**-1
  35:      1449.33 cm**-1
  36:      1467.67 cm**-1
  37:      1485.47 cm**-1
  38:      1496.92 cm**-1
  39:      1653.63 cm**-1
  40:      1866.04 cm**-1
  41:      3037.85 cm**-1
  42:      3058.26 cm**-1
  43:      3089.24 cm**-1
  44:      3092.39 cm**-1
  45:      3126.33 cm**-1
  46:      3145.74 cm**-1
  47:      3153.49 cm**-1
  48:      3169.08 cm**-1
  49:      3432.66 cm**-1
  50:      3483.06 cm**-1

IR SPECTRUM
-----------

 Mode    freq (cm**-1)   T**2         TX         TY         TZ
-------------------------------------------------------------------
   6:        83.97    5.039270  ( -0.472129  -2.020459   0.856801)
   7:       181.52    4.335156  (  1.029770  -1.420919  -1.120588)
   8:       310.81    2.715728  ( -0.759756   0.827632   1.205622)
   9:       398.89    0.390999  (  0.143892  -0.023213   0.608075)
  10:       412.77    4.347769  ( -1.410715   0.928524  -1.222904)
  11:       472.57    0.416161  (  0.047057  -0.555480  -0.324636)
  12:       481.54   10.917273  ( -3.128808   0.850395   0.636130)
  13:       641.84    1.853735  (  0.592594   0.900110   0.832087)
  14:       749.68    6.329919  (  0.706522  -1.715870  -1.698981)
  15:       757.93    3.280270  (  1.616419  -0.811607  -0.093556)
  16:       844.78    1.454932  ( -1.180326  -0.248521   0.000401)
  17:       897.14    5.179032  ( -0.526449   0.765713   2.077394)
  18:       913.46    7.550151  ( -0.638323   0.150748   2.668327)
  19:       926.53   15.359692  ( -3.739721   1.170850  -0.057348)
  20:      1003.62   10.465495  ( -1.152821   2.913850  -0.803725)
  21:      1033.12    5.078124  (  1.814350   0.189190   1.323051)
  22:      1082.86    4.589252  ( -0.705427   0.494859  -1.961310)
  23:      1117.82    7.902131  (  2.543412  -0.936397   0.745886)
  24:      1139.53    0.863076  ( -0.828215  -0.045896  -0.418364)
  25:      1170.96   47.106605  ( -6.445742   2.189507  -0.874686)
  26:      1245.36    8.914972  (  2.529798  -0.531153  -1.494313)
  27:      1274.25    4.695779  (  1.962373  -0.860362   0.323495)
  28:      1302.62   11.779743  (  1.146181  -0.345684   3.216600)
  29:      1332.99    2.855768  ( -0.517522  -1.566185  -0.367430)
  30:      1358.56    8.185666  (  2.367431  -1.254193   1.003960)
  31:      1385.26    0.727983  (  0.460039   0.717886  -0.031406)
  32:      1398.35    9.353437  (  2.805208  -0.664699  -1.020989)
  33:      1420.76   21.165641  ( -2.248356   1.567665  -3.694992)
  34:      1433.94   10.834510  ( -1.509189   0.070731  -2.924356)
  35:      1449.33   17.222808  ( -3.678518  -1.380172   1.336576)
  36:      1467.67   19.723908  (  2.728107  -2.960893   1.874689)
  37:      1485.47   12.332980  (  1.822946  -2.954287  -0.531067)
  38:      1496.92   15.937011  (  0.782250  -2.671510  -2.861491)
  39:      1653.63   69.293687  (  7.102769   3.734574  -2.212987)
  40:      1866.04  172.821748  (  1.177513   1.598752  12.995353)
  41:      3037.85    2.588793  (  1.494705  -0.319428   0.502609)
  42:      3058.26    6.128810  ( -0.584403  -2.261685   0.819795)
  43:      3089.24    2.224644  ( -1.183076   0.907253   0.043212)
  44:      3092.39    1.553803  ( -0.167821   1.108223   0.545418)
  45:      3126.33    0.636093  ( -0.307917   0.561182   0.475768)
  46:      3145.74    0.360862  ( -0.303943   0.408685   0.318523)
  47:      3153.49    0.335960  ( -0.194060  -0.469976   0.278252)
  48:      3169.08    1.736254  (  0.749523   0.776688   0.755794)
  49:      3432.66   56.359886  (  6.475544   2.872975  -2.484597)
  50:      3483.06   76.571801  (  3.109859  -7.298160  -3.692890)

--------------------------
THERMOCHEMISTRY AT 298.15K
--------------------------

Temperature         ... 298.15 K
Pressure            ... 1.00 atm
Total Mass          ... 100.14 AMU

Throughout the following assumptions are being made:
  (1) The electronic state is orbitally nondegenerate
  (2) There are no thermally accessible electronically excited states
  (3) Hindered rotations indicated by low frequency modes) are not
      treated as such but are treated as vibrations and this may
      case some error
  (4) All equations used are the standard statistical mechanics
      equations for an ideal gas
  (5) All vibrations are strinctly harmonic

------------
INNER ENERGY
------------

The inner energy is: U= E(el) + E(ZPE) + E(vib) + E(rot) + E(trans)
    E(el)   - is the total energy from the electronic structure calculation
              = E(kin-el) + E(nuc-el) + E(el-el) + E(nuc-nuc)
    E(ZPE)  - the the zero temperature vibrational energy from the frequency calculation
    E(vib)  - the the finite temperature correction to E(ZPE) due to population
              of excietd vibrational states
    E(rot)  - is the rotational thermal energy
    E(trans)- is the translational thermal energy

Summary of contributions to the inner energy U:
Electronic energy                ...   -326.02026884 Eh
Zero point energy                ...      0.15487114 Eh      97.18 kcal/mol
Thermal vibrational correction   ...      0.00366819 Eh       2.30 kcal/mol
Thermal rotational correction    ...      0.00141627 Eh       0.89 kcal/mol
Thermal translational correction ...      0.00141627 Eh       0.89 kcal/mol
-----------------------------------------------------------------------
Total thermal energy                   -325.85889697 Eh

Summary of corrections to the electronic energy:
(perhaps to be used in another calculation)
Total thermal correction                  0.00650074 Eh       4.08 kcal/mol
Non-thermal (ZPE) correction              0.15487114 Eh      97.18 kcal/mol
-----------------------------------------------------------------------
Total correction                          0.16137188 Eh     101.26 kcal/mol

--------
ENTHALPY
--------

The enthalpy is H = U + kB*T
                kB is Boltzmann's constant
Total free energy                 ...   -325.85889697 Eh
Thermal Enthalpy correction       ...      0.00094421 Eh       0.59 kcal/mol
-----------------------------------------------------------------------
Total Enthalpy                    ...   -325.85795276 Eh

-------
ENTROPY
-------

The entropy contributions are T*S = T*(S(el)+S(vib)+S(rot)+S(trans)
     S(el)   - electronic entropy
     S(vib)  - vibrational entropy
     S(rot)  - rotational entropy
     S(trans)- translational entropy
The entropies will be listed as mutliplied by the temperature to get
units of energy

Electronic entropy                ...      0.00000000 Eh      0.00 kcal/mol
Vibrational entropy               ...      0.00613179 Eh      3.85 kcal/mol
Rotational entropy                ...      0.01192189 Eh      7.48 kcal/mol
Translational entropy             ...      0.01887324 Eh     11.84 kcal/mol
-----------------------------------------------------------------------
Final entropy term                ...      0.03692691 Eh     23.17 kcal/mol

CAUTION: The rotational entropy is not quite correctly treated here
         because it includes a symmetry number that is not yet correctly
         implemented in ORCA!
For a nonlinear molecule the correct rotational entropy is:
    S(rot) = R*(ln(qrot/sn)+1.5)
    R    = 8.31441 J/mol/K = 1.987191683e-3 kcal/mol/K
    qrot = 203884.2824593
    sn is the rotational symmetry number. We have assumed 3 here
       if it is different for your molecule then you should correct
       the printed rotational entropy by manually evaluating the equation
       as given above

For convenience we print out the resulting values for sn=1 - 12:
 sn= 1  qrot/sn=  203884.2825 T*S(rot)=     8.13 kcal/mol T*S(tot)=    23.82 kcal/mol
 sn= 2  qrot/sn=  101942.1412 T*S(rot)=     7.72 kcal/mol T*S(tot)=    23.41 kcal/mol
 sn= 3  qrot/sn=   67961.4275 T*S(rot)=     7.48 kcal/mol T*S(tot)=    23.17 kcal/mol
 sn= 4  qrot/sn=   50971.0706 T*S(rot)=     7.31 kcal/mol T*S(tot)=    23.00 kcal/mol
 sn= 5  qrot/sn=   40776.8565 T*S(rot)=     7.18 kcal/mol T*S(tot)=    22.87 kcal/mol
 sn= 6  qrot/sn=   33980.7137 T*S(rot)=     7.07 kcal/mol T*S(tot)=    22.76 kcal/mol
 sn= 7  qrot/sn=   29126.3261 T*S(rot)=     6.98 kcal/mol T*S(tot)=    22.67 kcal/mol
 sn= 8  qrot/sn=   25485.5353 T*S(rot)=     6.90 kcal/mol T*S(tot)=    22.59 kcal/mol
 sn= 9  qrot/sn=   22653.8092 T*S(rot)=     6.83 kcal/mol T*S(tot)=    22.52 kcal/mol
 sn=10  qrot/sn=   20388.4282 T*S(rot)=     6.77 kcal/mol T*S(tot)=    22.46 kcal/mol
 sn=11  qrot/sn=   18534.9348 T*S(rot)=     6.71 kcal/mol T*S(tot)=    22.40 kcal/mol
 sn=12  qrot/sn=   16990.3569 T*S(rot)=     6.66 kcal/mol T*S(tot)=    22.35 kcal/mol

-------------------
GIBBS FREE ENTHALPY
-------------------

The Gibbs free enthalpy is G = H - T*S

Total enthalpy                    ...   -325.85795276 Eh
Total entropy correction          ...     -0.03692691 Eh    -23.17 kcal/mol
-----------------------------------------------------------------------
Final Gibbs free enthalpy         ...   -325.89487967 Eh

For completeness - the Gibbs free enthalpy minus the electronic energy
G-E(el)                           ...      0.12538918 Eh     78.68 kcal/mol

                             ****ORCA TERMINATED NORMALLY****
TOTAL RUN TIME: 0 days 0 hours 39 minutes 15 seconds 55 msec
