                         Program Version 3.0.3 - RELEASE   -
|  1> ! NORI PBE0 def2-TZVP UseSym TightOPT Freq TightSCF Grid3 FinalGrid5 XYZFile
|  2> % pal
|  3>     nprocs 8
|  4> end
|  5> %method
|  6>     SymThresh 5.0e-2
|  7> end
|  8> % geom
|  9>     MaxIter 10
| 10> end
| 11> % maxcore 2000
| 12> % output
| 13>     printlevel mini
| 14>     print[ P_Basis ] 0
| 15>     print[ P_SCFInfo ] 1
| 16>     print[ P_SCFIterInfo ] 1
| 17>     print[ P_OrbEn ] 0
| 18>     print[ P_Cartesian ] 0
| 19> end
| 20> % elprop
| 21>     Dipole false
| 22> end
| 23> *xyz 1 1
| 24>  O        0.9172855438    -0.0416882649    -0.0503514299
| 25>  C        2.3160677124    -0.0988765096    -0.0503695477
| 26>  C        2.7401673493    -1.5452678246    -0.3128641573
| 27>  C        2.6607335541    -1.7015252224    -1.8244120357
| 28>  N        3.0933139940    -0.3617504176    -2.3263126104
| 29>  C        2.1118461594     0.7342205467    -2.4716845158
| 30>  C        2.9210790939     0.6546690436    -1.2466428940
| 31>  H        0.6068842402     0.6934392635     0.4860846128
| 32>  H        2.7402456055     0.2829033461     0.8805231114
| 33>  H        3.7687610469    -1.6958489385     0.0224479500
| 34>  H        2.0952818184    -2.2424507767     0.2195714424
| 35>  H        3.3318719213    -2.4536783664    -2.2348955641
| 36>  H        1.6501709260    -1.8930942694    -2.1824511031
| 37>  H        3.9198781882    -0.3206940838    -2.9118892333
| 38>  H        1.0807112534     0.4073202895    -2.4177584197
| 39>  H        2.3606858845     1.4598003562    -3.2364487444
| 40>  H        3.7561257088     1.3307818281    -1.1067568610
| 41> *
| 42>
| 43>                          ****END OF INPUT****
 Total Charge           Charge          ....    1
 Multiplicity           Mult            ....    1
 Number of Electrons    NEL             ....   54
FINAL SINGLE POINT ENERGY      -325.994702763379

CARTESIAN COORDINATES (ANGSTROEM)
---------------------------------
  O      0.000206   -0.000326    1.850770
  C     -0.755760   -0.417592    0.748918
  C     -1.285922    0.823936    0.028753
  C     -0.129489    1.284538   -0.846787
  N      0.504122    0.000049   -1.273914
  C      1.519028   -0.652830   -0.419998
  C      0.117529   -1.086304   -0.325764
  H      0.007723   -0.676925    2.533863
  H     -1.564967   -1.090642    1.040470
  H     -2.139974    0.552748   -0.596154
  H     -1.604329    1.581759    0.742921
  H     -0.430464    1.831017   -1.738809
  H      0.611456    1.870207   -0.303946
  H      0.537472   -0.203243   -2.266429
  H      1.904257   -0.015265    0.366167
  H      2.235898   -1.258634   -0.960036
  H     -0.191343   -2.017251   -0.785901

FINAL SINGLE POINT ENERGY      -325.994703476076
                    ***********************HURRAY********************
 Multiplicity           Mult            ....    1
 Number of Electrons    NEL             ....   54
 Basis Dimension        Dim             ....  277
FINAL SINGLE POINT ENERGY      -325.994703720508

VIBRATIONAL FREQUENCIES
-----------------------

   0:         0.00 cm**-1
   1:         0.00 cm**-1
   2:         0.00 cm**-1
   3:         0.00 cm**-1
   4:         0.00 cm**-1
   5:         0.00 cm**-1
   6:       128.28 cm**-1
   7:       242.16 cm**-1
   8:       257.11 cm**-1
   9:       384.71 cm**-1
  10:       421.10 cm**-1
  11:       523.73 cm**-1
  12:       643.80 cm**-1
  13:       712.53 cm**-1
  14:       769.42 cm**-1
  15:       817.28 cm**-1
  16:       839.90 cm**-1
  17:       874.08 cm**-1
  18:       925.29 cm**-1
  19:       952.60 cm**-1
  20:       990.10 cm**-1
  21:      1005.68 cm**-1
  22:      1043.50 cm**-1
  23:      1054.64 cm**-1
  24:      1113.57 cm**-1
  25:      1138.71 cm**-1
  26:      1166.58 cm**-1
  27:      1175.55 cm**-1
  28:      1221.32 cm**-1
  29:      1240.19 cm**-1
  30:      1252.85 cm**-1
  31:      1287.21 cm**-1
  32:      1317.03 cm**-1
  33:      1337.69 cm**-1
  34:      1363.93 cm**-1
  35:      1387.65 cm**-1
  36:      1424.06 cm**-1
  37:      1427.88 cm**-1
  38:      1473.16 cm**-1
  39:      1486.38 cm**-1
  40:      1507.92 cm**-1
  41:      3089.68 cm**-1
  42:      3103.90 cm**-1
  43:      3116.57 cm**-1
  44:      3163.90 cm**-1
  45:      3166.47 cm**-1
  46:      3178.56 cm**-1
  47:      3212.96 cm**-1
  48:      3271.50 cm**-1
  49:      3563.73 cm**-1
  50:      3862.46 cm**-1

IR SPECTRUM
-----------

 Mode    freq (cm**-1)   T**2         TX         TY         TZ
-------------------------------------------------------------------
   6:       128.28    3.335931  ( -0.257648   0.083126  -1.806277)
   7:       242.16  107.904915  (  8.225056  -3.290699  -5.424451)
   8:       257.11   14.672893  ( -3.567353   1.145288   0.796996)
   9:       384.71    0.695733  (  0.049977  -0.393901  -0.733537)
  10:       421.10    8.219712  ( -0.055177   0.645255   2.792904)
  11:       523.73    0.473071  (  0.540734  -0.419260   0.069991)
  12:       643.80    0.975934  ( -0.084578  -0.919893  -0.350112)
  13:       712.53    3.222701  (  0.225195   0.674791  -1.648225)
  14:       769.42    4.418938  ( -0.375400   1.958913  -0.663833)
  15:       817.28    4.220812  (  0.963799  -1.326237   1.238143)
  16:       839.90    1.350758  (  0.332220  -0.933609  -0.607259)
  17:       874.08    9.316158  ( -0.879846   0.740043   2.827431)
  18:       925.29   25.448078  ( -4.872402  -0.420589   1.237289)
  19:       952.60    9.882403  ( -0.602873  -1.246272  -2.822367)
  20:       990.10   12.321363  ( -0.776494  -3.422056   0.089201)
  21:      1005.68   47.878242  ( -3.951198   1.505765  -5.477129)
  22:      1043.50    8.272196  (  1.351948   2.537568   0.071990)
  23:      1054.64   13.532289  ( -1.174215  -2.357803  -2.567931)
  24:      1113.57   31.104831  ( -3.513091  -1.987449  -3.848775)
  25:      1138.71    7.867531  ( -1.548108  -0.566580   2.269334)
  26:      1166.58    0.196721  (  0.066649  -0.397384  -0.185377)
  27:      1175.55    2.734501  (  1.331902   0.157453  -0.967339)
  28:      1221.32   64.351213  ( -2.208356  -1.481496  -7.568325)
  29:      1240.19    5.586251  (  0.544755   2.294244  -0.161046)
  30:      1252.85    0.726162  ( -0.019337  -0.851733  -0.018424)
  31:      1287.21    6.675120  ( -1.592061  -1.499678  -1.375292)
  32:      1317.03   17.104742  ( -0.096936  -0.804421  -4.055645)
  33:      1337.69    2.362499  (  0.686708  -1.198795   0.673663)
  34:      1363.93    3.610151  (  1.319083  -0.234577   1.347273)
  35:      1387.65    7.527373  ( -1.410620  -2.309839  -0.449634)
  36:      1424.06   38.671880  (  4.201616  -4.225361   1.778940)
  37:      1427.88   14.046405  (  2.421629   2.496219  -1.396785)
  38:      1473.16    4.551065  (  1.971248  -0.815558   0.010587)
  39:      1486.38    2.345720  ( -1.495179  -0.322696  -0.077629)
  40:      1507.92   20.041072  ( -2.744221  -3.415696   0.918339)
  41:      3089.68    0.635936  (  0.413508  -0.122658   0.670748)
  42:      3103.90    7.901617  ( -2.106744  -1.773488  -0.563905)
  43:      3116.57    1.234643  (  0.570377   0.827434  -0.473988)
  44:      3163.90    0.181312  ( -0.238164   0.226176   0.270987)
  45:      3166.47    2.663242  (  1.050136   0.178466   1.236368)
  46:      3178.56    0.002852  ( -0.037521  -0.034059  -0.016842)
  47:      3212.96    1.035481  (  0.250589   0.958259   0.233295)
  48:      3271.50    9.338015  ( -0.346800   1.818894   2.430920)
  49:      3563.73  102.640046  (  0.513494  -0.989602 -10.069611)
  50:      3862.46  109.435468  (  0.661811  -4.935061   9.200144)

--------------------------
THERMOCHEMISTRY AT 298.15K
--------------------------

Temperature         ... 298.15 K
Pressure            ... 1.00 atm
Total Mass          ... 100.14 AMU

Throughout the following assumptions are being made:
  (1) The electronic state is orbitally nondegenerate
  (2) There are no thermally accessible electronically excited states
  (3) Hindered rotations indicated by low frequency modes) are not
      treated as such but are treated as vibrations and this may
      case some error
  (4) All equations used are the standard statistical mechanics
      equations for an ideal gas
  (5) All vibrations are strinctly harmonic

------------
INNER ENERGY
------------

The inner energy is: U= E(el) + E(ZPE) + E(vib) + E(rot) + E(trans)
    E(el)   - is the total energy from the electronic structure calculation
              = E(kin-el) + E(nuc-el) + E(el-el) + E(nuc-nuc)
    E(ZPE)  - the the zero temperature vibrational energy from the frequency calculation
    E(vib)  - the the finite temperature correction to E(ZPE) due to population
              of excietd vibrational states
    E(rot)  - is the rotational thermal energy
    E(trans)- is the translational thermal energy

Summary of contributions to the inner energy U:
Electronic energy                ...   -325.99470372 Eh
Zero point energy                ...      0.15408920 Eh      96.69 kcal/mol
Thermal vibrational correction   ...      0.00344234 Eh       2.16 kcal/mol
Thermal rotational correction    ...      0.00141627 Eh       0.89 kcal/mol
Thermal translational correction ...      0.00141627 Eh       0.89 kcal/mol
-----------------------------------------------------------------------
Total thermal energy                   -325.83433964 Eh

Summary of corrections to the electronic energy:
(perhaps to be used in another calculation)
Total thermal correction                  0.00627488 Eh       3.94 kcal/mol
Non-thermal (ZPE) correction              0.15408920 Eh      96.69 kcal/mol
-----------------------------------------------------------------------
Total correction                          0.16036408 Eh     100.63 kcal/mol

--------
ENTHALPY
--------

The enthalpy is H = U + kB*T
                kB is Boltzmann's constant
Total free energy                 ...   -325.83433964 Eh
Thermal Enthalpy correction       ...      0.00094421 Eh       0.59 kcal/mol
-----------------------------------------------------------------------
Total Enthalpy                    ...   -325.83339543 Eh

-------
ENTROPY
-------

The entropy contributions are T*S = T*(S(el)+S(vib)+S(rot)+S(trans)
     S(el)   - electronic entropy
     S(vib)  - vibrational entropy
     S(rot)  - rotational entropy
     S(trans)- translational entropy
The entropies will be listed as mutliplied by the temperature to get
units of energy

Electronic entropy                ...      0.00000000 Eh      0.00 kcal/mol
Vibrational entropy               ...      0.00544568 Eh      3.42 kcal/mol
Rotational entropy                ...      0.01173221 Eh      7.36 kcal/mol
Translational entropy             ...      0.01887324 Eh     11.84 kcal/mol
-----------------------------------------------------------------------
Final entropy term                ...      0.03605113 Eh     22.62 kcal/mol

CAUTION: The rotational entropy is not quite correctly treated here
         because it includes a symmetry number that is not yet correctly
         implemented in ORCA!
For a nonlinear molecule the correct rotational entropy is:
    S(rot) = R*(ln(qrot/sn)+1.5)
    R    = 8.31441 J/mol/K = 1.987191683e-3 kcal/mol/K
    qrot = 166778.9061623
    sn is the rotational symmetry number. We have assumed 3 here
       if it is different for your molecule then you should correct
       the printed rotational entropy by manually evaluating the equation
       as given above

For convenience we print out the resulting values for sn=1 - 12:
 sn= 1  qrot/sn=  166778.9062 T*S(rot)=     8.01 kcal/mol T*S(tot)=    23.27 kcal/mol
 sn= 2  qrot/sn=   83389.4531 T*S(rot)=     7.60 kcal/mol T*S(tot)=    22.86 kcal/mol
 sn= 3  qrot/sn=   55592.9687 T*S(rot)=     7.36 kcal/mol T*S(tot)=    22.62 kcal/mol
 sn= 4  qrot/sn=   41694.7265 T*S(rot)=     7.19 kcal/mol T*S(tot)=    22.45 kcal/mol
 sn= 5  qrot/sn=   33355.7812 T*S(rot)=     7.06 kcal/mol T*S(tot)=    22.32 kcal/mol
 sn= 6  qrot/sn=   27796.4844 T*S(rot)=     6.95 kcal/mol T*S(tot)=    22.21 kcal/mol
 sn= 7  qrot/sn=   23825.5580 T*S(rot)=     6.86 kcal/mol T*S(tot)=    22.12 kcal/mol
 sn= 8  qrot/sn=   20847.3633 T*S(rot)=     6.78 kcal/mol T*S(tot)=    22.04 kcal/mol
 sn= 9  qrot/sn=   18530.9896 T*S(rot)=     6.71 kcal/mol T*S(tot)=    21.97 kcal/mol
 sn=10  qrot/sn=   16677.8906 T*S(rot)=     6.65 kcal/mol T*S(tot)=    21.91 kcal/mol
 sn=11  qrot/sn=   15161.7187 T*S(rot)=     6.59 kcal/mol T*S(tot)=    21.85 kcal/mol
 sn=12  qrot/sn=   13898.2422 T*S(rot)=     6.54 kcal/mol T*S(tot)=    21.80 kcal/mol

-------------------
GIBBS FREE ENTHALPY
-------------------

The Gibbs free enthalpy is G = H - T*S

Total enthalpy                    ...   -325.83339543 Eh
Total entropy correction          ...     -0.03605113 Eh    -22.62 kcal/mol
-----------------------------------------------------------------------
Final Gibbs free enthalpy         ...   -325.86944656 Eh

For completeness - the Gibbs free enthalpy minus the electronic energy
G-E(el)                           ...      0.12525716 Eh     78.60 kcal/mol

                             ****ORCA TERMINATED NORMALLY****
TOTAL RUN TIME: 0 days 0 hours 39 minutes 14 seconds 96 msec
