                         Program Version 3.0.3 - RELEASE   -
|  1> ! NORI PBE0 def2-TZVP UseSym TightOPT Freq TightSCF Grid3 FinalGrid5 XYZFile
|  2> % pal
|  3>     nprocs 8
|  4> end
|  5> %method
|  6>     SymThresh 5.0e-2
|  7> end
|  8> % geom
|  9>     MaxIter 10
| 10> end
| 11> % maxcore 2000
| 12> % output
| 13>     printlevel mini
| 14>     print[ P_Basis ] 0
| 15>     print[ P_SCFInfo ] 1
| 16>     print[ P_SCFIterInfo ] 1
| 17>     print[ P_OrbEn ] 0
| 18>     print[ P_Cartesian ] 0
| 19> end
| 20> % elprop
| 21>     Dipole false
| 22> end
| 23> *xyz 1 1
| 24>  O        1.4461478087     0.1975663359     1.1490384902
| 25>  C        2.3554270314     0.0007852472     0.4125990143
| 26>  C        2.7572424652    -1.3090362199    -0.2503969225
| 27>  C        4.1834514431    -1.1232097375    -0.7460834326
| 28>  N        4.4091039130     0.3584758661    -0.7530025711
| 29>  C        3.4846593305     1.2236226912    -1.5000901639
| 30>  C        3.3301814903     1.0744834130    -0.0371234900
| 31>  H        2.6697960597    -2.1216844696     0.4708283937
| 32>  H        2.0493399772    -1.5234405056    -1.0558326590
| 33>  H        4.9152966654    -1.5395029581    -0.0541338186
| 34>  H        4.3768639235    -1.5086558080    -1.7461748364
| 35>  H        5.3659797220     0.6813433886    -0.6508970656
| 36>  H        2.8161003603     0.6967016853    -2.1707732148
| 37>  H        3.9274355902     2.1341037580    -1.8842463347
| 38>  H        3.6040142194     1.8787673133     0.6344986111
| 39> *
| 40>
| 41>                          ****END OF INPUT****
 Total Charge           Charge          ....    1
 Multiplicity           Mult            ....    1
 Number of Electrons    NEL             ....   52
FINAL SINGLE POINT ENERGY      -324.776280713995

CARTESIAN COORDINATES (ANGSTROEM)
---------------------------------
  O      0.000208   -0.000232    2.201094
  C     -0.075927   -0.093172    1.020714
  C     -1.126309   -0.833514    0.205137
  C     -0.554980   -0.989907   -1.195949
  N      0.567467    0.000008   -1.277471
  C      0.301401    1.415327   -0.981912
  C      0.903273    0.549538    0.054694
  H     -1.341034   -1.792431    0.676480
  H     -2.054605   -0.256000    0.226065
  H     -0.106991   -1.971639   -1.348491
  H     -1.256422   -0.786984   -2.004037
  H      1.318321   -0.204264   -1.929154
  H     -0.749183    1.674651   -0.926395
  H      0.939393    2.115160   -1.507267
  H      1.948158    0.648235    0.321891

FINAL SINGLE POINT ENERGY      -324.776280879671
                    ***********************HURRAY********************
 Multiplicity           Mult            ....    1
 Number of Electrons    NEL             ....   52
 Basis Dimension        Dim             ....  265
FINAL SINGLE POINT ENERGY      -324.776280933371

VIBRATIONAL FREQUENCIES
-----------------------

   0:         0.00 cm**-1
   1:         0.00 cm**-1
   2:         0.00 cm**-1
   3:         0.00 cm**-1
   4:         0.00 cm**-1
   5:         0.00 cm**-1
   6:       112.43 cm**-1
   7:       223.48 cm**-1
   8:       352.04 cm**-1
   9:       442.90 cm**-1
  10:       530.72 cm**-1
  11:       624.69 cm**-1
  12:       657.00 cm**-1
  13:       751.47 cm**-1
  14:       801.65 cm**-1
  15:       829.53 cm**-1
  16:       866.35 cm**-1
  17:       922.87 cm**-1
  18:       968.99 cm**-1
  19:      1000.84 cm**-1
  20:      1037.22 cm**-1
  21:      1058.63 cm**-1
  22:      1138.75 cm**-1
  23:      1148.41 cm**-1
  24:      1160.03 cm**-1
  25:      1177.37 cm**-1
  26:      1225.24 cm**-1
  27:      1235.34 cm**-1
  28:      1262.42 cm**-1
  29:      1303.07 cm**-1
  30:      1336.60 cm**-1
  31:      1373.23 cm**-1
  32:      1431.23 cm**-1
  33:      1454.33 cm**-1
  34:      1491.65 cm**-1
  35:      1509.64 cm**-1
  36:      1906.60 cm**-1
  37:      3089.21 cm**-1
  38:      3111.33 cm**-1
  39:      3150.11 cm**-1
  40:      3164.37 cm**-1
  41:      3172.02 cm**-1
  42:      3225.63 cm**-1
  43:      3266.67 cm**-1
  44:      3550.99 cm**-1

IR SPECTRUM
-----------

 Mode    freq (cm**-1)   T**2         TX         TY         TZ
-------------------------------------------------------------------
   6:       112.43    3.436321  (  0.789339  -1.674039  -0.104191)
   7:       223.48    0.141539  (  0.037598   0.373853   0.018963)
   8:       352.04    0.524189  ( -0.227463  -0.064218   0.684343)
   9:       442.90    7.042309  ( -1.990336  -1.461923   0.971418)
  10:       530.72    2.224349  (  0.602018   0.739775   1.146585)
  11:       624.69    1.503334  (  0.044611  -0.679547  -1.019588)
  12:       657.00    1.594977  (  0.195918  -1.154296   0.473490)
  13:       751.47    4.252793  ( -0.557848  -1.985341  -0.004246)
  14:       801.65    8.219211  ( -1.865241   0.204253   2.167572)
  15:       829.53    5.610764  (  1.118166   0.357055   2.057421)
  16:       866.35    5.310310  (  1.786003  -1.456070  -0.019099)
  17:       922.87   14.562602  ( -0.153379   2.954741  -2.410100)
  18:       968.99   12.415368  (  1.292560  -2.030152  -2.573546)
  19:      1000.84   19.355094  ( -3.609148  -0.445353  -2.476047)
  20:      1037.22   19.131868  ( -3.097891  -3.022138  -0.633738)
  21:      1058.63    8.165934  ( -1.171520   0.362027  -2.581165)
  22:      1138.75    2.483613  (  0.231457  -0.142029   1.552375)
  23:      1148.41   12.731997  (  2.901500   1.904514   0.828323)
  24:      1160.03    9.640667  ( -1.461890  -2.660346   0.652765)
  25:      1177.37   29.082355  (  4.250811   3.102857  -1.176963)
  26:      1225.24    0.377074  (  0.100990  -0.553079  -0.246938)
  27:      1235.34    5.380268  (  0.149442  -0.833306   2.159522)
  28:      1262.42    4.488231  ( -1.638463  -0.006315  -1.342993)
  29:      1303.07    4.403576  ( -0.905429  -0.752332  -1.737173)
  30:      1336.60   35.942869  (  1.987770   5.312629  -1.941033)
  31:      1373.23   14.560449  (  1.830323   1.803511   2.820942)
  32:      1431.23   27.173568  ( -2.614824  -4.483612  -0.483207)
  33:      1454.33   12.654090  ( -3.166950   1.118282   1.172162)
  34:      1491.65    6.698708  ( -1.774300   1.844771   0.383910)
  35:      1509.64   14.318745  ( -2.202003  -1.020352  -2.903241)
  36:      1906.60  227.632583  (  1.554217   0.787749  14.986542)
  37:      3089.21    7.105858  ( -2.179749  -1.420376  -0.580589)
  38:      3111.33    0.547765  ( -0.148215   0.402573   0.603103)
  39:      3150.11    5.409710  ( -0.492135  -2.137473   0.773770)
  40:      3164.37    4.105739  (  0.243935  -1.918805   0.603673)
  41:      3172.02    1.295289  (  0.218274  -1.065332   0.335729)
  42:      3225.63   11.704587  (  3.237396   0.673279   0.877811)
  43:      3266.67   10.246640  (  2.752051   1.179179  -1.132428)
  44:      3550.99  124.303897  ( -7.403746   2.814630   7.846419)

--------------------------
THERMOCHEMISTRY AT 298.15K
--------------------------

Temperature         ... 298.15 K
Pressure            ... 1.00 atm
Total Mass          ... 98.12 AMU

Throughout the following assumptions are being made:
  (1) The electronic state is orbitally nondegenerate
  (2) There are no thermally accessible electronically excited states
  (3) Hindered rotations indicated by low frequency modes) are not
      treated as such but are treated as vibrations and this may
      case some error
  (4) All equations used are the standard statistical mechanics
      equations for an ideal gas
  (5) All vibrations are strinctly harmonic

------------
INNER ENERGY
------------

The inner energy is: U= E(el) + E(ZPE) + E(vib) + E(rot) + E(trans)
    E(el)   - is the total energy from the electronic structure calculation
              = E(kin-el) + E(nuc-el) + E(el-el) + E(nuc-nuc)
    E(ZPE)  - the the zero temperature vibrational energy from the frequency calculation
    E(vib)  - the the finite temperature correction to E(ZPE) due to population
              of excietd vibrational states
    E(rot)  - is the rotational thermal energy
    E(trans)- is the translational thermal energy

Summary of contributions to the inner energy U:
Electronic energy                ...   -324.77628093 Eh
Zero point energy                ...      0.13000378 Eh      81.58 kcal/mol
Thermal vibrational correction   ...      0.00301246 Eh       1.89 kcal/mol
Thermal rotational correction    ...      0.00141627 Eh       0.89 kcal/mol
Thermal translational correction ...      0.00141627 Eh       0.89 kcal/mol
-----------------------------------------------------------------------
Total thermal energy                   -324.64043215 Eh

Summary of corrections to the electronic energy:
(perhaps to be used in another calculation)
Total thermal correction                  0.00584501 Eh       3.67 kcal/mol
Non-thermal (ZPE) correction              0.13000378 Eh      81.58 kcal/mol
-----------------------------------------------------------------------
Total correction                          0.13584878 Eh      85.25 kcal/mol

--------
ENTHALPY
--------

The enthalpy is H = U + kB*T
                kB is Boltzmann's constant
Total free energy                 ...   -324.64043215 Eh
Thermal Enthalpy correction       ...      0.00094421 Eh       0.59 kcal/mol
-----------------------------------------------------------------------
Total Enthalpy                    ...   -324.63948794 Eh

-------
ENTROPY
-------

The entropy contributions are T*S = T*(S(el)+S(vib)+S(rot)+S(trans)
     S(el)   - electronic entropy
     S(vib)  - vibrational entropy
     S(rot)  - rotational entropy
     S(trans)- translational entropy
The entropies will be listed as mutliplied by the temperature to get
units of energy

Electronic entropy                ...      0.00000000 Eh      0.00 kcal/mol
Vibrational entropy               ...      0.00484606 Eh      3.04 kcal/mol
Rotational entropy                ...      0.01174343 Eh      7.37 kcal/mol
Translational entropy             ...      0.01884443 Eh     11.83 kcal/mol
-----------------------------------------------------------------------
Final entropy term                ...      0.03543392 Eh     22.24 kcal/mol

CAUTION: The rotational entropy is not quite correctly treated here
         because it includes a symmetry number that is not yet correctly
         implemented in ORCA!
For a nonlinear molecule the correct rotational entropy is:
    S(rot) = R*(ln(qrot/sn)+1.5)
    R    = 8.31441 J/mol/K = 1.987191683e-3 kcal/mol/K
    qrot = 168771.0877120
    sn is the rotational symmetry number. We have assumed 3 here
       if it is different for your molecule then you should correct
       the printed rotational entropy by manually evaluating the equation
       as given above

For convenience we print out the resulting values for sn=1 - 12:
 sn= 1  qrot/sn=  168771.0877 T*S(rot)=     8.02 kcal/mol T*S(tot)=    22.89 kcal/mol
 sn= 2  qrot/sn=   84385.5439 T*S(rot)=     7.61 kcal/mol T*S(tot)=    22.48 kcal/mol
 sn= 3  qrot/sn=   56257.0292 T*S(rot)=     7.37 kcal/mol T*S(tot)=    22.24 kcal/mol
 sn= 4  qrot/sn=   42192.7719 T*S(rot)=     7.20 kcal/mol T*S(tot)=    22.06 kcal/mol
 sn= 5  qrot/sn=   33754.2175 T*S(rot)=     7.07 kcal/mol T*S(tot)=    21.93 kcal/mol
 sn= 6  qrot/sn=   28128.5146 T*S(rot)=     6.96 kcal/mol T*S(tot)=    21.82 kcal/mol
 sn= 7  qrot/sn=   24110.1554 T*S(rot)=     6.87 kcal/mol T*S(tot)=    21.73 kcal/mol
 sn= 8  qrot/sn=   21096.3860 T*S(rot)=     6.79 kcal/mol T*S(tot)=    21.65 kcal/mol
 sn= 9  qrot/sn=   18752.3431 T*S(rot)=     6.72 kcal/mol T*S(tot)=    21.58 kcal/mol
 sn=10  qrot/sn=   16877.1088 T*S(rot)=     6.66 kcal/mol T*S(tot)=    21.52 kcal/mol
 sn=11  qrot/sn=   15342.8262 T*S(rot)=     6.60 kcal/mol T*S(tot)=    21.47 kcal/mol
 sn=12  qrot/sn=   14064.2573 T*S(rot)=     6.55 kcal/mol T*S(tot)=    21.41 kcal/mol

-------------------
GIBBS FREE ENTHALPY
-------------------

The Gibbs free enthalpy is G = H - T*S

Total enthalpy                    ...   -324.63948794 Eh
Total entropy correction          ...     -0.03543392 Eh    -22.24 kcal/mol
-----------------------------------------------------------------------
Final Gibbs free enthalpy         ...   -324.67492186 Eh

For completeness - the Gibbs free enthalpy minus the electronic energy
G-E(el)                           ...      0.10135907 Eh     63.60 kcal/mol

                             ****ORCA TERMINATED NORMALLY****
TOTAL RUN TIME: 0 days 0 hours 29 minutes 15 seconds 739 msec
