                         Program Version 3.0.3 - RELEASE   -
|  1> ! NORI PBE0 def2-TZVP UseSym TightOPT Freq TightSCF Grid3 FinalGrid5 XYZFile
|  2> % pal
|  3>     nprocs 8
|  4> end
|  5> %method
|  6>     SymThresh 5.0e-2
|  7> end
|  8> % geom
|  9>     MaxIter 10
| 10> end
| 11> % maxcore 2000
| 12> % output
| 13>     printlevel mini
| 14>     print[ P_Basis ] 0
| 15>     print[ P_SCFInfo ] 1
| 16>     print[ P_SCFIterInfo ] 1
| 17>     print[ P_OrbEn ] 0
| 18>     print[ P_Cartesian ] 0
| 19> end
| 20> % elprop
| 21>     Dipole false
| 22> end
| 23> *xyz 1 1
| 24>  O        1.0480851844     0.0050300405    -0.1269550173
| 25>  C        2.4587685517     0.0447261834    -0.0892263798
| 26>  C        2.9420973258    -1.3546146247    -0.4453445792
| 27>  C        2.5093702280    -1.7350923105    -1.8442469811
| 28>  N        3.0143554998    -0.7170986172    -2.8290921635
| 29>  C        2.5646659648     0.6809118267    -2.5071376930
| 30>  C        2.9967724005     1.0526335438    -1.1052309812
| 31>  H        0.6805696375     0.6898622193     0.4381558618
| 32>  H        2.8226572521     0.3038633345     0.9098006408
| 33>  H        4.0313517245    -1.4128138494    -0.3477890836
| 34>  H        2.5166540760    -2.0795099118     0.2502818185
| 35>  H        2.8970368234    -2.7061996009    -2.1531384840
| 36>  H        1.4225336030    -1.7369750649    -1.9326206012
| 37>  H        4.0362428408    -0.7441792389    -2.8422910519
| 38>  H        2.7051758283    -0.9672577363    -3.7690821503
| 39>  H        1.4770956572     0.6777814173    -2.5920085157
| 40>  H        2.9833181365     1.3413061752    -3.2667353815
| 41>  H        2.6145886703     2.0529304418    -0.8896288195
| 42>  H        4.0886305956     1.1132457720    -1.0386404383
| 43> *
| 44>
| 45>                          ****END OF INPUT****
 Total Charge           Charge          ....    1
 Multiplicity           Mult            ....    1
 Number of Electrons    NEL             ....   56
FINAL SINGLE POINT ENERGY      -327.245482704087

CARTESIAN COORDINATES (ANGSTROEM)
---------------------------------
  O      0.000398    0.000044    1.862144
  C     -0.938267    0.013238    0.807696
  C     -0.662260    1.271724   -0.003483
  C      0.728695    1.236366   -0.597358
  N      0.892729    0.000060   -1.437591
  C      0.620648   -1.265893   -0.673725
  C     -0.769722   -1.221297   -0.078422
  H     -0.337456   -0.511510    2.602099
  H     -1.963537    0.052278    1.188426
  H     -1.415766    1.385640   -0.789636
  H     -0.733558    2.148890    0.641517
  H      0.932963    2.094465   -1.238162
  H      1.488181    1.181755    0.183231
  H      0.255677    0.052148   -2.235443
  H      1.837603   -0.029637   -1.822480
  H      1.378328   -1.317483    0.108973
  H      0.757926   -2.098982   -1.363444
  H     -0.915270   -2.132981    0.505322
  H     -1.530598   -1.229735   -0.866758

FINAL SINGLE POINT ENERGY      -327.245483534975
                    ***********************HURRAY********************
 Multiplicity           Mult            ....    1
 Number of Electrons    NEL             ....   56
 Basis Dimension        Dim             ....  289
FINAL SINGLE POINT ENERGY      -327.245483867291

VIBRATIONAL FREQUENCIES
-----------------------

   0:         0.00 cm**-1
   1:         0.00 cm**-1
   2:         0.00 cm**-1
   3:         0.00 cm**-1
   4:         0.00 cm**-1
   5:         0.00 cm**-1
   6:       160.74 cm**-1
   7:       209.92 cm**-1
   8:       242.29 cm**-1
   9:       300.96 cm**-1
  10:       394.15 cm**-1
  11:       400.54 cm**-1
  12:       485.23 cm**-1
  13:       504.68 cm**-1
  14:       671.40 cm**-1
  15:       791.16 cm**-1
  16:       806.12 cm**-1
  17:       844.50 cm**-1
  18:       877.44 cm**-1
  19:       884.57 cm**-1
  20:       982.50 cm**-1
  21:      1002.37 cm**-1
  22:      1027.64 cm**-1
  23:      1036.72 cm**-1
  24:      1068.09 cm**-1
  25:      1085.41 cm**-1
  26:      1154.88 cm**-1
  27:      1168.80 cm**-1
  28:      1188.90 cm**-1
  29:      1244.36 cm**-1
  30:      1290.91 cm**-1
  31:      1318.72 cm**-1
  32:      1343.64 cm**-1
  33:      1368.51 cm**-1
  34:      1370.63 cm**-1
  35:      1393.28 cm**-1
  36:      1418.01 cm**-1
  37:      1420.78 cm**-1
  38:      1436.50 cm**-1
  39:      1441.51 cm**-1
  40:      1466.38 cm**-1
  41:      1476.31 cm**-1
  42:      1483.75 cm**-1
  43:      1503.93 cm**-1
  44:      1646.25 cm**-1
  45:      3057.08 cm**-1
  46:      3065.11 cm**-1
  47:      3076.94 cm**-1
  48:      3102.14 cm**-1
  49:      3103.23 cm**-1
  50:      3119.72 cm**-1
  51:      3134.36 cm**-1
  52:      3162.22 cm**-1
  53:      3163.40 cm**-1
  54:      3440.45 cm**-1
  55:      3499.38 cm**-1
  56:      3869.44 cm**-1

IR SPECTRUM
-----------

 Mode    freq (cm**-1)   T**2         TX         TY         TZ
-------------------------------------------------------------------
   6:       160.74   16.150173  (  0.196629   1.321750   3.790051)
   7:       209.92    5.570917  (  1.241395  -1.926658  -0.563775)
   8:       242.29  113.107786  ( -4.913023   8.121510   4.796985)
   9:       300.96    6.951377  ( -1.736138  -0.040106   1.983833)
  10:       394.15    0.967597  ( -0.117766  -0.930909   0.295190)
  11:       400.54    2.806168  (  0.108057   0.004874  -1.671666)
  12:       485.23    5.323624  (  2.106123   0.205289   0.919634)
  13:       504.68    1.746679  ( -0.575296   0.073934  -1.187538)
  14:       671.40    1.928482  (  0.422402   0.578205   1.189848)
  15:       791.16    2.305406  (  0.081263  -1.452281  -0.435524)
  16:       806.12    2.296031  ( -0.376748   0.057069   1.466573)
  17:       844.50    0.398216  ( -0.092374  -0.012990  -0.624111)
  18:       877.44   12.848620  (  3.566289   0.071570   0.353672)
  19:       884.57    0.908540  (  0.283031  -0.827377   0.379315)
  20:       982.50   14.889694  (  0.255761  -3.770407   0.779942)
  21:      1002.37   28.817284  ( -2.836894   0.171017  -4.554126)
  22:      1027.64   16.246441  (  1.330172  -3.213751   2.036882)
  23:      1036.72   34.652830  ( -2.497964  -2.075248  -4.909822)
  24:      1068.09   12.088333  (  0.083171  -0.219487  -3.468896)
  25:      1085.41    0.388369  ( -0.471697   0.407227   0.006112)
  26:      1154.88    1.746562  ( -0.795810  -0.097932  -1.050551)
  27:      1168.80   10.472563  ( -2.327588   0.411363  -2.210357)
  28:      1188.90   17.522967  (  2.821009   0.506323   3.050986)
  29:      1244.36   53.295771  ( -4.160575  -0.395495  -5.985731)
  30:      1290.91    8.873945  (  0.533040   0.263444   2.918974)
  31:      1318.72   16.201592  (  0.118183   4.021644   0.118353)
  32:      1343.64    4.079270  ( -0.623543   0.324718   1.893416)
  33:      1368.51    3.188882  ( -0.160926  -0.557268  -1.688916)
  34:      1370.63    8.709501  ( -0.090539   2.613192   1.368404)
  35:      1393.28    0.680022  ( -0.016026  -0.771071   0.291915)
  36:      1418.01    9.025186  (  2.039214  -2.203414  -0.108427)
  37:      1420.78   44.761603  ( -1.568882  -6.500317  -0.214697)
  38:      1436.50    7.117942  (  1.548283   2.030956  -0.771998)
  39:      1441.51    5.352857  (  1.813188  -1.426847  -0.171218)
  40:      1466.38    3.415706  ( -0.983897   1.544943  -0.246581)
  41:      1476.31   13.424829  (  3.596732  -0.003722   0.698807)
  42:      1483.75   10.103749  ( -0.004831   3.171660   0.210473)
  43:      1503.93   22.600523  ( -4.723227  -0.106710   0.529394)
  44:      1646.25   70.357619  ( -1.542722  -0.196770   8.242506)
  45:      3057.08    2.920102  (  0.465087   0.596231   1.532418)
  46:      3065.11    4.409489  (  0.795481   0.158973  -1.936860)
  47:      3076.94   19.937725  (  4.315085  -0.224171   1.125840)
  48:      3102.14    2.832714  ( -1.079505   0.578730   1.154319)
  49:      3103.23    2.346973  ( -1.022006  -0.724935   0.881446)
  50:      3119.72    2.925141  (  0.681144  -1.213136   0.994728)
  51:      3134.36    0.895288  ( -0.702541  -0.494224  -0.396821)
  52:      3162.22    0.291913  ( -0.138870  -0.510356  -0.110295)
  53:      3163.40    0.149912  ( -0.034590   0.377490  -0.078846)
  54:      3440.45   45.351627  (  1.554526   0.166893  -6.550361)
  55:      3499.38   68.707315  ( -8.278337   0.352918  -0.227829)
  56:      3869.44   92.488870  ( -1.419980  -3.377928   8.891689)

--------------------------
THERMOCHEMISTRY AT 298.15K
--------------------------

Temperature         ... 298.15 K
Pressure            ... 1.00 atm
Total Mass          ... 102.16 AMU

Throughout the following assumptions are being made:
  (1) The electronic state is orbitally nondegenerate
  (2) There are no thermally accessible electronically excited states
  (3) Hindered rotations indicated by low frequency modes) are not
      treated as such but are treated as vibrations and this may
      case some error
  (4) All equations used are the standard statistical mechanics
      equations for an ideal gas
  (5) All vibrations are strinctly harmonic

------------
INNER ENERGY
------------

The inner energy is: U= E(el) + E(ZPE) + E(vib) + E(rot) + E(trans)
    E(el)   - is the total energy from the electronic structure calculation
              = E(kin-el) + E(nuc-el) + E(el-el) + E(nuc-nuc)
    E(ZPE)  - the the zero temperature vibrational energy from the frequency calculation
    E(vib)  - the the finite temperature correction to E(ZPE) due to population
              of excietd vibrational states
    E(rot)  - is the rotational thermal energy
    E(trans)- is the translational thermal energy

Summary of contributions to the inner energy U:
Electronic energy                ...   -327.24548387 Eh
Zero point energy                ...      0.17930531 Eh     112.52 kcal/mol
Thermal vibrational correction   ...      0.00400386 Eh       2.51 kcal/mol
Thermal rotational correction    ...      0.00141627 Eh       0.89 kcal/mol
Thermal translational correction ...      0.00141627 Eh       0.89 kcal/mol
-----------------------------------------------------------------------
Total thermal energy                   -327.05934216 Eh

Summary of corrections to the electronic energy:
(perhaps to be used in another calculation)
Total thermal correction                  0.00683640 Eh       4.29 kcal/mol
Non-thermal (ZPE) correction              0.17930531 Eh     112.52 kcal/mol
-----------------------------------------------------------------------
Total correction                          0.18614171 Eh     116.81 kcal/mol

--------
ENTHALPY
--------

The enthalpy is H = U + kB*T
                kB is Boltzmann's constant
Total free energy                 ...   -327.05934216 Eh
Thermal Enthalpy correction       ...      0.00094421 Eh       0.59 kcal/mol
-----------------------------------------------------------------------
Total Enthalpy                    ...   -327.05839795 Eh

-------
ENTROPY
-------

The entropy contributions are T*S = T*(S(el)+S(vib)+S(rot)+S(trans)
     S(el)   - electronic entropy
     S(vib)  - vibrational entropy
     S(rot)  - rotational entropy
     S(trans)- translational entropy
The entropies will be listed as mutliplied by the temperature to get
units of energy

Electronic entropy                ...      0.00000000 Eh      0.00 kcal/mol
Vibrational entropy               ...      0.00628634 Eh      3.94 kcal/mol
Rotational entropy                ...      0.01188199 Eh      7.46 kcal/mol
Translational entropy             ...      0.01890147 Eh     11.86 kcal/mol
-----------------------------------------------------------------------
Final entropy term                ...      0.03706979 Eh     23.26 kcal/mol

CAUTION: The rotational entropy is not quite correctly treated here
         because it includes a symmetry number that is not yet correctly
         implemented in ORCA!
For a nonlinear molecule the correct rotational entropy is:
    S(rot) = R*(ln(qrot/sn)+1.5)
    R    = 8.31441 J/mol/K = 1.987191683e-3 kcal/mol/K
    qrot = 195448.6520939
    sn is the rotational symmetry number. We have assumed 3 here
       if it is different for your molecule then you should correct
       the printed rotational entropy by manually evaluating the equation
       as given above

For convenience we print out the resulting values for sn=1 - 12:
 sn= 1  qrot/sn=  195448.6521 T*S(rot)=     8.11 kcal/mol T*S(tot)=    23.91 kcal/mol
 sn= 2  qrot/sn=   97724.3260 T*S(rot)=     7.70 kcal/mol T*S(tot)=    23.50 kcal/mol
 sn= 3  qrot/sn=   65149.5507 T*S(rot)=     7.46 kcal/mol T*S(tot)=    23.26 kcal/mol
 sn= 4  qrot/sn=   48862.1630 T*S(rot)=     7.29 kcal/mol T*S(tot)=    23.09 kcal/mol
 sn= 5  qrot/sn=   39089.7304 T*S(rot)=     7.15 kcal/mol T*S(tot)=    22.96 kcal/mol
 sn= 6  qrot/sn=   32574.7753 T*S(rot)=     7.05 kcal/mol T*S(tot)=    22.85 kcal/mol
 sn= 7  qrot/sn=   27921.2360 T*S(rot)=     6.95 kcal/mol T*S(tot)=    22.76 kcal/mol
 sn= 8  qrot/sn=   24431.0815 T*S(rot)=     6.87 kcal/mol T*S(tot)=    22.68 kcal/mol
 sn= 9  qrot/sn=   21716.5169 T*S(rot)=     6.81 kcal/mol T*S(tot)=    22.61 kcal/mol
 sn=10  qrot/sn=   19544.8652 T*S(rot)=     6.74 kcal/mol T*S(tot)=    22.55 kcal/mol
 sn=11  qrot/sn=   17768.0593 T*S(rot)=     6.69 kcal/mol T*S(tot)=    22.49 kcal/mol
 sn=12  qrot/sn=   16287.3877 T*S(rot)=     6.63 kcal/mol T*S(tot)=    22.44 kcal/mol

-------------------
GIBBS FREE ENTHALPY
-------------------

The Gibbs free enthalpy is G = H - T*S

Total enthalpy                    ...   -327.05839795 Eh
Total entropy correction          ...     -0.03706979 Eh    -23.26 kcal/mol
-----------------------------------------------------------------------
Final Gibbs free enthalpy         ...   -327.09546774 Eh

For completeness - the Gibbs free enthalpy minus the electronic energy
G-E(el)                           ...      0.15001613 Eh     94.14 kcal/mol

                             ****ORCA TERMINATED NORMALLY****
TOTAL RUN TIME: 0 days 0 hours 47 minutes 52 seconds 254 msec
