                         Program Version 3.0.3 - RELEASE   -
|  1> ! NORI PBE0 def2-TZVP UseSym TightOPT Freq TightSCF Grid3 FinalGrid5 XYZFile
|  2> % pal
|  3>     nprocs 8
|  4> end
|  5> %method
|  6>     SymThresh 5.0e-2
|  7> end
|  8> % geom
|  9>     MaxIter 10
| 10> end
| 11> % maxcore 2000
| 12> % output
| 13>     printlevel mini
| 14>     print[ P_Basis ] 0
| 15>     print[ P_SCFInfo ] 1
| 16>     print[ P_SCFIterInfo ] 1
| 17>     print[ P_OrbEn ] 0
| 18>     print[ P_Cartesian ] 0
| 19> end
| 20> % elprop
| 21>     Dipole false
| 22> end
| 23> *xyz 1 1
| 24>  O        1.0100412526     0.1038092717     0.2359912799
| 25>  C        2.1880207019     0.0787870242     0.0368497626
| 26>  C        2.9752030097    -1.2166007694    -0.0578958891
| 27>  C        3.9404739583    -1.2257512803    -1.2273951799
| 28>  N        4.7951736011     0.0086392609    -1.2090769528
| 29>  C        3.9866834222     1.2723766811    -1.2718784044
| 30>  C        3.0217742119     1.3404966136    -0.1039085288
| 31>  H        3.5213929453    -1.3519380580     0.8844076541
| 32>  H        2.2801485336    -2.0516603495    -0.1491301681
| 33>  H        4.6067535631    -2.0889648434    -1.2062371137
| 34>  H        3.4157586673    -1.2179651935    -2.1847678924
| 35>  H        5.3651489509     0.0133401348    -0.3595563699
| 36>  H        5.4486334942    -0.0174792839    -1.9941641740
| 37>  H        3.4619943353     1.2503260378    -2.2289990373
| 38>  H        4.6846087130     2.1104796215    -1.2804305686
| 39>  H        2.3576837796     2.1964090431    -0.2264079882
| 40>  H        3.5723668599     1.4899760893     0.8336495706
| 41> *
| 42>
| 43>                          ****END OF INPUT****
 Total Charge           Charge          ....    1
 Multiplicity           Mult            ....    1
 Number of Electrons    NEL             ....   54
FINAL SINGLE POINT ENERGY      -326.022637653245

CARTESIAN COORDINATES (ANGSTROEM)
---------------------------------
  O      2.275980   -0.000556   -0.000000
  C      1.099145   -0.207609   -0.000000
  C      0.295960   -0.367103    1.279129
  C     -1.005314    0.411450    1.249465
  N     -1.775682    0.094206    0.000000
  C     -1.005314    0.411450   -1.249465
  C      0.295960   -0.367103   -1.279129
  H      0.093994   -1.436434    1.422419
  H      0.900747   -0.038355    2.124613
  H     -1.645919    0.177447    2.100525
  H     -0.831463    1.489081    1.233790
  H     -2.027730   -0.897292    0.000000
  H     -2.654840    0.614608   -0.000000
  H     -0.831463    1.489081   -1.233790
  H     -1.645919    0.177447   -2.100525
  H      0.900747   -0.038355   -2.124613
  H      0.093994   -1.436435   -1.422419

FINAL SINGLE POINT ENERGY      -326.022638267728
                    ***********************HURRAY********************
 Multiplicity           Mult            ....    1
 Number of Electrons    NEL             ....   54
 Basis Dimension        Dim             ....  277
FINAL SINGLE POINT ENERGY      -326.022638616292

VIBRATIONAL FREQUENCIES
-----------------------

   0:         0.00 cm**-1
   1:         0.00 cm**-1
   2:         0.00 cm**-1
   3:         0.00 cm**-1
   4:         0.00 cm**-1
   5:         0.00 cm**-1
   6:        88.95 cm**-1
   7:       179.16 cm**-1
   8:       305.87 cm**-1
   9:       397.85 cm**-1
  10:       425.53 cm**-1
  11:       475.50 cm**-1
  12:       488.07 cm**-1
  13:       661.88 cm**-1
  14:       755.22 cm**-1
  15:       760.08 cm**-1
  16:       832.70 cm**-1
  17:       880.98 cm**-1
  18:       909.20 cm**-1
  19:       951.84 cm**-1
  20:      1009.39 cm**-1
  21:      1043.07 cm**-1
  22:      1068.19 cm**-1
  23:      1106.01 cm**-1
  24:      1138.55 cm**-1
  25:      1174.39 cm**-1
  26:      1243.61 cm**-1
  27:      1271.93 cm**-1
  28:      1312.31 cm**-1
  29:      1322.87 cm**-1
  30:      1362.56 cm**-1
  31:      1374.46 cm**-1
  32:      1417.04 cm**-1
  33:      1422.71 cm**-1
  34:      1433.43 cm**-1
  35:      1451.28 cm**-1
  36:      1456.39 cm**-1
  37:      1491.27 cm**-1
  38:      1509.67 cm**-1
  39:      1647.16 cm**-1
  40:      1868.04 cm**-1
  41:      3043.10 cm**-1
  42:      3048.40 cm**-1
  43:      3094.60 cm**-1
  44:      3095.46 cm**-1
  45:      3144.61 cm**-1
  46:      3145.03 cm**-1
  47:      3152.67 cm**-1
  48:      3153.98 cm**-1
  49:      3434.43 cm**-1
  50:      3491.47 cm**-1

IR SPECTRUM
-----------

 Mode    freq (cm**-1)   T**2         TX         TY         TZ
-------------------------------------------------------------------
   6:        88.95    0.873802  ( -0.572107   0.739253  -0.000006)
   7:       179.16    0.069849  ( -0.000007   0.000003   0.264290)
   8:       305.87    8.027273  (  2.254845  -1.715502  -0.000000)
   9:       397.85    4.353185  (  2.063368   0.309350  -0.000013)
  10:       425.53    1.530749  (  0.000005   0.000007   1.237234)
  11:       475.50    2.224322  ( -1.210055   0.871831  -0.000016)
  12:       488.07    7.940399  ( -0.000003   0.000001   2.817871)
  13:       661.88    1.930877  (  0.421777   1.324002   0.000003)
  14:       755.22    4.898503  ( -1.788281  -1.304053  -0.000004)
  15:       760.08    5.978433  ( -0.000001   0.000002  -2.445083)
  16:       832.70    1.313681  (  0.826684  -0.793899  -0.000003)
  17:       880.98    8.305815  (  2.697664  -1.014113  -0.000002)
  18:       909.20    0.329511  (  0.000013  -0.000006   0.574031)
  19:       951.84   11.166012  ( -0.000000  -0.000000  -3.341558)
  20:      1009.39    5.442522  ( -0.588534  -2.257465   0.000006)
  21:      1043.07    7.190286  ( -2.448401   1.093444  -0.000001)
  22:      1068.19    5.261387  (  0.000005  -0.000000   2.293771)
  23:      1106.01   17.945207  ( -0.000002   0.000001   4.236178)
  24:      1138.55    0.842017  (  0.311214  -0.863228   0.000007)
  25:      1174.39   11.574226  ( -0.000001   0.000002   3.402091)
  26:      1243.61   24.906784  ( -0.000000   0.000000   4.990670)
  27:      1271.93    1.715956  (  0.772093  -1.058219  -0.000004)
  28:      1312.31    4.352834  (  0.000007   0.000015   2.086345)
  29:      1322.87    3.680828  (  1.653814   0.972485  -0.000032)
  30:      1362.56   51.867099  ( -0.000001   0.000001  -7.201882)
  31:      1374.46    2.960144  ( -0.850894   1.495367  -0.000007)
  32:      1417.04   44.724739  (  0.000040  -0.000008   6.687656)
  33:      1422.71    5.210408  ( -2.205909   0.586834   0.000142)
  34:      1433.43   12.449980  ( -0.000025   0.000011  -3.528453)
  35:      1451.28    2.088301  (  0.000001  -0.000001   1.445095)
  36:      1456.39   17.611706  ( -1.569878   3.891939  -0.000010)
  37:      1491.27    8.996562  ( -0.000010   0.000010   2.999427)
  38:      1509.67   19.673966  (  2.434571  -3.707672   0.000006)
  39:      1647.16   74.303329  (  7.758014   3.757200  -0.000001)
  40:      1868.04  185.834842  (-13.493199  -1.941243   0.000002)
  41:      3043.10    3.247630  (  0.000000  -0.000000  -1.802118)
  42:      3048.40    1.275944  (  0.626333   0.940027  -0.000005)
  43:      3094.60    0.287970  ( -0.000019   0.000022  -0.536628)
  44:      3095.46    3.296556  (  1.224954  -1.340166  -0.000007)
  45:      3144.61    1.231309  (  0.000003   0.000000  -1.109644)
  46:      3145.03    2.868108  (  1.668720   0.288929  -0.000015)
  47:      3152.67    0.449241  ( -0.000003  -0.000001   0.670254)
  48:      3153.98    0.078114  (  0.262424   0.096167   0.000001)
  49:      3434.43   53.394750  (  6.688061   2.943567  -0.000000)
  50:      3491.47   77.718181  (  5.149284  -7.155631  -0.000000)

--------------------------
THERMOCHEMISTRY AT 298.15K
--------------------------

Temperature         ... 298.15 K
Pressure            ... 1.00 atm
Total Mass          ... 100.14 AMU

Throughout the following assumptions are being made:
  (1) The electronic state is orbitally nondegenerate
  (2) There are no thermally accessible electronically excited states
  (3) Hindered rotations indicated by low frequency modes) are not
      treated as such but are treated as vibrations and this may
      case some error
  (4) All equations used are the standard statistical mechanics
      equations for an ideal gas
  (5) All vibrations are strinctly harmonic

------------
INNER ENERGY
------------

The inner energy is: U= E(el) + E(ZPE) + E(vib) + E(rot) + E(trans)
    E(el)   - is the total energy from the electronic structure calculation
              = E(kin-el) + E(nuc-el) + E(el-el) + E(nuc-nuc)
    E(ZPE)  - the the zero temperature vibrational energy from the frequency calculation
    E(vib)  - the the finite temperature correction to E(ZPE) due to population
              of excietd vibrational states
    E(rot)  - is the rotational thermal energy
    E(trans)- is the translational thermal energy

Summary of contributions to the inner energy U:
Electronic energy                ...   -326.02263862 Eh
Zero point energy                ...      0.15500859 Eh      97.27 kcal/mol
Thermal vibrational correction   ...      0.00364121 Eh       2.28 kcal/mol
Thermal rotational correction    ...      0.00141627 Eh       0.89 kcal/mol
Thermal translational correction ...      0.00141627 Eh       0.89 kcal/mol
-----------------------------------------------------------------------
Total thermal energy                   -325.86115627 Eh

Summary of corrections to the electronic energy:
(perhaps to be used in another calculation)
Total thermal correction                  0.00647376 Eh       4.06 kcal/mol
Non-thermal (ZPE) correction              0.15500859 Eh      97.27 kcal/mol
-----------------------------------------------------------------------
Total correction                          0.16148234 Eh     101.33 kcal/mol

--------
ENTHALPY
--------

The enthalpy is H = U + kB*T
                kB is Boltzmann's constant
Total free energy                 ...   -325.86115627 Eh
Thermal Enthalpy correction       ...      0.00094421 Eh       0.59 kcal/mol
-----------------------------------------------------------------------
Total Enthalpy                    ...   -325.86021206 Eh

-------
ENTROPY
-------

The entropy contributions are T*S = T*(S(el)+S(vib)+S(rot)+S(trans)
     S(el)   - electronic entropy
     S(vib)  - vibrational entropy
     S(rot)  - rotational entropy
     S(trans)- translational entropy
The entropies will be listed as mutliplied by the temperature to get
units of energy

Electronic entropy                ...      0.00000000 Eh      0.00 kcal/mol
Vibrational entropy               ...      0.00605854 Eh      3.80 kcal/mol
Rotational entropy                ...      0.01191650 Eh      7.48 kcal/mol
Translational entropy             ...      0.01887324 Eh     11.84 kcal/mol
-----------------------------------------------------------------------
Final entropy term                ...      0.03684827 Eh     23.12 kcal/mol

CAUTION: The rotational entropy is not quite correctly treated here
         because it includes a symmetry number that is not yet correctly
         implemented in ORCA!
For a nonlinear molecule the correct rotational entropy is:
    S(rot) = R*(ln(qrot/sn)+1.5)
    R    = 8.31441 J/mol/K = 1.987191683e-3 kcal/mol/K
    qrot = 202724.0255960
    sn is the rotational symmetry number. We have assumed 3 here
       if it is different for your molecule then you should correct
       the printed rotational entropy by manually evaluating the equation
       as given above

For convenience we print out the resulting values for sn=1 - 12:
 sn= 1  qrot/sn=  202724.0256 T*S(rot)=     8.13 kcal/mol T*S(tot)=    23.77 kcal/mol
 sn= 2  qrot/sn=  101362.0128 T*S(rot)=     7.72 kcal/mol T*S(tot)=    23.36 kcal/mol
 sn= 3  qrot/sn=   67574.6752 T*S(rot)=     7.48 kcal/mol T*S(tot)=    23.12 kcal/mol
 sn= 4  qrot/sn=   50681.0064 T*S(rot)=     7.31 kcal/mol T*S(tot)=    22.95 kcal/mol
 sn= 5  qrot/sn=   40544.8051 T*S(rot)=     7.18 kcal/mol T*S(tot)=    22.82 kcal/mol
 sn= 6  qrot/sn=   33787.3376 T*S(rot)=     7.07 kcal/mol T*S(tot)=    22.71 kcal/mol
 sn= 7  qrot/sn=   28960.5751 T*S(rot)=     6.98 kcal/mol T*S(tot)=    22.62 kcal/mol
 sn= 8  qrot/sn=   25340.5032 T*S(rot)=     6.90 kcal/mol T*S(tot)=    22.54 kcal/mol
 sn= 9  qrot/sn=   22524.8917 T*S(rot)=     6.83 kcal/mol T*S(tot)=    22.47 kcal/mol
 sn=10  qrot/sn=   20272.4026 T*S(rot)=     6.76 kcal/mol T*S(tot)=    22.41 kcal/mol
 sn=11  qrot/sn=   18429.4569 T*S(rot)=     6.71 kcal/mol T*S(tot)=    22.35 kcal/mol
 sn=12  qrot/sn=   16893.6688 T*S(rot)=     6.66 kcal/mol T*S(tot)=    22.30 kcal/mol

-------------------
GIBBS FREE ENTHALPY
-------------------

The Gibbs free enthalpy is G = H - T*S

Total enthalpy                    ...   -325.86021206 Eh
Total entropy correction          ...     -0.03684827 Eh    -23.12 kcal/mol
-----------------------------------------------------------------------
Final Gibbs free enthalpy         ...   -325.89706034 Eh

For completeness - the Gibbs free enthalpy minus the electronic energy
G-E(el)                           ...      0.12557828 Eh     78.80 kcal/mol

                             ****ORCA TERMINATED NORMALLY****
TOTAL RUN TIME: 0 days 0 hours 39 minutes 12 seconds 9 msec
