                         Program Version 3.0.3 - RELEASE   -
|  1> ! NORI PBE0 def2-TZVP UseSym TightOPT Freq TightSCF Grid3 FinalGrid5 XYZFile
|  2> % pal
|  3>     nprocs 8
|  4> end
|  5> %method
|  6>     SymThresh 5.0e-2
|  7> end
|  8> % geom
|  9>     MaxIter 10
| 10> end
| 11> % maxcore 2000
| 12> % output
| 13>     printlevel mini
| 14>     print[ P_Basis ] 0
| 15>     print[ P_SCFInfo ] 1
| 16>     print[ P_SCFIterInfo ] 1
| 17>     print[ P_OrbEn ] 0
| 18>     print[ P_Cartesian ] 0
| 19> end
| 20> % elprop
| 21>     Dipole false
| 22> end
| 23> *xyz 1 1
| 24>  O        0.9464122898    -0.0642377182     0.1618162562
| 25>  C        2.3337515060     0.0165755496     0.0653912463
| 26>  C        2.9509114314    -1.1059456877     0.9348736002
| 27>  N        3.6865455740    -0.2630438610     1.9313978902
| 28>  C        4.3760862938     0.7555818252     1.0474690490
| 29>  C        2.9362683963     1.2318639290     0.7983533127
| 30>  C        2.6876728876     0.8303013468     2.2602571477
| 31>  H        0.5294486403     0.3809763005    -0.5815873281
| 32>  H        2.6802996252    -0.0398931573    -0.9704665503
| 33>  H        3.6553371332    -1.7560629422     0.4194816393
| 34>  H        2.1816155951    -1.6917697897     1.4351005989
| 35>  H        4.1916632437    -0.7559774271     2.6661351611
| 36>  H        4.9783895970     1.4307013421     1.6526403119
| 37>  H        4.9538317417     0.3105251266     0.2378968156
| 38>  H        2.7103427581     2.2244313334     0.4243068014
| 39>  H        1.7067831764     0.4589614268     2.5491586476
| 40>  H        3.1148701102     1.5068924033     2.9980054003
| 41> *
| 42>
| 43>                          ****END OF INPUT****
 Total Charge           Charge          ....    1
 Multiplicity           Mult            ....    1
 Number of Electrons    NEL             ....   54
FINAL SINGLE POINT ENERGY      -325.987858267351

CARTESIAN COORDINATES (ANGSTROEM)
---------------------------------
  O      0.000454    0.000085    2.064360
  C     -0.365433   -0.561570    0.843184
  C      0.923504   -0.910031    0.059471
  N      0.743868   -0.000230   -1.117594
  C     -0.703645   -0.239915   -1.494820
  C     -0.970359    0.452169   -0.148734
  C      0.270596    1.293902   -0.482602
  H     -0.722147   -0.063574    2.695720
  H     -1.010164   -1.436155    0.966977
  H      0.991359   -1.940075   -0.285183
  H      1.816411   -0.630733    0.615996
  H      1.482615   -0.005583   -1.819219
  H     -0.966389    0.353018   -2.368966
  H     -0.951345   -1.292518   -1.628628
  H     -1.927349    0.902170    0.092184
  H      0.906559    1.646391    0.326979
  H      0.117099    2.045870   -1.254118

FINAL SINGLE POINT ENERGY      -325.987858962001
                    ***********************HURRAY********************
 Multiplicity           Mult            ....    1
 Number of Electrons    NEL             ....   54
 Basis Dimension        Dim             ....  277
FINAL SINGLE POINT ENERGY      -325.987859216483

VIBRATIONAL FREQUENCIES
-----------------------

   0:         0.00 cm**-1
   1:         0.00 cm**-1
   2:         0.00 cm**-1
   3:         0.00 cm**-1
   4:         0.00 cm**-1
   5:         0.00 cm**-1
   6:       195.56 cm**-1
   7:       259.62 cm**-1
   8:       354.58 cm**-1
   9:       459.17 cm**-1
  10:       488.67 cm**-1
  11:       551.93 cm**-1
  12:       676.17 cm**-1
  13:       835.46 cm**-1
  14:       851.04 cm**-1
  15:       865.81 cm**-1
  16:       867.59 cm**-1
  17:       883.94 cm**-1
  18:       951.46 cm**-1
  19:       970.28 cm**-1
  20:      1003.54 cm**-1
  21:      1030.03 cm**-1
  22:      1050.98 cm**-1
  23:      1094.55 cm**-1
  24:      1097.38 cm**-1
  25:      1152.81 cm**-1
  26:      1168.89 cm**-1
  27:      1190.07 cm**-1
  28:      1235.85 cm**-1
  29:      1250.64 cm**-1
  30:      1255.91 cm**-1
  31:      1269.42 cm**-1
  32:      1281.11 cm**-1
  33:      1313.27 cm**-1
  34:      1328.95 cm**-1
  35:      1354.78 cm**-1
  36:      1379.08 cm**-1
  37:      1445.90 cm**-1
  38:      1490.25 cm**-1
  39:      1491.91 cm**-1
  40:      1531.77 cm**-1
  41:      3084.26 cm**-1
  42:      3111.98 cm**-1
  43:      3121.62 cm**-1
  44:      3123.31 cm**-1
  45:      3189.82 cm**-1
  46:      3193.05 cm**-1
  47:      3203.21 cm**-1
  48:      3204.31 cm**-1
  49:      3506.34 cm**-1
  50:      3861.81 cm**-1

IR SPECTRUM
-----------

 Mode    freq (cm**-1)   T**2         TX         TY         TZ
-------------------------------------------------------------------
   6:       195.56    5.134092  (  0.197721  -0.575330   2.182658)
   7:       259.62  116.128207  ( -3.076463   9.717319  -3.498184)
   8:       354.58    8.691180  ( -0.518559   1.832430  -2.250439)
   9:       459.17    6.189118  (  0.382067  -0.372787   2.429850)
  10:       488.67    6.152806  ( -0.166550   0.421205  -2.438781)
  11:       551.93    2.164613  ( -0.020430  -0.314922   1.437018)
  12:       676.17    0.995973  ( -0.693119  -0.065915  -0.714993)
  13:       835.46    5.345485  (  0.273623  -2.203816  -0.643282)
  14:       851.04    4.227568  ( -0.222967   0.728812  -1.909630)
  15:       865.81    7.653998  (  2.174596  -1.674710   0.347097)
  16:       867.59    3.447562  ( -1.446628  -1.146337   0.201845)
  17:       883.94    1.609833  (  1.101752   0.212129  -0.592433)
  18:       951.46    1.929584  ( -1.103777   0.626561  -0.564519)
  19:       970.28   12.442171  ( -1.373775   1.027715  -3.081999)
  20:      1003.54   22.906531  ( -0.305444  -1.848598  -4.404080)
  21:      1030.03    2.666497  ( -0.704795   1.311713  -0.670202)
  22:      1050.98    0.453972  ( -0.163110   0.637625   0.144227)
  23:      1094.55   29.318270  ( -1.731509  -2.119343  -4.672101)
  24:      1097.38   15.042480  (  0.974614   0.097852   3.752737)
  25:      1152.81   11.676664  (  1.171660   0.773474   3.115383)
  26:      1168.89    3.025596  ( -0.377405  -1.631690  -0.469840)
  27:      1190.07   26.999516  ( -0.029573  -1.228350  -5.048742)
  28:      1235.85   21.431281  ( -2.393852  -3.348597  -2.118409)
  29:      1250.64    4.078839  ( -0.236714  -1.252023   1.566922)
  30:      1255.91   10.468072  (  0.317212   2.516354   2.008834)
  31:      1269.42   62.035289  (  2.458467   0.670132   7.452661)
  32:      1281.11    4.733290  (  0.359600   2.054551   0.618706)
  33:      1313.27    5.889256  (  0.564160  -2.343937   0.277378)
  34:      1328.95   50.567673  (  3.599076   3.617654   4.952465)
  35:      1354.78   19.470620  (  2.571134  -0.845588  -3.484949)
  36:      1379.08   16.645297  (  1.975440  -3.441322   0.948810)
  37:      1445.90   13.451999  (  1.403713   1.981518  -2.748668)
  38:      1490.25   12.602989  ( -0.070996  -3.500749  -0.585412)
  39:      1491.91   11.312453  ( -3.013038  -0.175021  -1.484393)
  40:      1531.77    9.866599  (  1.930841   0.232026  -2.466702)
  41:      3084.26   10.321688  ( -1.842652  -2.568447  -0.573936)
  42:      3111.98    2.103660  (  0.621496   0.973173   0.877689)
  43:      3121.62    0.941590  ( -0.229823  -0.918392   0.212902)
  44:      3123.31    0.646708  ( -0.057438   0.005199   0.802111)
  45:      3189.82    0.751326  ( -0.597282  -0.580862  -0.239123)
  46:      3193.05    0.328599  ( -0.457244   0.301104  -0.169894)
  47:      3203.21    0.009272  (  0.002411   0.012353   0.095467)
  48:      3204.31    0.416703  (  0.112417  -0.381713   0.508292)
  49:      3506.34   70.915406  (  6.079230  -0.070082  -5.826959)
  50:      3861.81  116.061269  (  5.355772   0.029982  -9.347517)

--------------------------
THERMOCHEMISTRY AT 298.15K
--------------------------

Temperature         ... 298.15 K
Pressure            ... 1.00 atm
Total Mass          ... 100.14 AMU

Throughout the following assumptions are being made:
  (1) The electronic state is orbitally nondegenerate
  (2) There are no thermally accessible electronically excited states
  (3) Hindered rotations indicated by low frequency modes) are not
      treated as such but are treated as vibrations and this may
      case some error
  (4) All equations used are the standard statistical mechanics
      equations for an ideal gas
  (5) All vibrations are strinctly harmonic

------------
INNER ENERGY
------------

The inner energy is: U= E(el) + E(ZPE) + E(vib) + E(rot) + E(trans)
    E(el)   - is the total energy from the electronic structure calculation
              = E(kin-el) + E(nuc-el) + E(el-el) + E(nuc-nuc)
    E(ZPE)  - the the zero temperature vibrational energy from the frequency calculation
    E(vib)  - the the finite temperature correction to E(ZPE) due to population
              of excietd vibrational states
    E(rot)  - is the rotational thermal energy
    E(trans)- is the translational thermal energy

Summary of contributions to the inner energy U:
Electronic energy                ...   -325.98785922 Eh
Zero point energy                ...      0.15543503 Eh      97.54 kcal/mol
Thermal vibrational correction   ...      0.00292748 Eh       1.84 kcal/mol
Thermal rotational correction    ...      0.00141627 Eh       0.89 kcal/mol
Thermal translational correction ...      0.00141627 Eh       0.89 kcal/mol
-----------------------------------------------------------------------
Total thermal energy                   -325.82666417 Eh

Summary of corrections to the electronic energy:
(perhaps to be used in another calculation)
Total thermal correction                  0.00576002 Eh       3.61 kcal/mol
Non-thermal (ZPE) correction              0.15543503 Eh      97.54 kcal/mol
-----------------------------------------------------------------------
Total correction                          0.16119505 Eh     101.15 kcal/mol

--------
ENTHALPY
--------

The enthalpy is H = U + kB*T
                kB is Boltzmann's constant
Total free energy                 ...   -325.82666417 Eh
Thermal Enthalpy correction       ...      0.00094421 Eh       0.59 kcal/mol
-----------------------------------------------------------------------
Total Enthalpy                    ...   -325.82571996 Eh

-------
ENTROPY
-------

The entropy contributions are T*S = T*(S(el)+S(vib)+S(rot)+S(trans)
     S(el)   - electronic entropy
     S(vib)  - vibrational entropy
     S(rot)  - rotational entropy
     S(trans)- translational entropy
The entropies will be listed as mutliplied by the temperature to get
units of energy

Electronic entropy                ...      0.00000000 Eh      0.00 kcal/mol
Vibrational entropy               ...      0.00435917 Eh      2.74 kcal/mol
Rotational entropy                ...      0.01166311 Eh      7.32 kcal/mol
Translational entropy             ...      0.01887324 Eh     11.84 kcal/mol
-----------------------------------------------------------------------
Final entropy term                ...      0.03489551 Eh     21.90 kcal/mol

CAUTION: The rotational entropy is not quite correctly treated here
         because it includes a symmetry number that is not yet correctly
         implemented in ORCA!
For a nonlinear molecule the correct rotational entropy is:
    S(rot) = R*(ln(qrot/sn)+1.5)
    R    = 8.31441 J/mol/K = 1.987191683e-3 kcal/mol/K
    qrot = 155007.4928960
    sn is the rotational symmetry number. We have assumed 3 here
       if it is different for your molecule then you should correct
       the printed rotational entropy by manually evaluating the equation
       as given above

For convenience we print out the resulting values for sn=1 - 12:
 sn= 1  qrot/sn=  155007.4929 T*S(rot)=     7.97 kcal/mol T*S(tot)=    22.55 kcal/mol
 sn= 2  qrot/sn=   77503.7464 T*S(rot)=     7.56 kcal/mol T*S(tot)=    22.14 kcal/mol
 sn= 3  qrot/sn=   51669.1643 T*S(rot)=     7.32 kcal/mol T*S(tot)=    21.90 kcal/mol
 sn= 4  qrot/sn=   38751.8732 T*S(rot)=     7.15 kcal/mol T*S(tot)=    21.73 kcal/mol
 sn= 5  qrot/sn=   31001.4986 T*S(rot)=     7.02 kcal/mol T*S(tot)=    21.59 kcal/mol
 sn= 6  qrot/sn=   25834.5821 T*S(rot)=     6.91 kcal/mol T*S(tot)=    21.49 kcal/mol
 sn= 7  qrot/sn=   22143.9276 T*S(rot)=     6.82 kcal/mol T*S(tot)=    21.40 kcal/mol
 sn= 8  qrot/sn=   19375.9366 T*S(rot)=     6.74 kcal/mol T*S(tot)=    21.32 kcal/mol
 sn= 9  qrot/sn=   17223.0548 T*S(rot)=     6.67 kcal/mol T*S(tot)=    21.25 kcal/mol
 sn=10  qrot/sn=   15500.7493 T*S(rot)=     6.61 kcal/mol T*S(tot)=    21.18 kcal/mol
 sn=11  qrot/sn=   14091.5903 T*S(rot)=     6.55 kcal/mol T*S(tot)=    21.13 kcal/mol
 sn=12  qrot/sn=   12917.2911 T*S(rot)=     6.50 kcal/mol T*S(tot)=    21.08 kcal/mol

-------------------
GIBBS FREE ENTHALPY
-------------------

The Gibbs free enthalpy is G = H - T*S

Total enthalpy                    ...   -325.82571996 Eh
Total entropy correction          ...     -0.03489551 Eh    -21.90 kcal/mol
-----------------------------------------------------------------------
Final Gibbs free enthalpy         ...   -325.86061547 Eh

For completeness - the Gibbs free enthalpy minus the electronic energy
G-E(el)                           ...      0.12724375 Eh     79.85 kcal/mol

                             ****ORCA TERMINATED NORMALLY****
TOTAL RUN TIME: 0 days 0 hours 39 minutes 23 seconds 746 msec
