                         Program Version 3.0.3 - RELEASE   -
|  1> ! NORI PBE0 def2-TZVP UseSym TightOPT Freq TightSCF Grid3 FinalGrid5 XYZFile
|  2> % pal
|  3>     nprocs 8
|  4> end
|  5> %method
|  6>     SymThresh 5.0e-2
|  7> end
|  8> % geom
|  9>     MaxIter 10
| 10> end
| 11> % maxcore 2000
| 12> % output
| 13>     printlevel mini
| 14>     print[ P_Basis ] 0
| 15>     print[ P_SCFInfo ] 1
| 16>     print[ P_SCFIterInfo ] 1
| 17>     print[ P_OrbEn ] 0
| 18>     print[ P_Cartesian ] 0
| 19> end
| 20> % elprop
| 21>     Dipole false
| 22> end
| 23> *xyz 1 1
| 24>  O        1.0526698176     0.0468161959    -0.0435995064
| 25>  C        2.2343934310     0.1093107121    -0.0502482264
| 26>  C        3.2388478956    -1.0637526213    -0.0158400017
| 27>  N        4.4878977703    -0.2398932466    -0.0476528802
| 28>  C        4.1994896240     0.7953908726    -1.1207408789
| 29>  C        3.1691122292     1.3125568845    -0.0924259785
| 30>  C        4.2075242050     0.8621156284     0.9588902424
| 31>  H        3.1826741495    -1.6512848641     0.9004618459
| 32>  H        3.1757385358    -1.7105376356    -0.8909769101
| 33>  H        5.3717263625    -0.7474610213    -0.0350843364
| 34>  H        5.0619740552     1.4472613832    -1.2472344518
| 35>  H        3.8645881174     0.3709099736    -2.0660311606
| 36>  H        2.7367789833     2.3053760377    -0.1227975507
| 37>  H        3.8797755189     0.4992290036     1.9319981865
| 38>  H        5.0710493045     1.5203126975     1.0372116070
| 39> *
| 40>
| 41>                          ****END OF INPUT****
 Total Charge           Charge          ....    1
 Multiplicity           Mult            ....    1
 Number of Electrons    NEL             ....   52
FINAL SINGLE POINT ENERGY      -324.763635855680

CARTESIAN COORDINATES (ANGSTROEM)
---------------------------------
  O      2.187566    0.000169    0.000000
  C      1.005013   -0.042585    0.000000
  C      0.108777   -1.300913    0.000000
  N     -1.208888   -0.590772   -0.000000
  C     -1.020536    0.499284    1.040442
  C     -0.033298    1.073416   -0.000000
  C     -1.020536    0.499284   -1.040442
  H      0.222984   -1.910566   -0.896105
  H      0.222984   -1.910566    0.896105
  H     -2.044000   -1.175026   -0.000000
  H     -1.938144    1.075585    1.143205
  H     -0.655461    0.136149    2.000122
  H      0.308782    2.101240   -0.000000
  H     -0.655461    0.136149   -2.000122
  H     -1.938144    1.075585   -1.143205

FINAL SINGLE POINT ENERGY      -324.763636130772
                    ***********************HURRAY********************
 Multiplicity           Mult            ....    1
 Number of Electrons    NEL             ....   52
 Basis Dimension        Dim             ....  265
FINAL SINGLE POINT ENERGY      -324.763636201737

VIBRATIONAL FREQUENCIES
-----------------------

   0:         0.00 cm**-1
   1:         0.00 cm**-1
   2:         0.00 cm**-1
   3:         0.00 cm**-1
   4:         0.00 cm**-1
   5:         0.00 cm**-1
   6:       163.30 cm**-1
   7:       417.01 cm**-1
   8:       441.18 cm**-1
   9:       511.22 cm**-1
  10:       602.05 cm**-1
  11:       617.95 cm**-1
  12:       762.43 cm**-1
  13:       831.50 cm**-1
  14:       838.83 cm**-1
  15:       865.42 cm**-1
  16:       878.93 cm**-1
  17:       962.74 cm**-1
  18:       973.21 cm**-1
  19:      1011.43 cm**-1
  20:      1030.66 cm**-1
  21:      1036.35 cm**-1
  22:      1101.58 cm**-1
  23:      1152.11 cm**-1
  24:      1158.96 cm**-1
  25:      1161.92 cm**-1
  26:      1224.01 cm**-1
  27:      1247.46 cm**-1
  28:      1260.39 cm**-1
  29:      1271.30 cm**-1
  30:      1318.53 cm**-1
  31:      1337.06 cm**-1
  32:      1375.89 cm**-1
  33:      1467.40 cm**-1
  34:      1493.03 cm**-1
  35:      1530.96 cm**-1
  36:      1938.67 cm**-1
  37:      3112.33 cm**-1
  38:      3115.52 cm**-1
  39:      3117.32 cm**-1
  40:      3181.75 cm**-1
  41:      3195.66 cm**-1
  42:      3197.17 cm**-1
  43:      3225.13 cm**-1
  44:      3500.16 cm**-1

IR SPECTRUM
-----------

 Mode    freq (cm**-1)   T**2         TX         TY         TZ
-------------------------------------------------------------------
   6:       163.30    2.597683  (  0.000052   0.000001  -1.611733)
   7:       417.01    0.115419  ( -0.000002  -0.000021  -0.339734)
   8:       441.18    4.634913  (  0.556323  -2.079764   0.000005)
   9:       511.22    1.820638  (  0.661022   1.176302  -0.000003)
  10:       602.05    4.671054  ( -2.151897   0.200984  -0.000001)
  11:       617.95    0.189122  (  0.000050  -0.000005  -0.434881)
  12:       762.43    6.530219  ( -2.390543   0.903063   0.000012)
  13:       831.50   19.022497  (  1.479848  -4.102749  -0.000014)
  14:       838.83    6.142819  (  0.000017  -0.000002   2.478471)
  15:       865.42    0.599092  ( -0.000007  -0.000071  -0.774010)
  16:       878.93   12.012233  ( -0.991952  -3.320883   0.000030)
  17:       962.74    2.888556  (  1.106962  -1.289647   0.000024)
  18:       973.21    0.775023  (  0.000032  -0.000006  -0.880354)
  19:      1011.43    0.141638  (  0.000026  -0.000064  -0.376349)
  20:      1030.66   12.065202  (  0.803013  -3.379404  -0.000001)
  21:      1036.35   16.311932  (  1.000614  -3.912889  -0.000005)
  22:      1101.58    1.900632  (  0.000017  -0.000017   1.378634)
  23:      1152.11    0.390117  ( -0.000013   0.000033   0.624593)
  24:      1158.96    7.423403  (  0.035055  -2.724367   0.000005)
  25:      1161.92    4.287753  ( -0.338685  -2.042803   0.000001)
  26:      1224.01    4.839262  (  0.000006  -0.000003   2.199832)
  27:      1247.46   17.808738  (  0.000037  -0.000068  -4.220040)
  28:      1260.39   21.400135  (  2.468541  -3.912345   0.000087)
  29:      1271.30    2.017149  ( -0.158023   1.411445  -0.000040)
  30:      1318.53   37.766896  ( -0.000041  -0.000070  -6.145478)
  31:      1337.06   14.113574  ( -3.020454  -2.233928   0.000111)
  32:      1375.89   19.875074  ( -3.597008   2.633744  -0.000016)
  33:      1467.40   16.218876  (  0.302990  -4.015853   0.000004)
  34:      1493.03   13.499221  (  0.000000  -0.000006   3.674129)
  35:      1530.96    5.285064  (  2.193840   0.687116  -0.000000)
  36:      1938.67  249.776798  ( 15.765962   1.100570  -0.000000)
  37:      3112.33    4.003166  ( -0.449655  -1.949609   0.000012)
  38:      3115.52    0.348810  (  0.000024   0.000086   0.590602)
  39:      3117.32    0.076317  (  0.080797   0.264177  -0.000102)
  40:      3181.75    3.333583  (  0.000005  -0.000001   1.825810)
  41:      3195.66    0.079155  ( -0.000158   0.000089  -0.281345)
  42:      3197.17    1.288425  ( -0.987837   0.559110   0.000048)
  43:      3225.13    5.778166  ( -0.359793  -2.376703  -0.000000)
  44:      3500.16   87.425299  ( -7.705666  -5.296038   0.000000)

--------------------------
THERMOCHEMISTRY AT 298.15K
--------------------------

Temperature         ... 298.15 K
Pressure            ... 1.00 atm
Total Mass          ... 98.12 AMU

Throughout the following assumptions are being made:
  (1) The electronic state is orbitally nondegenerate
  (2) There are no thermally accessible electronically excited states
  (3) Hindered rotations indicated by low frequency modes) are not
      treated as such but are treated as vibrations and this may
      case some error
  (4) All equations used are the standard statistical mechanics
      equations for an ideal gas
  (5) All vibrations are strinctly harmonic

------------
INNER ENERGY
------------

The inner energy is: U= E(el) + E(ZPE) + E(vib) + E(rot) + E(trans)
    E(el)   - is the total energy from the electronic structure calculation
              = E(kin-el) + E(nuc-el) + E(el-el) + E(nuc-nuc)
    E(ZPE)  - the the zero temperature vibrational energy from the frequency calculation
    E(vib)  - the the finite temperature correction to E(ZPE) due to population
              of excietd vibrational states
    E(rot)  - is the rotational thermal energy
    E(trans)- is the translational thermal energy

Summary of contributions to the inner energy U:
Electronic energy                ...   -324.76363620 Eh
Zero point energy                ...      0.13128739 Eh      82.38 kcal/mol
Thermal vibrational correction   ...      0.00242444 Eh       1.52 kcal/mol
Thermal rotational correction    ...      0.00141627 Eh       0.89 kcal/mol
Thermal translational correction ...      0.00141627 Eh       0.89 kcal/mol
-----------------------------------------------------------------------
Total thermal energy                   -324.62709183 Eh

Summary of corrections to the electronic energy:
(perhaps to be used in another calculation)
Total thermal correction                  0.00525698 Eh       3.30 kcal/mol
Non-thermal (ZPE) correction              0.13128739 Eh      82.38 kcal/mol
-----------------------------------------------------------------------
Total correction                          0.13654437 Eh      85.68 kcal/mol

--------
ENTHALPY
--------

The enthalpy is H = U + kB*T
                kB is Boltzmann's constant
Total free energy                 ...   -324.62709183 Eh
Thermal Enthalpy correction       ...      0.00094421 Eh       0.59 kcal/mol
-----------------------------------------------------------------------
Total Enthalpy                    ...   -324.62614762 Eh

-------
ENTROPY
-------

The entropy contributions are T*S = T*(S(el)+S(vib)+S(rot)+S(trans)
     S(el)   - electronic entropy
     S(vib)  - vibrational entropy
     S(rot)  - rotational entropy
     S(trans)- translational entropy
The entropies will be listed as mutliplied by the temperature to get
units of energy

Electronic entropy                ...      0.00000000 Eh      0.00 kcal/mol
Vibrational entropy               ...      0.00359315 Eh      2.25 kcal/mol
Rotational entropy                ...      0.01162590 Eh      7.30 kcal/mol
Translational entropy             ...      0.01884443 Eh     11.83 kcal/mol
-----------------------------------------------------------------------
Final entropy term                ...      0.03406349 Eh     21.38 kcal/mol

CAUTION: The rotational entropy is not quite correctly treated here
         because it includes a symmetry number that is not yet correctly
         implemented in ORCA!
For a nonlinear molecule the correct rotational entropy is:
    S(rot) = R*(ln(qrot/sn)+1.5)
    R    = 8.31441 J/mol/K = 1.987191683e-3 kcal/mol/K
    qrot = 149017.8126335
    sn is the rotational symmetry number. We have assumed 3 here
       if it is different for your molecule then you should correct
       the printed rotational entropy by manually evaluating the equation
       as given above

For convenience we print out the resulting values for sn=1 - 12:
 sn= 1  qrot/sn=  149017.8126 T*S(rot)=     7.95 kcal/mol T*S(tot)=    22.03 kcal/mol
 sn= 2  qrot/sn=   74508.9063 T*S(rot)=     7.54 kcal/mol T*S(tot)=    21.62 kcal/mol
 sn= 3  qrot/sn=   49672.6042 T*S(rot)=     7.30 kcal/mol T*S(tot)=    21.38 kcal/mol
 sn= 4  qrot/sn=   37254.4532 T*S(rot)=     7.12 kcal/mol T*S(tot)=    21.20 kcal/mol
 sn= 5  qrot/sn=   29803.5625 T*S(rot)=     6.99 kcal/mol T*S(tot)=    21.07 kcal/mol
 sn= 6  qrot/sn=   24836.3021 T*S(rot)=     6.88 kcal/mol T*S(tot)=    20.96 kcal/mol
 sn= 7  qrot/sn=   21288.2589 T*S(rot)=     6.79 kcal/mol T*S(tot)=    20.87 kcal/mol
 sn= 8  qrot/sn=   18627.2266 T*S(rot)=     6.71 kcal/mol T*S(tot)=    20.79 kcal/mol
 sn= 9  qrot/sn=   16557.5347 T*S(rot)=     6.64 kcal/mol T*S(tot)=    20.72 kcal/mol
 sn=10  qrot/sn=   14901.7813 T*S(rot)=     6.58 kcal/mol T*S(tot)=    20.66 kcal/mol
 sn=11  qrot/sn=   13547.0739 T*S(rot)=     6.53 kcal/mol T*S(tot)=    20.61 kcal/mol
 sn=12  qrot/sn=   12418.1511 T*S(rot)=     6.47 kcal/mol T*S(tot)=    20.55 kcal/mol

-------------------
GIBBS FREE ENTHALPY
-------------------

The Gibbs free enthalpy is G = H - T*S

Total enthalpy                    ...   -324.62614762 Eh
Total entropy correction          ...     -0.03406349 Eh    -21.38 kcal/mol
-----------------------------------------------------------------------
Final Gibbs free enthalpy         ...   -324.66021111 Eh

For completeness - the Gibbs free enthalpy minus the electronic energy
G-E(el)                           ...      0.10342509 Eh     64.90 kcal/mol

                             ****ORCA TERMINATED NORMALLY****
TOTAL RUN TIME: 0 days 0 hours 33 minutes 38 seconds 664 msec
