                         Program Version 3.0.3 - RELEASE   -
|  1> ! NORI PBE0 def2-TZVP UseSym TightOPT Freq TightSCF Grid3 FinalGrid5 XYZFile
|  2> % pal
|  3>     nprocs 8
|  4> end
|  5> %method
|  6>     SymThresh 5.0e-2
|  7> end
|  8> % geom
|  9>     MaxIter 10
| 10> end
| 11> % maxcore 2000
| 12> % output
| 13>     printlevel mini
| 14>     print[ P_Basis ] 0
| 15>     print[ P_SCFInfo ] 1
| 16>     print[ P_SCFIterInfo ] 1
| 17>     print[ P_OrbEn ] 0
| 18>     print[ P_Cartesian ] 0
| 19> end
| 20> % elprop
| 21>     Dipole false
| 22> end
| 23> *xyz 1 1
| 24>  O        1.1629298580    -0.0467885171     0.6325798312
| 25>  C        2.2909528076    -0.0617226809     0.3153847776
| 26>  C        3.3137977734     1.0024639120    -0.0866429487
| 27>  N        4.3146573866    -0.1007113332    -0.3605377024
| 28>  C        3.3419004235    -1.2009638255     0.1335017012
| 29>  C        3.0896953195    -2.2329491304    -0.8215556811
| 30>  C        2.8413629578    -3.0864308454    -1.6262078808
| 31>  H        3.0783829145     1.5847863496    -0.9774079685
| 32>  H        3.6396087055     1.6578068000     0.7219081466
| 33>  H        5.1861894723    -0.0388581895     0.1645390353
| 34>  H        4.5392168688    -0.2185115610    -1.3489351752
| 35>  H        3.6953629492    -1.5809743420     1.0974997504
| 36>  H        2.6179225635    -3.8536966365    -2.3359058855
| 37> *
| 38>
| 39>                          ****END OF INPUT****
 Total Charge           Charge          ....    1
 Multiplicity           Mult            ....    1
 Number of Electrons    NEL             ....   50
FINAL SINGLE POINT ENERGY      -323.491186899686
FINAL SINGLE POINT ENERGY      -323.491187182411

CARTESIAN COORDINATES (ANGSTROEM)
---------------------------------
  O      0.000670    0.000274    2.081602
  C      0.429572   -0.031340    0.991527
  C      1.703086    0.481646    0.316900
  N      1.161223    0.000394   -1.012783
  C     -0.095999   -0.621557   -0.354295
  C     -1.333160   -0.145582   -0.886657
  C     -2.378474    0.272023   -1.299471
  H      1.859112    1.559884    0.339405
  H      2.616883   -0.041997    0.598822
  H      1.752417   -0.665294   -1.509602
  H      0.911544    0.754081   -1.654044
  H     -0.006491   -1.712649   -0.377994
  H     -3.314255    0.635529   -1.665784

FINAL SINGLE POINT ENERGY      -323.491187396591
                    ***********************HURRAY********************
 Multiplicity           Mult            ....    1
 Number of Electrons    NEL             ....   50
 Basis Dimension        Dim             ....  253
FINAL SINGLE POINT ENERGY      -323.491187598969

VIBRATIONAL FREQUENCIES
-----------------------

   0:         0.00 cm**-1
   1:         0.00 cm**-1
   2:         0.00 cm**-1
   3:         0.00 cm**-1
   4:         0.00 cm**-1
   5:         0.00 cm**-1
   6:        77.27 cm**-1
   7:       123.53 cm**-1
   8:       197.63 cm**-1
   9:       357.13 cm**-1
  10:       420.33 cm**-1
  11:       481.64 cm**-1
  12:       557.60 cm**-1
  13:       702.29 cm**-1
  14:       723.32 cm**-1
  15:       737.49 cm**-1
  16:       786.97 cm**-1
  17:       809.43 cm**-1
  18:       841.94 cm**-1
  19:       928.36 cm**-1
  20:      1012.58 cm**-1
  21:      1044.65 cm**-1
  22:      1051.95 cm**-1
  23:      1116.49 cm**-1
  24:      1215.06 cm**-1
  25:      1257.74 cm**-1
  26:      1279.29 cm**-1
  27:      1295.27 cm**-1
  28:      1330.11 cm**-1
  29:      1441.07 cm**-1
  30:      1640.12 cm**-1
  31:      1995.26 cm**-1
  32:      2248.59 cm**-1
  33:      3085.65 cm**-1
  34:      3111.99 cm**-1
  35:      3183.73 cm**-1
  36:      3447.51 cm**-1
  37:      3462.20 cm**-1
  38:      3532.87 cm**-1

IR SPECTRUM
-----------

 Mode    freq (cm**-1)   T**2         TX         TY         TZ
-------------------------------------------------------------------
   6:        77.27    0.497082  (  0.528661  -0.240202   0.399878)
   7:       123.53    5.529195  ( -1.661018   0.316507  -1.634025)
   8:       197.63    4.393716  (  0.092551   1.938805  -0.791318)
   9:       357.13   13.039032  ( -0.886393   1.899116   2.940527)
  10:       420.33    6.811397  ( -1.722125  -1.950726   0.200876)
  11:       481.64    9.320015  (  2.088798   1.943853  -1.085530)
  12:       557.60    7.586169  (  0.881245   1.417413   2.191008)
  13:       702.29   11.900080  ( -1.858767   0.854381   2.777607)
  14:       723.32   30.950216  ( -0.938724  -4.299642  -3.403247)
  15:       737.49    8.899253  (  0.058821  -2.792798  -1.046935)
  16:       786.97   26.557549  ( -1.587981  -2.822886   4.008388)
  17:       809.43   30.143446  ( -5.395501   0.755984  -0.678605)
  18:       841.94   20.168739  ( -3.697309  -2.521182   0.377212)
  19:       928.36   19.139300  (  3.135647   0.628169   2.985367)
  20:      1012.58   31.694986  (  5.225726   2.047801  -0.439637)
  21:      1044.65   18.051276  (  4.174311  -0.022430   0.791141)
  22:      1051.95   60.723698  (  6.401354   3.007128   3.271627)
  23:      1116.49    7.638195  ( -0.865095  -2.549829  -0.623039)
  24:      1215.06   29.183380  ( -4.458388  -1.654455  -2.562993)
  25:      1257.74   28.524440  (  4.979198   1.904161  -0.325889)
  26:      1279.29   12.317337  (  1.959819   2.849428  -0.597666)
  27:      1295.27    8.262079  (  1.779492   1.946369   1.143301)
  28:      1330.11   18.187027  ( -3.969331   1.554794  -0.118543)
  29:      1441.07   25.352174  (  4.640222   1.953472   0.066759)
  30:      1640.12   64.355642  (  3.398424   0.985922  -7.199605)
  31:      1995.26  233.923272  (  3.120710   0.326365 -14.969233)
  32:      2248.59   52.894369  (  6.734025  -1.947042   1.938119)
  33:      3085.65   14.381697  ( -2.073345  -2.663163  -1.729305)
  34:      3111.99   12.715553  ( -3.364850  -1.180370   0.007908)
  35:      3183.73    8.716478  (  1.105411  -2.707262   0.406547)
  36:      3447.51  103.929051  (  9.181253  -2.926482   3.327062)
  37:      3462.20   86.922811  ( -2.900419  -1.389454   8.750988)
  38:      3532.87  108.376936  (  5.608005  -8.770783  -0.024167)

--------------------------
THERMOCHEMISTRY AT 298.15K
--------------------------

Temperature         ... 298.15 K
Pressure            ... 1.00 atm
Total Mass          ... 96.11 AMU

Throughout the following assumptions are being made:
  (1) The electronic state is orbitally nondegenerate
  (2) There are no thermally accessible electronically excited states
  (3) Hindered rotations indicated by low frequency modes) are not
      treated as such but are treated as vibrations and this may
      case some error
  (4) All equations used are the standard statistical mechanics
      equations for an ideal gas
  (5) All vibrations are strinctly harmonic

------------
INNER ENERGY
------------

The inner energy is: U= E(el) + E(ZPE) + E(vib) + E(rot) + E(trans)
    E(el)   - is the total energy from the electronic structure calculation
              = E(kin-el) + E(nuc-el) + E(el-el) + E(nuc-nuc)
    E(ZPE)  - the the zero temperature vibrational energy from the frequency calculation
    E(vib)  - the the finite temperature correction to E(ZPE) due to population
              of excietd vibrational states
    E(rot)  - is the rotational thermal energy
    E(trans)- is the translational thermal energy

Summary of contributions to the inner energy U:
Electronic energy                ...   -323.49118760 Eh
Zero point energy                ...      0.10364995 Eh      65.04 kcal/mol
Thermal vibrational correction   ...      0.00388009 Eh       2.43 kcal/mol
Thermal rotational correction    ...      0.00141627 Eh       0.89 kcal/mol
Thermal translational correction ...      0.00141627 Eh       0.89 kcal/mol
-----------------------------------------------------------------------
Total thermal energy                   -323.38082502 Eh

Summary of corrections to the electronic energy:
(perhaps to be used in another calculation)
Total thermal correction                  0.00671263 Eh       4.21 kcal/mol
Non-thermal (ZPE) correction              0.10364995 Eh      65.04 kcal/mol
-----------------------------------------------------------------------
Total correction                          0.11036258 Eh      69.25 kcal/mol

--------
ENTHALPY
--------

The enthalpy is H = U + kB*T
                kB is Boltzmann's constant
Total free energy                 ...   -323.38082502 Eh
Thermal Enthalpy correction       ...      0.00094421 Eh       0.59 kcal/mol
-----------------------------------------------------------------------
Total Enthalpy                    ...   -323.37988081 Eh

-------
ENTROPY
-------

The entropy contributions are T*S = T*(S(el)+S(vib)+S(rot)+S(trans)
     S(el)   - electronic entropy
     S(vib)  - vibrational entropy
     S(rot)  - rotational entropy
     S(trans)- translational entropy
The entropies will be listed as mutliplied by the temperature to get
units of energy

Electronic entropy                ...      0.00000000 Eh      0.00 kcal/mol
Vibrational entropy               ...      0.00687146 Eh      4.31 kcal/mol
Rotational entropy                ...      0.01197044 Eh      7.51 kcal/mol
Translational entropy             ...      0.01881503 Eh     11.81 kcal/mol
-----------------------------------------------------------------------
Final entropy term                ...      0.03765694 Eh     23.63 kcal/mol

CAUTION: The rotational entropy is not quite correctly treated here
         because it includes a symmetry number that is not yet correctly
         implemented in ORCA!
For a nonlinear molecule the correct rotational entropy is:
    S(rot) = R*(ln(qrot/sn)+1.5)
    R    = 8.31441 J/mol/K = 1.987191683e-3 kcal/mol/K
    qrot = 214643.8271019
    sn is the rotational symmetry number. We have assumed 3 here
       if it is different for your molecule then you should correct
       the printed rotational entropy by manually evaluating the equation
       as given above

For convenience we print out the resulting values for sn=1 - 12:
 sn= 1  qrot/sn=  214643.8271 T*S(rot)=     8.16 kcal/mol T*S(tot)=    24.28 kcal/mol
 sn= 2  qrot/sn=  107321.9136 T*S(rot)=     7.75 kcal/mol T*S(tot)=    23.87 kcal/mol
 sn= 3  qrot/sn=   71547.9424 T*S(rot)=     7.51 kcal/mol T*S(tot)=    23.63 kcal/mol
 sn= 4  qrot/sn=   53660.9568 T*S(rot)=     7.34 kcal/mol T*S(tot)=    23.46 kcal/mol
 sn= 5  qrot/sn=   42928.7654 T*S(rot)=     7.21 kcal/mol T*S(tot)=    23.33 kcal/mol
 sn= 6  qrot/sn=   35773.9712 T*S(rot)=     7.10 kcal/mol T*S(tot)=    23.22 kcal/mol
 sn= 7  qrot/sn=   30663.4039 T*S(rot)=     7.01 kcal/mol T*S(tot)=    23.13 kcal/mol
 sn= 8  qrot/sn=   26830.4784 T*S(rot)=     6.93 kcal/mol T*S(tot)=    23.05 kcal/mol
 sn= 9  qrot/sn=   23849.3141 T*S(rot)=     6.86 kcal/mol T*S(tot)=    22.98 kcal/mol
 sn=10  qrot/sn=   21464.3827 T*S(rot)=     6.80 kcal/mol T*S(tot)=    22.92 kcal/mol
 sn=11  qrot/sn=   19513.0752 T*S(rot)=     6.74 kcal/mol T*S(tot)=    22.86 kcal/mol
 sn=12  qrot/sn=   17886.9856 T*S(rot)=     6.69 kcal/mol T*S(tot)=    22.81 kcal/mol

-------------------
GIBBS FREE ENTHALPY
-------------------

The Gibbs free enthalpy is G = H - T*S

Total enthalpy                    ...   -323.37988081 Eh
Total entropy correction          ...     -0.03765694 Eh    -23.63 kcal/mol
-----------------------------------------------------------------------
Final Gibbs free enthalpy         ...   -323.41753775 Eh

For completeness - the Gibbs free enthalpy minus the electronic energy
G-E(el)                           ...      0.07364985 Eh     46.22 kcal/mol

                             ****ORCA TERMINATED NORMALLY****
TOTAL RUN TIME: 0 days 0 hours 25 minutes 28 seconds 122 msec
