                         Program Version 3.0.3 - RELEASE   -
|  1> ! NORI PBE0 def2-TZVP UseSym TightOPT Freq TightSCF Grid3 FinalGrid5 XYZFile
|  2> % pal
|  3>     nprocs 8
|  4> end
|  5> %method
|  6>     SymThresh 5.0e-2
|  7> end
|  8> % geom
|  9>     MaxIter 10
| 10> end
| 11> % maxcore 2000
| 12> % output
| 13>     printlevel mini
| 14>     print[ P_Basis ] 0
| 15>     print[ P_SCFInfo ] 1
| 16>     print[ P_SCFIterInfo ] 1
| 17>     print[ P_OrbEn ] 0
| 18>     print[ P_Cartesian ] 0
| 19> end
| 20> % elprop
| 21>     Dipole false
| 22> end
| 23> *xyz 1 1
| 24>  O        0.9768327909    -0.1812121911     0.4039978673
| 25>  C        2.3269019093    -0.0992214255     0.1232868737
| 26>  C        3.0547557714     1.0061880238     0.9375903387
| 27>  N        4.1203498207     0.0025851010     1.3214096868
| 28>  C        3.1953591965    -1.1224974096     0.9109268203
| 29>  C        2.6494037849    -0.0612781491    -1.2917791103
| 30>  C        2.9139659904    -0.0291205919    -2.4609308737
| 31>  H        0.4663601886    -0.2576478891    -0.4087631958
| 32>  H        2.4813910005     1.2739257856     1.8235613305
| 33>  H        3.4434235551     1.8824295803     0.4252621814
| 34>  H        4.9412224164     0.0641411687     0.7198716111
| 35>  H        4.4303090485     0.0110902405     2.2917930916
| 36>  H        3.6952643137    -1.9269107789     0.3773604633
| 37>  H        2.6631286102    -1.4842059837     1.7889220608
| 38>  H        3.1351716027    -0.0007854808    -3.5054391457
| 39> *
| 40>
| 41>                          ****END OF INPUT****
 Total Charge           Charge          ....    1
 Multiplicity           Mult            ....    1
 Number of Electrons    NEL             ....   52
FINAL SINGLE POINT ENERGY      -324.714704383018

CARTESIAN COORDINATES (ANGSTROEM)
---------------------------------
  O      0.000071    0.000074    1.795511
  C     -0.026063   -0.002514    0.414377
  C      0.912167    1.063228   -0.217056
  N      1.482200    0.000022   -1.130459
  C      0.905248   -1.069947   -0.229387
  C     -1.356857    0.003741   -0.166042
  C     -2.456730    0.009617   -0.643884
  H     -0.893186   -0.051696    2.150959
  H      1.678095    1.371728    0.492477
  H      0.483179    1.910278   -0.745984
  H      1.041960    0.006693   -2.050049
  H      2.493087   -0.002364   -1.256659
  H      0.470888   -1.907805   -0.768558
  H      1.669175   -1.390850    0.476754
  H     -3.441985    0.015332   -1.055935

FINAL SINGLE POINT ENERGY      -324.714704923828
                    ***********************HURRAY********************
 Multiplicity           Mult            ....    1
 Number of Electrons    NEL             ....   52
 Basis Dimension        Dim             ....  265
FINAL SINGLE POINT ENERGY      -324.714705538071

VIBRATIONAL FREQUENCIES
-----------------------

   0:         0.00 cm**-1
   1:         0.00 cm**-1
   2:         0.00 cm**-1
   3:         0.00 cm**-1
   4:         0.00 cm**-1
   5:         0.00 cm**-1
   6:        64.44 cm**-1
   7:        96.05 cm**-1
   8:       182.72 cm**-1
   9:       196.90 cm**-1
  10:       370.67 cm**-1
  11:       402.52 cm**-1
  12:       509.19 cm**-1
  13:       547.75 cm**-1
  14:       672.83 cm**-1
  15:       729.11 cm**-1
  16:       734.98 cm**-1
  17:       766.69 cm**-1
  18:       849.51 cm**-1
  19:       899.90 cm**-1
  20:       908.60 cm**-1
  21:       917.61 cm**-1
  22:       990.13 cm**-1
  23:      1039.17 cm**-1
  24:      1062.22 cm**-1
  25:      1114.24 cm**-1
  26:      1232.98 cm**-1
  27:      1260.20 cm**-1
  28:      1282.28 cm**-1
  29:      1307.52 cm**-1
  30:      1319.45 cm**-1
  31:      1339.64 cm**-1
  32:      1399.99 cm**-1
  33:      1468.48 cm**-1
  34:      1490.04 cm**-1
  35:      1647.66 cm**-1
  36:      2244.52 cm**-1
  37:      3124.22 cm**-1
  38:      3127.61 cm**-1
  39:      3210.52 cm**-1
  40:      3210.86 cm**-1
  41:      3452.69 cm**-1
  42:      3472.15 cm**-1
  43:      3538.39 cm**-1
  44:      3851.22 cm**-1

IR SPECTRUM
-----------

 Mode    freq (cm**-1)   T**2         TX         TY         TZ
-------------------------------------------------------------------
   6:        64.44   87.998892  ( -0.747634   9.350339  -0.105360)
   7:        96.05    7.902721  (  2.562494   0.079148   1.153291)
   8:       182.72    1.137595  (  0.226665  -1.041514   0.038298)
   9:       196.90    0.579362  (  0.633303   0.207473  -0.367754)
  10:       370.67   20.077195  ( -0.237617   4.473724   0.080783)
  11:       402.52    5.692042  (  0.639652  -0.162888  -2.292674)
  12:       509.19   35.749733  (  3.522538  -0.064761  -4.830866)
  13:       547.75    3.084434  (  0.057912   1.752461  -0.099798)
  14:       672.83    1.614877  (  1.265718  -0.035237  -0.107671)
  15:       729.11   38.506607  (  0.022229   6.204036   0.126703)
  16:       734.98    4.564560  (  1.726000  -0.140490   1.251298)
  17:       766.69   29.384189  (  1.892952   0.093595  -5.078598)
  18:       849.51    2.950538  (  0.016275  -1.714768  -0.099210)
  19:       899.90    6.753979  (  2.396053   0.070738   1.003944)
  20:       908.60    1.391985  ( -0.703629   0.013214  -0.946952)
  21:       917.61    3.653846  ( -0.054788   1.910689  -0.010574)
  22:       990.13    2.373096  ( -1.513767   0.055054   0.280313)
  23:      1039.17   15.388258  ( -0.130528   3.887807  -0.506136)
  24:      1062.22    0.389832  (  0.002473  -0.575916   0.241137)
  25:      1114.24  147.336483  (  2.005245  -0.256733 -11.968691)
  26:      1232.98   36.517314  (  0.064057   6.042553   0.027621)
  27:      1260.20   25.625468  ( -0.470192   0.050168   5.040027)
  28:      1282.28    0.103156  ( -0.280685  -0.055536   0.145904)
  29:      1307.52    0.809027  ( -0.056295  -0.897298   0.026727)
  30:      1319.45   36.572383  ( -0.042932  -6.047340   0.014658)
  31:      1339.64   84.224397  (  2.067212   0.028297   8.941489)
  32:      1399.99   64.830123  ( -6.571932   0.050106  -4.651593)
  33:      1468.48   20.838032  (  0.021683   4.564795   0.014303)
  34:      1490.04    8.798330  ( -2.952664   0.007567  -0.282926)
  35:      1647.66   72.603702  ( -4.590715  -0.022834   7.178336)
  36:      2244.52   23.934867  (  4.289728  -0.032723   2.352026)
  37:      3124.22    0.370408  ( -0.061612   0.605108  -0.021368)
  38:      3127.61    0.483419  (  0.611832   0.081800   0.319984)
  39:      3210.52    1.452295  (  0.663644  -0.319736   0.953751)
  40:      3210.86    1.715061  (  0.733784   0.273958   1.049557)
  41:      3452.69  100.467855  ( -9.493516   0.045815  -3.215418)
  42:      3472.15   78.253347  (  4.479413   0.031793  -7.628053)
  43:      3538.39   95.793814  ( -8.855451   0.059028  -4.167892)
  44:      3851.22  121.004319  ( -7.968306  -0.400330   7.572988)

--------------------------
THERMOCHEMISTRY AT 298.15K
--------------------------

Temperature         ... 298.15 K
Pressure            ... 1.00 atm
Total Mass          ... 98.12 AMU

Throughout the following assumptions are being made:
  (1) The electronic state is orbitally nondegenerate
  (2) There are no thermally accessible electronically excited states
  (3) Hindered rotations indicated by low frequency modes) are not
      treated as such but are treated as vibrations and this may
      case some error
  (4) All equations used are the standard statistical mechanics
      equations for an ideal gas
  (5) All vibrations are strinctly harmonic

------------
INNER ENERGY
------------

The inner energy is: U= E(el) + E(ZPE) + E(vib) + E(rot) + E(trans)
    E(el)   - is the total energy from the electronic structure calculation
              = E(kin-el) + E(nuc-el) + E(el-el) + E(nuc-nuc)
    E(ZPE)  - the the zero temperature vibrational energy from the frequency calculation
    E(vib)  - the the finite temperature correction to E(ZPE) due to population
              of excietd vibrational states
    E(rot)  - is the rotational thermal energy
    E(trans)- is the translational thermal energy

Summary of contributions to the inner energy U:
Electronic energy                ...   -324.71470554 Eh
Zero point energy                ...      0.12765865 Eh      80.11 kcal/mol
Thermal vibrational correction   ...      0.00460535 Eh       2.89 kcal/mol
Thermal rotational correction    ...      0.00141627 Eh       0.89 kcal/mol
Thermal translational correction ...      0.00141627 Eh       0.89 kcal/mol
-----------------------------------------------------------------------
Total thermal energy                   -324.57960900 Eh

Summary of corrections to the electronic energy:
(perhaps to be used in another calculation)
Total thermal correction                  0.00743789 Eh       4.67 kcal/mol
Non-thermal (ZPE) correction              0.12765865 Eh      80.11 kcal/mol
-----------------------------------------------------------------------
Total correction                          0.13509654 Eh      84.77 kcal/mol

--------
ENTHALPY
--------

The enthalpy is H = U + kB*T
                kB is Boltzmann's constant
Total free energy                 ...   -324.57960900 Eh
Thermal Enthalpy correction       ...      0.00094421 Eh       0.59 kcal/mol
-----------------------------------------------------------------------
Total Enthalpy                    ...   -324.57866479 Eh

-------
ENTROPY
-------

The entropy contributions are T*S = T*(S(el)+S(vib)+S(rot)+S(trans)
     S(el)   - electronic entropy
     S(vib)  - vibrational entropy
     S(rot)  - rotational entropy
     S(trans)- translational entropy
The entropies will be listed as mutliplied by the temperature to get
units of energy

Electronic entropy                ...      0.00000000 Eh      0.00 kcal/mol
Vibrational entropy               ...      0.00843395 Eh      5.29 kcal/mol
Rotational entropy                ...      0.01192260 Eh      7.48 kcal/mol
Translational entropy             ...      0.01884443 Eh     11.83 kcal/mol
-----------------------------------------------------------------------
Final entropy term                ...      0.03920099 Eh     24.60 kcal/mol

CAUTION: The rotational entropy is not quite correctly treated here
         because it includes a symmetry number that is not yet correctly
         implemented in ORCA!
For a nonlinear molecule the correct rotational entropy is:
    S(rot) = R*(ln(qrot/sn)+1.5)
    R    = 8.31441 J/mol/K = 1.987191683e-3 kcal/mol/K
    qrot = 204038.8260626
    sn is the rotational symmetry number. We have assumed 3 here
       if it is different for your molecule then you should correct
       the printed rotational entropy by manually evaluating the equation
       as given above

For convenience we print out the resulting values for sn=1 - 12:
 sn= 1  qrot/sn=  204038.8261 T*S(rot)=     8.13 kcal/mol T*S(tot)=    25.25 kcal/mol
 sn= 2  qrot/sn=  102019.4130 T*S(rot)=     7.72 kcal/mol T*S(tot)=    24.84 kcal/mol
 sn= 3  qrot/sn=   68012.9420 T*S(rot)=     7.48 kcal/mol T*S(tot)=    24.60 kcal/mol
 sn= 4  qrot/sn=   51009.7065 T*S(rot)=     7.31 kcal/mol T*S(tot)=    24.43 kcal/mol
 sn= 5  qrot/sn=   40807.7652 T*S(rot)=     7.18 kcal/mol T*S(tot)=    24.30 kcal/mol
 sn= 6  qrot/sn=   34006.4710 T*S(rot)=     7.07 kcal/mol T*S(tot)=    24.19 kcal/mol
 sn= 7  qrot/sn=   29148.4037 T*S(rot)=     6.98 kcal/mol T*S(tot)=    24.10 kcal/mol
 sn= 8  qrot/sn=   25504.8533 T*S(rot)=     6.90 kcal/mol T*S(tot)=    24.02 kcal/mol
 sn= 9  qrot/sn=   22670.9807 T*S(rot)=     6.83 kcal/mol T*S(tot)=    23.95 kcal/mol
 sn=10  qrot/sn=   20403.8826 T*S(rot)=     6.77 kcal/mol T*S(tot)=    23.89 kcal/mol
 sn=11  qrot/sn=   18548.9842 T*S(rot)=     6.71 kcal/mol T*S(tot)=    23.83 kcal/mol
 sn=12  qrot/sn=   17003.2355 T*S(rot)=     6.66 kcal/mol T*S(tot)=    23.78 kcal/mol

-------------------
GIBBS FREE ENTHALPY
-------------------

The Gibbs free enthalpy is G = H - T*S

Total enthalpy                    ...   -324.57866479 Eh
Total entropy correction          ...     -0.03920099 Eh    -24.60 kcal/mol
-----------------------------------------------------------------------
Final Gibbs free enthalpy         ...   -324.61786578 Eh

For completeness - the Gibbs free enthalpy minus the electronic energy
G-E(el)                           ...      0.09683975 Eh     60.77 kcal/mol

                             ****ORCA TERMINATED NORMALLY****
TOTAL RUN TIME: 0 days 0 hours 29 minutes 48 seconds 956 msec
