                         Program Version 3.0.3 - RELEASE   -
|  1> ! NORI PBE0 def2-TZVP UseSym TightOPT Freq TightSCF Grid3 FinalGrid5 XYZFile
|  2> % pal
|  3>     nprocs 8
|  4> end
|  5> %method
|  6>     SymThresh 5.0e-2
|  7> end
|  8> % geom
|  9>     MaxIter 10
| 10> end
| 11> % maxcore 2000
| 12> % output
| 13>     printlevel mini
| 14>     print[ P_Basis ] 0
| 15>     print[ P_SCFInfo ] 1
| 16>     print[ P_SCFIterInfo ] 1
| 17>     print[ P_OrbEn ] 0
| 18>     print[ P_Cartesian ] 0
| 19> end
| 20> % elprop
| 21>     Dipole false
| 22> end
| 23> *xyz 1 1
| 24>  O        0.9938076969     0.1218505403     0.5608133156
| 25>  C        2.3315018023     0.1825261657     0.2438490519
| 26>  C        3.0909351219     1.2885360116     0.9889698964
| 27>  N        4.1861631015     0.3050682354     1.3261774253
| 28>  C        3.2453792193    -0.8601266875     0.9505122155
| 29>  C        3.8742055856    -1.9708675125     0.2111000430
| 30>  C        3.8364468171    -3.2280511238     0.6338475950
| 31>  H        0.4679633683    -0.1603276049    -0.1925631482
| 32>  H        2.5182957780     0.2074661193    -0.8347534977
| 33>  H        2.5739763994     1.5786608203     1.9022126268
| 34>  H        3.4459475704     2.1631470361     0.4490907998
| 35>  H        4.5389916146     0.3118272814     2.2816510091
| 36>  H        4.9841828184     0.3644850649     0.6947924272
| 37>  H        2.7668345132    -1.1861251424     1.8751207082
| 38>  H        4.3369135769    -1.7282645052    -0.7442753082
| 39>  H        3.3636474219    -3.5025030003     1.5712293381
| 40>  H        4.2663075944    -4.0313816984     0.0480755021
| 41> *
| 42>
| 43>                          ****END OF INPUT****
 Total Charge           Charge          ....    1
 Multiplicity           Mult            ....    1
 Number of Electrons    NEL             ....   54
FINAL SINGLE POINT ENERGY      -325.975486847426

CARTESIAN COORDINATES (ANGSTROEM)
---------------------------------
  O      0.000795   -0.000681    2.161617
  C      0.252816    0.567249    0.933908
  C      1.723621    0.477659    0.505247
  N      1.293372   -0.000261   -0.861141
  C     -0.115365   -0.300234   -0.304433
  C     -1.237586    0.051798   -1.194691
  C     -2.154303   -0.827851   -1.577579
  H     -0.700902    0.464456    2.625217
  H     -0.144236    1.582883    0.839055
  H      2.239003   -0.329775    1.023152
  H      2.337381    1.374886    0.476319
  H      1.800388   -0.789419   -1.258306
  H      1.273575    0.744651   -1.556755
  H     -0.120046   -1.352384   -0.015284
  H     -1.321718    1.095439   -1.493591
  H     -2.107606   -1.869988   -1.277924
  H     -2.994266   -0.532351   -2.194567

FINAL SINGLE POINT ENERGY      -325.975487628577
                    ***********************HURRAY********************
 Multiplicity           Mult            ....    1
 Number of Electrons    NEL             ....   54
 Basis Dimension        Dim             ....  277
FINAL SINGLE POINT ENERGY      -325.975488288633

VIBRATIONAL FREQUENCIES
-----------------------

   0:         0.00 cm**-1
   1:         0.00 cm**-1
   2:         0.00 cm**-1
   3:         0.00 cm**-1
   4:         0.00 cm**-1
   5:         0.00 cm**-1
   6:        88.50 cm**-1
   7:       105.60 cm**-1
   8:       165.26 cm**-1
   9:       237.64 cm**-1
  10:       259.80 cm**-1
  11:       396.93 cm**-1
  12:       430.62 cm**-1
  13:       490.85 cm**-1
  14:       651.14 cm**-1
  15:       668.11 cm**-1
  16:       811.43 cm**-1
  17:       859.94 cm**-1
  18:       873.08 cm**-1
  19:       938.42 cm**-1
  20:       981.44 cm**-1
  21:      1002.46 cm**-1
  22:      1016.64 cm**-1
  23:      1033.23 cm**-1
  24:      1063.82 cm**-1
  25:      1091.43 cm**-1
  26:      1175.26 cm**-1
  27:      1210.73 cm**-1
  28:      1237.59 cm**-1
  29:      1254.72 cm**-1
  30:      1274.37 cm**-1
  31:      1286.99 cm**-1
  32:      1309.63 cm**-1
  33:      1319.34 cm**-1
  34:      1331.51 cm**-1
  35:      1362.43 cm**-1
  36:      1462.98 cm**-1
  37:      1467.35 cm**-1
  38:      1489.39 cm**-1
  39:      1646.63 cm**-1
  40:      1716.06 cm**-1
  41:      3075.82 cm**-1
  42:      3122.37 cm**-1
  43:      3126.61 cm**-1
  44:      3152.34 cm**-1
  45:      3163.36 cm**-1
  46:      3199.18 cm**-1
  47:      3258.36 cm**-1
  48:      3469.86 cm**-1
  49:      3540.02 cm**-1
  50:      3872.29 cm**-1

IR SPECTRUM
-----------

 Mode    freq (cm**-1)   T**2         TX         TY         TZ
-------------------------------------------------------------------
   6:        88.50    7.979146  ( -1.818421  -1.810865  -1.180364)
   7:       105.60    4.881101  ( -1.031832  -1.881907   0.524262)
   8:       165.26   89.329555  (  6.075695   5.767082   4.376786)
   9:       237.64    1.632760  (  0.431879   0.359792  -1.147515)
  10:       259.80   13.611965  ( -1.254446  -3.069608  -1.617355)
  11:       396.93   13.392352  ( -1.282934  -1.112982  -3.241559)
  12:       430.62    0.544468  (  0.274333  -0.099186   0.677770)
  13:       490.85    9.761198  (  1.112257   0.167300  -2.914806)
  14:       651.14    7.248456  (  0.052701   0.375606   2.665445)
  15:       668.11   13.777600  ( -1.067205   1.849964   3.035837)
  16:       811.43   22.230185  ( -4.520994  -0.357111  -1.289679)
  17:       859.94   10.872820  ( -2.920754   1.529297   0.057140)
  18:       873.08   13.603022  (  3.136182   1.774959  -0.785433)
  19:       938.42    9.716616  (  1.348643   1.421775   2.424115)
  20:       981.44   21.406831  (  4.508103   0.299403   0.997095)
  21:      1002.46   14.187789  (  2.112045   2.024176  -2.372714)
  22:      1016.64   45.732112  ( -4.236877   0.729872   5.219988)
  23:      1033.23   13.021839  (  1.542435  -1.151841  -3.052212)
  24:      1063.82   26.295348  (  0.152856   0.431006  -5.107467)
  25:      1091.43   12.210003  (  0.413111  -1.593227   3.082364)
  26:      1175.26   60.603492  ( -1.537854  -2.356784   7.258379)
  27:      1210.73   11.881122  ( -1.130226   0.124043   3.253971)
  28:      1237.59   44.567610  (  5.846132   2.551664   1.969608)
  29:      1254.72   17.773988  ( -4.033318  -0.214653  -1.208413)
  30:      1274.37   13.327870  (  0.519304  -1.482646   3.295444)
  31:      1286.99   48.804270  ( -2.974714  -0.139350  -6.319488)
  32:      1309.63   28.842719  (  2.620666   3.256255  -3.372185)
  33:      1319.34   28.868838  ( -1.189716  -1.651488   4.972525)
  34:      1331.51   13.313375  ( -2.086420  -2.989650  -0.149059)
  35:      1362.43    9.384628  (  2.805662   1.067767  -0.610544)
  36:      1462.98   20.147039  (  2.031957   2.898761   2.759597)
  37:      1467.35    8.557002  (  2.265699   1.391640  -1.219405)
  38:      1489.39   20.357922  ( -4.487100   0.469461   0.058818)
  39:      1646.63   57.756356  (  3.595990   0.337617  -6.686645)
  40:      1716.06    5.693251  ( -2.309426   0.163220  -0.577202)
  41:      3075.82    9.404795  ( -0.517847   2.679464  -1.398964)
  42:      3122.37    0.436807  (  0.504302  -0.198475   0.378278)
  43:      3126.61    0.980029  ( -0.796358  -0.371261  -0.456079)
  44:      3152.34    1.371858  ( -0.024516   1.053345  -0.511586)
  45:      3163.36    0.669665  ( -0.682352   0.192877  -0.408485)
  46:      3199.18    1.449558  (  0.947933  -0.412608   0.617037)
  47:      3258.36    0.251034  (  0.437642   0.092361   0.225773)
  48:      3469.86   63.307888  ( -4.253930   0.175106   6.721704)
  49:      3540.02   81.463065  (  3.416501  -8.252899   1.296242)
  50:      3872.29  129.436331  (  6.497902  -3.649901  -8.596036)

--------------------------
THERMOCHEMISTRY AT 298.15K
--------------------------

Temperature         ... 298.15 K
Pressure            ... 1.00 atm
Total Mass          ... 100.14 AMU

Throughout the following assumptions are being made:
  (1) The electronic state is orbitally nondegenerate
  (2) There are no thermally accessible electronically excited states
  (3) Hindered rotations indicated by low frequency modes) are not
      treated as such but are treated as vibrations and this may
      case some error
  (4) All equations used are the standard statistical mechanics
      equations for an ideal gas
  (5) All vibrations are strinctly harmonic

------------
INNER ENERGY
------------

The inner energy is: U= E(el) + E(ZPE) + E(vib) + E(rot) + E(trans)
    E(el)   - is the total energy from the electronic structure calculation
              = E(kin-el) + E(nuc-el) + E(el-el) + E(nuc-nuc)
    E(ZPE)  - the the zero temperature vibrational energy from the frequency calculation
    E(vib)  - the the finite temperature correction to E(ZPE) due to population
              of excietd vibrational states
    E(rot)  - is the rotational thermal energy
    E(trans)- is the translational thermal energy

Summary of contributions to the inner energy U:
Electronic energy                ...   -325.97548829 Eh
Zero point energy                ...      0.15193454 Eh      95.34 kcal/mol
Thermal vibrational correction   ...      0.00474866 Eh       2.98 kcal/mol
Thermal rotational correction    ...      0.00141627 Eh       0.89 kcal/mol
Thermal translational correction ...      0.00141627 Eh       0.89 kcal/mol
-----------------------------------------------------------------------
Total thermal energy                   -325.81597255 Eh

Summary of corrections to the electronic energy:
(perhaps to be used in another calculation)
Total thermal correction                  0.00758120 Eh       4.76 kcal/mol
Non-thermal (ZPE) correction              0.15193454 Eh      95.34 kcal/mol
-----------------------------------------------------------------------
Total correction                          0.15951574 Eh     100.10 kcal/mol

--------
ENTHALPY
--------

The enthalpy is H = U + kB*T
                kB is Boltzmann's constant
Total free energy                 ...   -325.81597255 Eh
Thermal Enthalpy correction       ...      0.00094421 Eh       0.59 kcal/mol
-----------------------------------------------------------------------
Total Enthalpy                    ...   -325.81502834 Eh

-------
ENTROPY
-------

The entropy contributions are T*S = T*(S(el)+S(vib)+S(rot)+S(trans)
     S(el)   - electronic entropy
     S(vib)  - vibrational entropy
     S(rot)  - rotational entropy
     S(trans)- translational entropy
The entropies will be listed as mutliplied by the temperature to get
units of energy

Electronic entropy                ...      0.00000000 Eh      0.00 kcal/mol
Vibrational entropy               ...      0.00842800 Eh      5.29 kcal/mol
Rotational entropy                ...      0.01211676 Eh      7.60 kcal/mol
Translational entropy             ...      0.01887324 Eh     11.84 kcal/mol
-----------------------------------------------------------------------
Final entropy term                ...      0.03941799 Eh     24.74 kcal/mol

CAUTION: The rotational entropy is not quite correctly treated here
         because it includes a symmetry number that is not yet correctly
         implemented in ORCA!
For a nonlinear molecule the correct rotational entropy is:
    S(rot) = R*(ln(qrot/sn)+1.5)
    R    = 8.31441 J/mol/K = 1.987191683e-3 kcal/mol/K
    qrot = 250622.3336619
    sn is the rotational symmetry number. We have assumed 3 here
       if it is different for your molecule then you should correct
       the printed rotational entropy by manually evaluating the equation
       as given above

For convenience we print out the resulting values for sn=1 - 12:
 sn= 1  qrot/sn=  250622.3337 T*S(rot)=     8.25 kcal/mol T*S(tot)=    25.39 kcal/mol
 sn= 2  qrot/sn=  125311.1668 T*S(rot)=     7.84 kcal/mol T*S(tot)=    24.98 kcal/mol
 sn= 3  qrot/sn=   83540.7779 T*S(rot)=     7.60 kcal/mol T*S(tot)=    24.74 kcal/mol
 sn= 4  qrot/sn=   62655.5834 T*S(rot)=     7.43 kcal/mol T*S(tot)=    24.56 kcal/mol
 sn= 5  qrot/sn=   50124.4667 T*S(rot)=     7.30 kcal/mol T*S(tot)=    24.43 kcal/mol
 sn= 6  qrot/sn=   41770.3889 T*S(rot)=     7.19 kcal/mol T*S(tot)=    24.32 kcal/mol
 sn= 7  qrot/sn=   35803.1905 T*S(rot)=     7.10 kcal/mol T*S(tot)=    24.23 kcal/mol
 sn= 8  qrot/sn=   31327.7917 T*S(rot)=     7.02 kcal/mol T*S(tot)=    24.15 kcal/mol
 sn= 9  qrot/sn=   27846.9260 T*S(rot)=     6.95 kcal/mol T*S(tot)=    24.08 kcal/mol
 sn=10  qrot/sn=   25062.2334 T*S(rot)=     6.89 kcal/mol T*S(tot)=    24.02 kcal/mol
 sn=11  qrot/sn=   22783.8485 T*S(rot)=     6.83 kcal/mol T*S(tot)=    23.97 kcal/mol
 sn=12  qrot/sn=   20885.1945 T*S(rot)=     6.78 kcal/mol T*S(tot)=    23.91 kcal/mol

-------------------
GIBBS FREE ENTHALPY
-------------------

The Gibbs free enthalpy is G = H - T*S

Total enthalpy                    ...   -325.81502834 Eh
Total entropy correction          ...     -0.03941799 Eh    -24.74 kcal/mol
-----------------------------------------------------------------------
Final Gibbs free enthalpy         ...   -325.85444633 Eh

For completeness - the Gibbs free enthalpy minus the electronic energy
G-E(el)                           ...      0.12104196 Eh     75.95 kcal/mol

                             ****ORCA TERMINATED NORMALLY****
TOTAL RUN TIME: 0 days 0 hours 34 minutes 7 seconds 765 msec
