                         Program Version 3.0.3 - RELEASE   -
|  1> ! NORI PBE0 def2-TZVP UseSym TightOPT Freq TightSCF Grid3 FinalGrid5 XYZFile
|  2> % pal
|  3>     nprocs 8
|  4> end
|  5> %method
|  6>     SymThresh 5.0e-2
|  7> end
|  8> % geom
|  9>     MaxIter 10
| 10> end
| 11> % maxcore 2000
| 12> % output
| 13>     printlevel mini
| 14>     print[ P_Basis ] 0
| 15>     print[ P_SCFInfo ] 1
| 16>     print[ P_SCFIterInfo ] 1
| 17>     print[ P_OrbEn ] 0
| 18>     print[ P_Cartesian ] 0
| 19> end
| 20> % elprop
| 21>     Dipole false
| 22> end
| 23> *xyz 1 1
| 24>  O        0.8565573270     0.1760964229     0.3355932774
| 25>  C        2.2060215042     0.0675176756     0.1134342214
| 26>  C        3.0334045358     1.0629850500     0.9388300920
| 27>  N        3.9616258454    -0.0506152612     1.3686467586
| 28>  C        2.9372338517    -1.0855121853     0.8785234547
| 29>  C        3.5043292620    -2.1973197117     0.1761388863
| 30>  C        3.9690336144    -3.1122811495    -0.4447564913
| 31>  H        0.3510361416    -0.1006337847    -0.4344277042
| 32>  H        2.4783545350     0.0664143921    -0.9454004386
| 33>  H        2.4764571199     1.4225836966     1.8025521782
| 34>  H        3.5471511098     1.8795712992     0.4376213436
| 35>  H        4.8198937654    -0.0950819837     0.8195759281
| 36>  H        4.2086332442    -0.0933104179     2.3565073415
| 37>  H        2.3363562805    -1.3843223294     1.7409135068
| 38>  H        4.3784318630    -3.9344917130    -0.9900423544
| 39> *
| 40>
| 41>                          ****END OF INPUT****
 Total Charge           Charge          ....    1
 Multiplicity           Mult            ....    1
 Number of Electrons    NEL             ....   52
FINAL SINGLE POINT ENERGY      -324.716497305844

CARTESIAN COORDINATES (ANGSTROEM)
---------------------------------
  O     -0.000043    0.000127    2.184350
  C      0.108305    0.507882    0.914433
  C      1.563941    0.690082    0.462207
  N      1.253234    0.000268   -0.846954
  C     -0.064897   -0.520025   -0.253105
  C     -1.186114   -0.449916   -1.141356
  C     -2.136571   -0.359946   -1.867296
  H     -0.817157    0.281889    2.606264
  H     -0.502334    1.398245    0.743459
  H      2.242030    0.069130    1.045675
  H      1.964963    1.692192    0.333653
  H      1.079447    0.649734   -1.614083
  H      1.913848   -0.706717   -1.166825
  H      0.122052   -1.528668    0.123295
  H     -2.984687   -0.291357   -2.512986

FINAL SINGLE POINT ENERGY      -324.716497622349
                    ***********************HURRAY********************
 Multiplicity           Mult            ....    1
 Number of Electrons    NEL             ....   52
 Basis Dimension        Dim             ....  265
FINAL SINGLE POINT ENERGY      -324.716497772108

VIBRATIONAL FREQUENCIES
-----------------------

   0:         0.00 cm**-1
   1:         0.00 cm**-1
   2:         0.00 cm**-1
   3:         0.00 cm**-1
   4:         0.00 cm**-1
   5:         0.00 cm**-1
   6:        93.09 cm**-1
   7:       144.93 cm**-1
   8:       199.16 cm**-1
   9:       230.82 cm**-1
  10:       354.10 cm**-1
  11:       420.48 cm**-1
  12:       500.02 cm**-1
  13:       519.94 cm**-1
  14:       649.60 cm**-1
  15:       725.77 cm**-1
  16:       778.68 cm**-1
  17:       812.70 cm**-1
  18:       863.56 cm**-1
  19:       871.99 cm**-1
  20:       938.02 cm**-1
  21:       985.68 cm**-1
  22:      1054.34 cm**-1
  23:      1075.42 cm**-1
  24:      1114.27 cm**-1
  25:      1193.29 cm**-1
  26:      1232.38 cm**-1
  27:      1256.93 cm**-1
  28:      1269.55 cm**-1
  29:      1287.68 cm**-1
  30:      1308.28 cm**-1
  31:      1319.27 cm**-1
  32:      1378.03 cm**-1
  33:      1465.97 cm**-1
  34:      1487.00 cm**-1
  35:      1644.94 cm**-1
  36:      2248.29 cm**-1
  37:      3092.69 cm**-1
  38:      3110.33 cm**-1
  39:      3126.69 cm**-1
  40:      3204.12 cm**-1
  41:      3451.41 cm**-1
  42:      3464.16 cm**-1
  43:      3535.36 cm**-1
  44:      3862.29 cm**-1

IR SPECTRUM
-----------

 Mode    freq (cm**-1)   T**2         TX         TY         TZ
-------------------------------------------------------------------
   6:        93.09    4.296343  (  0.924035   1.826547  -0.325926)
   7:       144.93    0.897846  (  0.526408  -0.057931   0.785739)
   8:       199.16    6.945975  ( -1.123081   0.824641  -2.237104)
   9:       230.82  103.291563  (  4.256483   8.730575   2.991818)
  10:       354.10   24.787252  (  0.269400   3.027861   3.942934)
  11:       420.48   27.060533  ( -0.141417   3.220265   4.082944)
  12:       500.02    4.816123  ( -1.835695   0.443925   1.117711)
  13:       519.94   14.368330  (  2.192214   2.551482  -1.747130)
  14:       649.60    7.095254  (  1.552582  -1.109118  -1.858656)
  15:       725.77   38.916715  ( -0.829577   5.995579   1.510478)
  16:       778.68   28.414890  ( -2.727374  -1.454360   4.342944)
  17:       812.70   10.895943  ( -2.799444  -1.589830  -0.729039)
  18:       863.56   13.739257  ( -3.094231   1.800656  -0.960536)
  19:       871.99   17.355397  ( -3.709515  -1.825379  -0.512724)
  20:       938.02    6.057107  ( -0.257402  -1.358232  -2.036187)
  21:       985.68   22.027522  ( -3.956504  -2.314929  -1.007323)
  22:      1054.34   62.645162  ( -0.143717  -1.988946   7.659543)
  23:      1075.42   13.462499  ( -2.233483   1.099457  -2.695412)
  24:      1114.27    0.245500  (  0.397880  -0.286842   0.070095)
  25:      1193.29   65.826782  ( -1.088874  -1.918915   7.807618)
  26:      1232.38   17.552143  (  2.573054   2.714703   1.887306)
  27:      1256.93   36.867260  ( -5.525966  -2.078548  -1.417955)
  28:      1269.55    8.033673  ( -1.156732   0.209268  -2.579118)
  29:      1287.68   57.907665  ( -2.863582  -0.574753  -7.026893)
  30:      1308.28   59.352377  (  2.402113   4.751084  -5.568611)
  31:      1319.27   16.609347  ( -0.166949  -0.227947   4.065651)
  32:      1378.03   25.733395  ( -4.859643  -1.024206  -1.033570)
  33:      1465.97    9.896966  ( -0.285857   1.344527   2.829752)
  34:      1487.00   16.411837  ( -4.038750   0.235240   0.212122)
  35:      1644.94   60.730555  ( -3.920574  -0.203538   6.731881)
  36:      2248.29   37.552209  ( -5.408718  -0.105465  -2.878690)
  37:      3092.69    6.422748  (  0.285339  -2.185369   1.251197)
  38:      3110.33    4.447647  (  1.325855   1.226209   1.089113)
  39:      3126.69    0.304891  (  0.457169  -0.226298   0.211368)
  40:      3204.12    1.707601  ( -0.894957   0.654660  -0.691428)
  41:      3451.41  100.579643  ( -8.194759   0.239184  -5.776536)
  42:      3464.16   72.730058  (  3.862829  -0.100972  -7.602527)
  43:      3535.36   94.663832  ( -5.267728   7.890733  -2.156665)
  44:      3862.29  134.523434  (  7.399703  -2.070188  -8.688046)

--------------------------
THERMOCHEMISTRY AT 298.15K
--------------------------

Temperature         ... 298.15 K
Pressure            ... 1.00 atm
Total Mass          ... 98.12 AMU

Throughout the following assumptions are being made:
  (1) The electronic state is orbitally nondegenerate
  (2) There are no thermally accessible electronically excited states
  (3) Hindered rotations indicated by low frequency modes) are not
      treated as such but are treated as vibrations and this may
      case some error
  (4) All equations used are the standard statistical mechanics
      equations for an ideal gas
  (5) All vibrations are strinctly harmonic

------------
INNER ENERGY
------------

The inner energy is: U= E(el) + E(ZPE) + E(vib) + E(rot) + E(trans)
    E(el)   - is the total energy from the electronic structure calculation
              = E(kin-el) + E(nuc-el) + E(el-el) + E(nuc-nuc)
    E(ZPE)  - the the zero temperature vibrational energy from the frequency calculation
    E(vib)  - the the finite temperature correction to E(ZPE) due to population
              of excietd vibrational states
    E(rot)  - is the rotational thermal energy
    E(trans)- is the translational thermal energy

Summary of contributions to the inner energy U:
Electronic energy                ...   -324.71649777 Eh
Zero point energy                ...      0.12819531 Eh      80.44 kcal/mol
Thermal vibrational correction   ...      0.00435515 Eh       2.73 kcal/mol
Thermal rotational correction    ...      0.00141627 Eh       0.89 kcal/mol
Thermal translational correction ...      0.00141627 Eh       0.89 kcal/mol
-----------------------------------------------------------------------
Total thermal energy                   -324.58111477 Eh

Summary of corrections to the electronic energy:
(perhaps to be used in another calculation)
Total thermal correction                  0.00718769 Eh       4.51 kcal/mol
Non-thermal (ZPE) correction              0.12819531 Eh      80.44 kcal/mol
-----------------------------------------------------------------------
Total correction                          0.13538300 Eh      84.95 kcal/mol

--------
ENTHALPY
--------

The enthalpy is H = U + kB*T
                kB is Boltzmann's constant
Total free energy                 ...   -324.58111477 Eh
Thermal Enthalpy correction       ...      0.00094421 Eh       0.59 kcal/mol
-----------------------------------------------------------------------
Total Enthalpy                    ...   -324.58017056 Eh

-------
ENTROPY
-------

The entropy contributions are T*S = T*(S(el)+S(vib)+S(rot)+S(trans)
     S(el)   - electronic entropy
     S(vib)  - vibrational entropy
     S(rot)  - rotational entropy
     S(trans)- translational entropy
The entropies will be listed as mutliplied by the temperature to get
units of energy

Electronic entropy                ...      0.00000000 Eh      0.00 kcal/mol
Vibrational entropy               ...      0.00747759 Eh      4.69 kcal/mol
Rotational entropy                ...      0.01205123 Eh      7.56 kcal/mol
Translational entropy             ...      0.01884443 Eh     11.83 kcal/mol
-----------------------------------------------------------------------
Final entropy term                ...      0.03837325 Eh     24.08 kcal/mol

CAUTION: The rotational entropy is not quite correctly treated here
         because it includes a symmetry number that is not yet correctly
         implemented in ORCA!
For a nonlinear molecule the correct rotational entropy is:
    S(rot) = R*(ln(qrot/sn)+1.5)
    R    = 8.31441 J/mol/K = 1.987191683e-3 kcal/mol/K
    qrot = 233817.9632843
    sn is the rotational symmetry number. We have assumed 3 here
       if it is different for your molecule then you should correct
       the printed rotational entropy by manually evaluating the equation
       as given above

For convenience we print out the resulting values for sn=1 - 12:
 sn= 1  qrot/sn=  233817.9633 T*S(rot)=     8.21 kcal/mol T*S(tot)=    24.73 kcal/mol
 sn= 2  qrot/sn=  116908.9816 T*S(rot)=     7.80 kcal/mol T*S(tot)=    24.32 kcal/mol
 sn= 3  qrot/sn=   77939.3211 T*S(rot)=     7.56 kcal/mol T*S(tot)=    24.08 kcal/mol
 sn= 4  qrot/sn=   58454.4908 T*S(rot)=     7.39 kcal/mol T*S(tot)=    23.91 kcal/mol
 sn= 5  qrot/sn=   46763.5927 T*S(rot)=     7.26 kcal/mol T*S(tot)=    23.78 kcal/mol
 sn= 6  qrot/sn=   38969.6605 T*S(rot)=     7.15 kcal/mol T*S(tot)=    23.67 kcal/mol
 sn= 7  qrot/sn=   33402.5662 T*S(rot)=     7.06 kcal/mol T*S(tot)=    23.58 kcal/mol
 sn= 8  qrot/sn=   29227.2454 T*S(rot)=     6.98 kcal/mol T*S(tot)=    23.50 kcal/mol
 sn= 9  qrot/sn=   25979.7737 T*S(rot)=     6.91 kcal/mol T*S(tot)=    23.43 kcal/mol
 sn=10  qrot/sn=   23381.7963 T*S(rot)=     6.85 kcal/mol T*S(tot)=    23.37 kcal/mol
 sn=11  qrot/sn=   21256.1785 T*S(rot)=     6.79 kcal/mol T*S(tot)=    23.31 kcal/mol
 sn=12  qrot/sn=   19484.8303 T*S(rot)=     6.74 kcal/mol T*S(tot)=    23.26 kcal/mol

-------------------
GIBBS FREE ENTHALPY
-------------------

The Gibbs free enthalpy is G = H - T*S

Total enthalpy                    ...   -324.58017056 Eh
Total entropy correction          ...     -0.03837325 Eh    -24.08 kcal/mol
-----------------------------------------------------------------------
Final Gibbs free enthalpy         ...   -324.61854381 Eh

For completeness - the Gibbs free enthalpy minus the electronic energy
G-E(el)                           ...      0.09795396 Eh     61.47 kcal/mol

                             ****ORCA TERMINATED NORMALLY****
TOTAL RUN TIME: 0 days 0 hours 26 minutes 27 seconds 730 msec
