                         Program Version 3.0.3 - RELEASE   -
|  1> ! NORI PBE0 def2-TZVP UseSym TightOPT Freq TightSCF Grid3 FinalGrid5 XYZFile
|  2> % pal
|  3>     nprocs 8
|  4> end
|  5> %method
|  6>     SymThresh 5.0e-2
|  7> end
|  8> % geom
|  9>     MaxIter 10
| 10> end
| 11> % maxcore 2000
| 12> % output
| 13>     printlevel mini
| 14>     print[ P_Basis ] 0
| 15>     print[ P_SCFInfo ] 1
| 16>     print[ P_SCFIterInfo ] 1
| 17>     print[ P_OrbEn ] 0
| 18>     print[ P_Cartesian ] 0
| 19> end
| 20> % elprop
| 21>     Dipole false
| 22> end
| 23> *xyz 1 1
| 24>  O        1.1801635731    -0.1173696176     0.5789967220
| 25>  C        2.2956752158    -0.1187894101     0.2290885127
| 26>  C        3.3222029270     0.9483463986    -0.1488851705
| 27>  N        4.3106386910    -0.1575350511    -0.4836055550
| 28>  C        3.3425651323    -1.2576313383    -0.0312258835
| 29>  C        3.0622907803    -2.2287408022    -1.0551147095
| 30>  N        2.8361575985    -2.9624959908    -1.9102677376
| 31>  H        3.0768906815     1.5620572721    -1.0164413994
| 32>  H        3.6706447211     1.5719800143     0.6756370395
| 33>  H        5.1858289783    -0.1292383952     0.0407020787
| 34>  H        4.5370119361    -0.2206886699    -1.4782233673
| 35>  H        3.6962597651    -1.7204744099     0.8946694700
| 36> *
| 37>
| 38>                          ****END OF INPUT****
 Total Charge           Charge          ....    1
 Multiplicity           Mult            ....    1
 Number of Electrons    NEL             ....   50
FINAL SINGLE POINT ENERGY      -339.557897818124

CARTESIAN COORDINATES (ANGSTROEM)
---------------------------------
  O     -0.000101    0.000347    2.099706
  C      0.432045   -0.017807    1.013547
  C      1.686630    0.523264    0.329114
  N      1.157824    0.000100   -0.997031
  C     -0.072467   -0.635090   -0.337406
  C     -1.318796   -0.168475   -0.883977
  N     -2.292612    0.256033   -1.322423
  H      1.802335    1.607522    0.330694
  H      2.619989    0.037678    0.616776
  H      1.767136   -0.665748   -1.473867
  H      0.909163    0.736509   -1.660807
  H      0.005819   -1.726065   -0.353882

FINAL SINGLE POINT ENERGY      -339.557897970118
                    ***********************HURRAY********************
 Multiplicity           Mult            ....    1
 Number of Electrons    NEL             ....   50
 Basis Dimension        Dim             ....  247
FINAL SINGLE POINT ENERGY      -339.557897991065

VIBRATIONAL FREQUENCIES
-----------------------

   0:         0.00 cm**-1
   1:         0.00 cm**-1
   2:         0.00 cm**-1
   3:         0.00 cm**-1
   4:         0.00 cm**-1
   5:         0.00 cm**-1
   6:        77.39 cm**-1
   7:       128.77 cm**-1
   8:       204.53 cm**-1
   9:       379.63 cm**-1
  10:       423.25 cm**-1
  11:       517.70 cm**-1
  12:       570.59 cm**-1
  13:       706.23 cm**-1
  14:       732.62 cm**-1
  15:       822.25 cm**-1
  16:       869.08 cm**-1
  17:       917.31 cm**-1
  18:      1016.24 cm**-1
  19:      1041.32 cm**-1
  20:      1046.32 cm**-1
  21:      1118.12 cm**-1
  22:      1209.89 cm**-1
  23:      1264.60 cm**-1
  24:      1279.04 cm**-1
  25:      1309.05 cm**-1
  26:      1341.65 cm**-1
  27:      1438.75 cm**-1
  28:      1642.83 cm**-1
  29:      2005.60 cm**-1
  30:      2389.01 cm**-1
  31:      3103.78 cm**-1
  32:      3108.60 cm**-1
  33:      3179.99 cm**-1
  34:      3449.54 cm**-1
  35:      3515.73 cm**-1

IR SPECTRUM
-----------

 Mode    freq (cm**-1)   T**2         TX         TY         TZ
-------------------------------------------------------------------
   6:        77.39    3.205652  (  1.362465   1.148949   0.171048)
   7:       128.77    9.904125  (  2.608925  -1.063822  -1.402113)
   8:       204.53    5.643051  (  2.178211   0.941983  -0.105427)
   9:       379.63    0.205624  (  0.157162   0.353241  -0.236949)
  10:       423.25    1.260836  ( -0.599420  -0.919671  -0.236088)
  11:       517.70    1.532209  (  1.154859   0.042522   0.443511)
  12:       570.59    2.813536  ( -0.951051  -0.979179  -0.974806)
  13:       706.23    7.501365  ( -1.591347   0.354820   2.200701)
  14:       732.62    4.391434  ( -1.605148   0.478755  -1.259257)
  15:       822.25    9.800657  ( -2.206784   2.114029  -0.679443)
  16:       869.08   20.724093  (  3.822723   2.223283   1.080690)
  17:       917.31   11.922016  (  2.144129   0.357143   2.682755)
  18:      1016.24   25.855483  ( -4.621926  -2.091290   0.346112)
  19:      1041.32   81.062472  ( -7.420325  -3.193122  -3.975579)
  20:      1046.32    3.674429  ( -0.573087   1.550433   0.970647)
  21:      1118.12    6.885405  (  0.512503   2.367499   1.008809)
  22:      1209.89   23.216803  ( -3.312209  -0.907169  -3.379811)
  23:      1264.60   22.768644  (  4.529689   1.497866  -0.083423)
  24:      1279.04   17.517454  (  2.885492   2.986965  -0.519069)
  25:      1309.05   17.991965  (  2.877482   2.738722   1.487099)
  26:      1341.65    6.661338  ( -2.282486   1.197471   0.132883)
  27:      1438.75   25.972435  ( -4.566843  -2.261759  -0.028726)
  28:      1642.83   69.216911  ( -3.339060  -0.944387   7.561463)
  29:      2005.60  230.821413  (  3.034365   0.156811 -14.885881)
  30:      2389.01   10.404190  ( -2.943347   1.166308  -0.616947)
  31:      3103.78   29.441960  ( -2.443922  -4.631056  -1.422155)
  32:      3108.60   10.548819  ( -3.223636  -0.165614   0.359946)
  33:      3179.99   12.570485  (  1.453096  -3.189732   0.533484)
  34:      3449.54  104.162040  ( -3.480760  -1.638708   9.453094)
  35:      3515.73  124.824458  ( -6.222503   9.279184   0.040817)

--------------------------
THERMOCHEMISTRY AT 298.15K
--------------------------

Temperature         ... 298.15 K
Pressure            ... 1.00 atm
Total Mass          ... 97.10 AMU

Throughout the following assumptions are being made:
  (1) The electronic state is orbitally nondegenerate
  (2) There are no thermally accessible electronically excited states
  (3) Hindered rotations indicated by low frequency modes) are not
      treated as such but are treated as vibrations and this may
      case some error
  (4) All equations used are the standard statistical mechanics
      equations for an ideal gas
  (5) All vibrations are strinctly harmonic

------------
INNER ENERGY
------------

The inner energy is: U= E(el) + E(ZPE) + E(vib) + E(rot) + E(trans)
    E(el)   - is the total energy from the electronic structure calculation
              = E(kin-el) + E(nuc-el) + E(el-el) + E(nuc-nuc)
    E(ZPE)  - the the zero temperature vibrational energy from the frequency calculation
    E(vib)  - the the finite temperature correction to E(ZPE) due to population
              of excietd vibrational states
    E(rot)  - is the rotational thermal energy
    E(trans)- is the translational thermal energy

Summary of contributions to the inner energy U:
Electronic energy                ...   -339.55789799 Eh
Zero point energy                ...      0.09297067 Eh      58.34 kcal/mol
Thermal vibrational correction   ...      0.00360404 Eh       2.26 kcal/mol
Thermal rotational correction    ...      0.00141627 Eh       0.89 kcal/mol
Thermal translational correction ...      0.00141627 Eh       0.89 kcal/mol
-----------------------------------------------------------------------
Total thermal energy                   -339.45849073 Eh

Summary of corrections to the electronic energy:
(perhaps to be used in another calculation)
Total thermal correction                  0.00643659 Eh       4.04 kcal/mol
Non-thermal (ZPE) correction              0.09297067 Eh      58.34 kcal/mol
-----------------------------------------------------------------------
Total correction                          0.09940726 Eh      62.38 kcal/mol

--------
ENTHALPY
--------

The enthalpy is H = U + kB*T
                kB is Boltzmann's constant
Total free energy                 ...   -339.45849073 Eh
Thermal Enthalpy correction       ...      0.00094421 Eh       0.59 kcal/mol
-----------------------------------------------------------------------
Total Enthalpy                    ...   -339.45754652 Eh

-------
ENTROPY
-------

The entropy contributions are T*S = T*(S(el)+S(vib)+S(rot)+S(trans)
     S(el)   - electronic entropy
     S(vib)  - vibrational entropy
     S(rot)  - rotational entropy
     S(trans)- translational entropy
The entropies will be listed as mutliplied by the temperature to get
units of energy

Electronic entropy                ...      0.00000000 Eh      0.00 kcal/mol
Vibrational entropy               ...      0.00645001 Eh      4.05 kcal/mol
Rotational entropy                ...      0.01195581 Eh      7.50 kcal/mol
Translational entropy             ...      0.01882952 Eh     11.82 kcal/mol
-----------------------------------------------------------------------
Final entropy term                ...      0.03723534 Eh     23.37 kcal/mol

CAUTION: The rotational entropy is not quite correctly treated here
         because it includes a symmetry number that is not yet correctly
         implemented in ORCA!
For a nonlinear molecule the correct rotational entropy is:
    S(rot) = R*(ln(qrot/sn)+1.5)
    R    = 8.31441 J/mol/K = 1.987191683e-3 kcal/mol/K
    qrot = 211343.5781220
    sn is the rotational symmetry number. We have assumed 3 here
       if it is different for your molecule then you should correct
       the printed rotational entropy by manually evaluating the equation
       as given above

For convenience we print out the resulting values for sn=1 - 12:
 sn= 1  qrot/sn=  211343.5781 T*S(rot)=     8.15 kcal/mol T*S(tot)=    24.02 kcal/mol
 sn= 2  qrot/sn=  105671.7891 T*S(rot)=     7.74 kcal/mol T*S(tot)=    23.61 kcal/mol
 sn= 3  qrot/sn=   70447.8594 T*S(rot)=     7.50 kcal/mol T*S(tot)=    23.37 kcal/mol
 sn= 4  qrot/sn=   52835.8945 T*S(rot)=     7.33 kcal/mol T*S(tot)=    23.20 kcal/mol
 sn= 5  qrot/sn=   42268.7156 T*S(rot)=     7.20 kcal/mol T*S(tot)=    23.06 kcal/mol
 sn= 6  qrot/sn=   35223.9297 T*S(rot)=     7.09 kcal/mol T*S(tot)=    22.95 kcal/mol
 sn= 7  qrot/sn=   30191.9397 T*S(rot)=     7.00 kcal/mol T*S(tot)=    22.86 kcal/mol
 sn= 8  qrot/sn=   26417.9473 T*S(rot)=     6.92 kcal/mol T*S(tot)=    22.78 kcal/mol
 sn= 9  qrot/sn=   23482.6198 T*S(rot)=     6.85 kcal/mol T*S(tot)=    22.71 kcal/mol
 sn=10  qrot/sn=   21134.3578 T*S(rot)=     6.79 kcal/mol T*S(tot)=    22.65 kcal/mol
 sn=11  qrot/sn=   19213.0526 T*S(rot)=     6.73 kcal/mol T*S(tot)=    22.60 kcal/mol
 sn=12  qrot/sn=   17611.9648 T*S(rot)=     6.68 kcal/mol T*S(tot)=    22.54 kcal/mol

-------------------
GIBBS FREE ENTHALPY
-------------------

The Gibbs free enthalpy is G = H - T*S

Total enthalpy                    ...   -339.45754652 Eh
Total entropy correction          ...     -0.03723534 Eh    -23.37 kcal/mol
-----------------------------------------------------------------------
Final Gibbs free enthalpy         ...   -339.49478186 Eh

For completeness - the Gibbs free enthalpy minus the electronic energy
G-E(el)                           ...      0.06311613 Eh     39.61 kcal/mol

                             ****ORCA TERMINATED NORMALLY****
TOTAL RUN TIME: 0 days 0 hours 22 minutes 31 seconds 695 msec
