                         Program Version 3.0.3 - RELEASE   -
|  1> ! NORI PBE0 def2-TZVP UseSym TightOPT Freq TightSCF Grid3 FinalGrid5 XYZFile
|  2> % pal
|  3>     nprocs 8
|  4> end
|  5> %method
|  6>     SymThresh 5.0e-2
|  7> end
|  8> % geom
|  9>     MaxIter 10
| 10> end
| 11> % maxcore 2000
| 12> % output
| 13>     printlevel mini
| 14>     print[ P_Basis ] 0
| 15>     print[ P_SCFInfo ] 1
| 16>     print[ P_SCFIterInfo ] 1
| 17>     print[ P_OrbEn ] 0
| 18>     print[ P_Cartesian ] 0
| 19> end
| 20> % elprop
| 21>     Dipole false
| 22> end
| 23> *xyz 1 1
| 24>  O        0.8376116630    -0.0371149826     0.2793444994
| 25>  C        2.1885623155    -0.0244849648     0.0267900575
| 26>  C        2.9275336892     1.0643783867     0.8418617828
| 27>  N        3.9618841238     0.0430489281     1.2637461961
| 28>  C        3.0472216473    -1.0706938505     0.8010961998
| 29>  C        2.5350141997     0.0124800985    -1.3930096545
| 30>  N        2.8414318900     0.0293090808    -2.5002995631
| 31>  H        0.3361532892    -0.3894001946    -0.4651740064
| 32>  H        2.3337761693     1.3600400341     1.7052645359
| 33>  H        3.3461678609     1.9256068009     0.3272273486
| 34>  H        4.8184212468     0.1016882511     0.7123650413
| 35>  H        4.2188482918     0.0395554938     2.2503523314
| 36>  H        3.5630122355    -1.8565653884     0.2541763861
| 37>  H        2.4944213778    -1.4629376931     1.6526988452
| 38> *
| 39>
| 40>                          ****END OF INPUT****
 Total Charge           Charge          ....    1
 Multiplicity           Mult            ....    1
 Number of Electrons    NEL             ....   52
FINAL SINGLE POINT ENERGY      -340.787858947095

CARTESIAN COORDINATES (ANGSTROEM)
---------------------------------
  O     -0.000061    0.000162    1.797467
  C     -0.015937   -0.014847    0.423310
  C      0.929783    1.048507   -0.185684
  N      1.508317    0.000086   -1.111211
  C      0.879626   -1.087957   -0.267594
  C     -1.354070    0.029153   -0.163774
  N     -2.391601    0.050528   -0.657098
  H     -0.824818   -0.332606    2.170160
  H      1.682294    1.347395    0.542167
  H      0.507504    1.905820   -0.703819
  H      1.113122    0.045478   -2.050958
  H      2.524269   -0.019583   -1.194234
  H      0.418834   -1.879470   -0.853823
  H      1.618054   -1.476645    0.431553

FINAL SINGLE POINT ENERGY      -340.787859347771
                    ***********************HURRAY********************
 Multiplicity           Mult            ....    1
 Number of Electrons    NEL             ....   52
 Basis Dimension        Dim             ....  259
FINAL SINGLE POINT ENERGY      -340.787859656669

VIBRATIONAL FREQUENCIES
-----------------------

   0:         0.00 cm**-1
   1:         0.00 cm**-1
   2:         0.00 cm**-1
   3:         0.00 cm**-1
   4:         0.00 cm**-1
   5:         0.00 cm**-1
   6:        88.60 cm**-1
   7:       174.27 cm**-1
   8:       192.15 cm**-1
   9:       214.49 cm**-1
  10:       373.96 cm**-1
  11:       399.38 cm**-1
  12:       537.62 cm**-1
  13:       572.00 cm**-1
  14:       667.96 cm**-1
  15:       740.07 cm**-1
  16:       849.54 cm**-1
  17:       896.95 cm**-1
  18:       908.34 cm**-1
  19:       922.88 cm**-1
  20:       986.47 cm**-1
  21:      1038.73 cm**-1
  22:      1071.33 cm**-1
  23:      1130.38 cm**-1
  24:      1244.76 cm**-1
  25:      1261.54 cm**-1
  26:      1294.90 cm**-1
  27:      1310.86 cm**-1
  28:      1324.23 cm**-1
  29:      1342.89 cm**-1
  30:      1397.53 cm**-1
  31:      1466.81 cm**-1
  32:      1486.74 cm**-1
  33:      1652.54 cm**-1
  34:      2383.59 cm**-1
  35:      3124.08 cm**-1
  36:      3128.46 cm**-1
  37:      3208.17 cm**-1
  38:      3210.47 cm**-1
  39:      3463.89 cm**-1
  40:      3527.71 cm**-1
  41:      3831.19 cm**-1

IR SPECTRUM
-----------

 Mode    freq (cm**-1)   T**2         TX         TY         TZ
-------------------------------------------------------------------
   6:        88.60   11.418884  (  3.347556  -0.108886  -0.448215)
   7:       174.27   15.221888  ( -2.006404   3.249397  -0.798532)
   8:       192.15   20.987213  ( -0.673772   3.987848  -2.151816)
   9:       214.49   91.749485  ( -4.421275   8.457355   0.821562)
  10:       373.96    6.862037  (  1.505633  -2.041491  -0.653775)
  11:       399.38   10.928351  (  0.959208  -0.945855  -3.018879)
  12:       537.62    9.162559  ( -2.297702   0.277475   1.950931)
  13:       572.00    0.631396  ( -0.316165   0.427128   0.590759)
  14:       667.96    3.449921  ( -1.747694   0.103167   0.620358)
  15:       740.07    3.814665  (  1.598510  -0.431118   1.036131)
  16:       849.54    2.517682  (  0.059777  -1.473475  -0.585644)
  17:       896.95    8.703681  (  2.630087   0.213995   1.319292)
  18:       908.34    1.541656  ( -0.297234  -0.178514   1.192242)
  19:       922.88    3.840767  ( -0.280391   1.937802   0.084101)
  20:       986.47    2.510522  ( -1.575480   0.165545   0.031316)
  21:      1038.73   16.329074  (  0.701434  -2.872589   2.754142)
  22:      1071.33    1.830474  ( -0.028869   0.341681  -1.308776)
  23:      1130.38  118.684211  (  2.025180  -1.337846 -10.620406)
  24:      1244.76   35.722972  ( -0.357458  -5.954499  -0.373013)
  25:      1261.54   30.293794  (  0.432925  -0.231770  -5.482030)
  26:      1294.90    0.403379  ( -0.288389  -0.249495  -0.507901)
  27:      1310.86    0.140699  (  0.250179  -0.274151  -0.054317)
  28:      1324.23   41.154719  ( -0.351313  -6.405525  -0.023339)
  29:      1342.89   92.048398  (  2.091825   0.078881   9.363036)
  30:      1397.53   31.731352  ( -4.877830   0.262738  -2.805191)
  31:      1466.81   24.021712  (  0.135140   4.898312   0.099922)
  32:      1486.74    7.087276  (  2.649472   0.011318   0.259705)
  33:      1652.54   70.569906  (  4.563055   0.149120  -7.051680)
  34:      2383.59    5.568881  ( -1.729425   0.095439  -1.602767)
  35:      3124.08    2.550067  ( -0.361871   1.555168   0.023817)
  36:      3128.46    1.779476  ( -1.024259  -0.769306  -0.372207)
  37:      3208.17    3.912187  (  1.321905  -0.121117   1.466317)
  38:      3210.47    4.332039  (  1.363898  -0.130631   1.566766)
  39:      3463.89   92.940741  ( -5.107250  -0.221151   8.173606)
  40:      3527.71  106.732271  (  9.183317  -0.405594   4.715343)
  41:      3831.19  144.935774  ( -8.062805  -2.874951   8.465317)

--------------------------
THERMOCHEMISTRY AT 298.15K
--------------------------

Temperature         ... 298.15 K
Pressure            ... 1.00 atm
Total Mass          ... 99.11 AMU

Throughout the following assumptions are being made:
  (1) The electronic state is orbitally nondegenerate
  (2) There are no thermally accessible electronically excited states
  (3) Hindered rotations indicated by low frequency modes) are not
      treated as such but are treated as vibrations and this may
      case some error
  (4) All equations used are the standard statistical mechanics
      equations for an ideal gas
  (5) All vibrations are strinctly harmonic

------------
INNER ENERGY
------------

The inner energy is: U= E(el) + E(ZPE) + E(vib) + E(rot) + E(trans)
    E(el)   - is the total energy from the electronic structure calculation
              = E(kin-el) + E(nuc-el) + E(el-el) + E(nuc-nuc)
    E(ZPE)  - the the zero temperature vibrational energy from the frequency calculation
    E(vib)  - the the finite temperature correction to E(ZPE) due to population
              of excietd vibrational states
    E(rot)  - is the rotational thermal energy
    E(trans)- is the translational thermal energy

Summary of contributions to the inner energy U:
Electronic energy                ...   -340.78785966 Eh
Zero point energy                ...      0.11715587 Eh      73.52 kcal/mol
Thermal vibrational correction   ...      0.00414572 Eh       2.60 kcal/mol
Thermal rotational correction    ...      0.00141627 Eh       0.89 kcal/mol
Thermal translational correction ...      0.00141627 Eh       0.89 kcal/mol
-----------------------------------------------------------------------
Total thermal energy                   -340.66372552 Eh

Summary of corrections to the electronic energy:
(perhaps to be used in another calculation)
Total thermal correction                  0.00697826 Eh       4.38 kcal/mol
Non-thermal (ZPE) correction              0.11715587 Eh      73.52 kcal/mol
-----------------------------------------------------------------------
Total correction                          0.12413414 Eh      77.90 kcal/mol

--------
ENTHALPY
--------

The enthalpy is H = U + kB*T
                kB is Boltzmann's constant
Total free energy                 ...   -340.66372552 Eh
Thermal Enthalpy correction       ...      0.00094421 Eh       0.59 kcal/mol
-----------------------------------------------------------------------
Total Enthalpy                    ...   -340.66278131 Eh

-------
ENTROPY
-------

The entropy contributions are T*S = T*(S(el)+S(vib)+S(rot)+S(trans)
     S(el)   - electronic entropy
     S(vib)  - vibrational entropy
     S(rot)  - rotational entropy
     S(trans)- translational entropy
The entropies will be listed as mutliplied by the temperature to get
units of energy

Electronic entropy                ...      0.00000000 Eh      0.00 kcal/mol
Vibrational entropy               ...      0.00717294 Eh      4.50 kcal/mol
Rotational entropy                ...      0.01190815 Eh      7.47 kcal/mol
Translational entropy             ...      0.01885862 Eh     11.83 kcal/mol
-----------------------------------------------------------------------
Final entropy term                ...      0.03793971 Eh     23.81 kcal/mol

CAUTION: The rotational entropy is not quite correctly treated here
         because it includes a symmetry number that is not yet correctly
         implemented in ORCA!
For a nonlinear molecule the correct rotational entropy is:
    S(rot) = R*(ln(qrot/sn)+1.5)
    R    = 8.31441 J/mol/K = 1.987191683e-3 kcal/mol/K
    qrot = 200938.8044184
    sn is the rotational symmetry number. We have assumed 3 here
       if it is different for your molecule then you should correct
       the printed rotational entropy by manually evaluating the equation
       as given above

For convenience we print out the resulting values for sn=1 - 12:
 sn= 1  qrot/sn=  200938.8044 T*S(rot)=     8.12 kcal/mol T*S(tot)=    24.46 kcal/mol
 sn= 2  qrot/sn=  100469.4022 T*S(rot)=     7.71 kcal/mol T*S(tot)=    24.05 kcal/mol
 sn= 3  qrot/sn=   66979.6015 T*S(rot)=     7.47 kcal/mol T*S(tot)=    23.81 kcal/mol
 sn= 4  qrot/sn=   50234.7011 T*S(rot)=     7.30 kcal/mol T*S(tot)=    23.64 kcal/mol
 sn= 5  qrot/sn=   40187.7609 T*S(rot)=     7.17 kcal/mol T*S(tot)=    23.50 kcal/mol
 sn= 6  qrot/sn=   33489.8007 T*S(rot)=     7.06 kcal/mol T*S(tot)=    23.40 kcal/mol
 sn= 7  qrot/sn=   28705.5435 T*S(rot)=     6.97 kcal/mol T*S(tot)=    23.31 kcal/mol
 sn= 8  qrot/sn=   25117.3506 T*S(rot)=     6.89 kcal/mol T*S(tot)=    23.23 kcal/mol
 sn= 9  qrot/sn=   22326.5338 T*S(rot)=     6.82 kcal/mol T*S(tot)=    23.16 kcal/mol
 sn=10  qrot/sn=   20093.8804 T*S(rot)=     6.76 kcal/mol T*S(tot)=    23.09 kcal/mol
 sn=11  qrot/sn=   18267.1640 T*S(rot)=     6.70 kcal/mol T*S(tot)=    23.04 kcal/mol
 sn=12  qrot/sn=   16744.9004 T*S(rot)=     6.65 kcal/mol T*S(tot)=    22.99 kcal/mol

-------------------
GIBBS FREE ENTHALPY
-------------------

The Gibbs free enthalpy is G = H - T*S

Total enthalpy                    ...   -340.66278131 Eh
Total entropy correction          ...     -0.03793971 Eh    -23.81 kcal/mol
-----------------------------------------------------------------------
Final Gibbs free enthalpy         ...   -340.70072102 Eh

For completeness - the Gibbs free enthalpy minus the electronic energy
G-E(el)                           ...      0.08713864 Eh     54.68 kcal/mol

                             ****ORCA TERMINATED NORMALLY****
TOTAL RUN TIME: 0 days 0 hours 25 minutes 54 seconds 275 msec
