                         Program Version 3.0.3 - RELEASE   -
|  1> ! NORI PBE0 def2-TZVP UseSym TightOPT Freq TightSCF Grid3 FinalGrid5 XYZFile
|  2> % pal
|  3>     nprocs 8
|  4> end
|  5> %method
|  6>     SymThresh 5.0e-2
|  7> end
|  8> % geom
|  9>     MaxIter 10
| 10> end
| 11> % maxcore 2000
| 12> % output
| 13>     printlevel mini
| 14>     print[ P_Basis ] 0
| 15>     print[ P_SCFInfo ] 1
| 16>     print[ P_SCFIterInfo ] 1
| 17>     print[ P_OrbEn ] 0
| 18>     print[ P_Cartesian ] 0
| 19> end
| 20> % elprop
| 21>     Dipole false
| 22> end
| 23> *xyz 1 1
| 24>  O        1.2235412083    -0.0384396591     0.4719269558
| 25>  C        2.5011472613    -0.0569573678    -0.0268028014
| 26>  C        3.4250394009     0.9525433767     0.7012391384
| 27>  N        3.9182668655    -0.1622962330     1.6003773160
| 28>  C        3.3617730457    -1.1727303137     0.6188357289
| 29>  C        2.4975000131     0.0025274563    -1.5465650877
| 30>  O        1.4573260543     0.0562176551    -2.1291806139
| 31>  H        0.6160352625     0.0108508402    -0.2876780382
| 32>  H        2.9231867473     1.7509713999     1.2426568023
| 33>  H        4.2578790702     1.3307444716     0.1092227804
| 34>  H        4.9195212173    -0.1995937933     1.7896410897
| 35>  H        3.4210072960    -0.1820035490     2.4909239742
| 36>  H        4.1720427321    -1.5526665874    -0.0026847059
| 37>  H        2.8123999815    -1.9796388298     1.0979237001
| 38>  H        3.4753038441    -0.0061188663    -2.0642762387
| 39> *
| 40>
| 41>                          ****END OF INPUT****
 Total Charge           Charge          ....    1
 Multiplicity           Mult            ....    1
 Number of Electrons    NEL             ....   54
FINAL SINGLE POINT ENERGY      -361.877968240707

CARTESIAN COORDINATES (ANGSTROEM)
---------------------------------
  O      1.470150    0.000107   -0.000000
  C      0.098879   -0.035693   -0.000000
  C     -0.508051    0.914132    1.063931
  N     -0.683551    1.977859    0.000000
  C     -0.508051    0.914132   -1.063931
  C     -0.412506   -1.468370    0.000000
  O      0.369184   -2.370216    0.000000
  H      1.784853   -0.921638   -0.000000
  H      0.159220    1.216113    1.867477
  H     -1.486641    0.621625    1.443427
  H     -1.561746    2.495856    0.000000
  H      0.086069    2.647775    0.000000
  H     -1.486641    0.621625   -1.443427
  H      0.159220    1.216113   -1.867477
  H     -1.507846   -1.623953    0.000000

FINAL SINGLE POINT ENERGY      -361.877968496766
                    ***********************HURRAY********************
 Multiplicity           Mult            ....    1
 Number of Electrons    NEL             ....   54
 Basis Dimension        Dim             ....  265
FINAL SINGLE POINT ENERGY      -361.877968548110

VIBRATIONAL FREQUENCIES
-----------------------

   0:         0.00 cm**-1
   1:         0.00 cm**-1
   2:         0.00 cm**-1
   3:         0.00 cm**-1
   4:         0.00 cm**-1
   5:         0.00 cm**-1
   6:        91.53 cm**-1
   7:       105.51 cm**-1
   8:       282.21 cm**-1
   9:       291.36 cm**-1
  10:       382.70 cm**-1
  11:       400.23 cm**-1
  12:       478.16 cm**-1
  13:       528.31 cm**-1
  14:       736.60 cm**-1
  15:       792.04 cm**-1
  16:       836.65 cm**-1
  17:       873.73 cm**-1
  18:       927.39 cm**-1
  19:       945.52 cm**-1
  20:       954.57 cm**-1
  21:       963.91 cm**-1
  22:      1071.67 cm**-1
  23:      1103.48 cm**-1
  24:      1111.20 cm**-1
  25:      1246.02 cm**-1
  26:      1265.78 cm**-1
  27:      1316.97 cm**-1
  28:      1317.52 cm**-1
  29:      1324.00 cm**-1
  30:      1341.76 cm**-1
  31:      1375.95 cm**-1
  32:      1429.89 cm**-1
  33:      1459.12 cm**-1
  34:      1478.43 cm**-1
  35:      1646.33 cm**-1
  36:      1855.04 cm**-1
  37:      2976.61 cm**-1
  38:      3115.79 cm**-1
  39:      3119.58 cm**-1
  40:      3202.41 cm**-1
  41:      3203.21 cm**-1
  42:      3462.18 cm**-1
  43:      3529.09 cm**-1
  44:      3658.96 cm**-1

IR SPECTRUM
-----------

 Mode    freq (cm**-1)   T**2         TX         TY         TZ
-------------------------------------------------------------------
   6:        91.53    4.011363  ( -1.855553   0.753847   0.000098)
   7:       105.51    0.112862  (  0.000919  -0.000516   0.335948)
   8:       282.21   16.153201  (  3.897339   0.981808  -0.000185)
   9:       291.36    5.241328  (  0.000183   0.000202   2.289395)
  10:       382.70    7.132993  (  2.645389   0.367298  -0.000125)
  11:       400.23   42.189869  ( -0.000023  -0.000050  -6.495373)
  12:       478.16    7.976493  (  0.932941  -2.665730   0.000001)
  13:       528.31   49.605744  (  0.000030  -0.000022  -7.043135)
  14:       736.60   13.233012  ( -2.786633  -2.338309  -0.000000)
  15:       792.04    0.014149  (  0.000051  -0.000046   0.118950)
  16:       836.65   23.752054  (  2.004941   4.442102  -0.000001)
  17:       873.73    1.561178  (  1.033797   0.701742   0.000003)
  18:       927.39    5.099133  ( -0.000018   0.000022   2.258126)
  19:       945.52    0.738201  ( -0.000160   0.000102   0.859186)
  20:       954.57   28.719846  ( -0.330825  -5.348869  -0.000015)
  21:       963.91   11.967544  ( -3.266211   1.139917  -0.000013)
  22:      1071.67    3.171110  ( -0.000051   0.000069  -1.780761)
  23:      1103.48  110.047641  ( 10.338863   1.776389  -0.000012)
  24:      1111.20    6.284379  (  0.000051  -0.000025   2.506866)
  25:      1246.02   31.962575  (  0.000005  -0.000004  -5.653545)
  26:      1265.78    8.495892  (  0.671281   2.836419   0.000001)
  27:      1316.97   33.832964  (  5.656761   1.354259   0.000010)
  28:      1317.52    3.878330  (  0.000032   0.000008  -1.969348)
  29:      1324.00   40.215155  (  0.000004  -0.000002   6.341542)
  30:      1341.76   49.423923  ( -6.254387   3.210384  -0.000001)
  31:      1375.95   43.935979  (  6.522026   1.182859   0.000005)
  32:      1429.89   20.887247  (  4.279601   1.603828  -0.000001)
  33:      1459.12   22.388548  ( -0.000003   0.000004  -4.731654)
  34:      1478.43    5.058675  (  2.105359  -0.791289  -0.000000)
  35:      1646.33   65.923620  ( -0.766240   8.083099   0.000000)
  36:      1855.04  138.062700  ( -5.449607  10.409827   0.000002)
  37:      2976.61   30.781770  ( -5.516281  -0.593646   0.000000)
  38:      3115.79    0.616240  (  0.000001  -0.000001   0.785009)
  39:      3119.58    0.518884  (  0.717363   0.065376  -0.000001)
  40:      3202.41    3.631949  ( -1.423018  -1.267662  -0.000002)
  41:      3203.21    1.031505  (  0.000001  -0.000001  -1.015630)
  42:      3462.18   83.139016  (  0.498633  -9.104415  -0.000000)
  43:      3529.09   98.630651  (  9.813637   1.524200   0.000000)
  44:      3658.96  155.664981  ( -3.802532  11.883002  -0.000000)

--------------------------
THERMOCHEMISTRY AT 298.15K
--------------------------

Temperature         ... 298.15 K
Pressure            ... 1.00 atm
Total Mass          ... 102.11 AMU

Throughout the following assumptions are being made:
  (1) The electronic state is orbitally nondegenerate
  (2) There are no thermally accessible electronically excited states
  (3) Hindered rotations indicated by low frequency modes) are not
      treated as such but are treated as vibrations and this may
      case some error
  (4) All equations used are the standard statistical mechanics
      equations for an ideal gas
  (5) All vibrations are strinctly harmonic

------------
INNER ENERGY
------------

The inner energy is: U= E(el) + E(ZPE) + E(vib) + E(rot) + E(trans)
    E(el)   - is the total energy from the electronic structure calculation
              = E(kin-el) + E(nuc-el) + E(el-el) + E(nuc-nuc)
    E(ZPE)  - the the zero temperature vibrational energy from the frequency calculation
    E(vib)  - the the finite temperature correction to E(ZPE) due to population
              of excietd vibrational states
    E(rot)  - is the rotational thermal energy
    E(trans)- is the translational thermal energy

Summary of contributions to the inner energy U:
Electronic energy                ...   -361.87796855 Eh
Zero point energy                ...      0.12803627 Eh      80.34 kcal/mol
Thermal vibrational correction   ...      0.00409093 Eh       2.57 kcal/mol
Thermal rotational correction    ...      0.00141627 Eh       0.89 kcal/mol
Thermal translational correction ...      0.00141627 Eh       0.89 kcal/mol
-----------------------------------------------------------------------
Total thermal energy                   -361.74300881 Eh

Summary of corrections to the electronic energy:
(perhaps to be used in another calculation)
Total thermal correction                  0.00692347 Eh       4.34 kcal/mol
Non-thermal (ZPE) correction              0.12803627 Eh      80.34 kcal/mol
-----------------------------------------------------------------------
Total correction                          0.13495974 Eh      84.69 kcal/mol

--------
ENTHALPY
--------

The enthalpy is H = U + kB*T
                kB is Boltzmann's constant
Total free energy                 ...   -361.74300881 Eh
Thermal Enthalpy correction       ...      0.00094421 Eh       0.59 kcal/mol
-----------------------------------------------------------------------
Total Enthalpy                    ...   -361.74206460 Eh

-------
ENTROPY
-------

The entropy contributions are T*S = T*(S(el)+S(vib)+S(rot)+S(trans)
     S(el)   - electronic entropy
     S(vib)  - vibrational entropy
     S(rot)  - rotational entropy
     S(trans)- translational entropy
The entropies will be listed as mutliplied by the temperature to get
units of energy

Electronic entropy                ...      0.00000000 Eh      0.00 kcal/mol
Vibrational entropy               ...      0.00710922 Eh      4.46 kcal/mol
Rotational entropy                ...      0.01188488 Eh      7.46 kcal/mol
Translational entropy             ...      0.01890086 Eh     11.86 kcal/mol
-----------------------------------------------------------------------
Final entropy term                ...      0.03789496 Eh     23.78 kcal/mol

CAUTION: The rotational entropy is not quite correctly treated here
         because it includes a symmetry number that is not yet correctly
         implemented in ORCA!
For a nonlinear molecule the correct rotational entropy is:
    S(rot) = R*(ln(qrot/sn)+1.5)
    R    = 8.31441 J/mol/K = 1.987191683e-3 kcal/mol/K
    qrot = 196048.6642274
    sn is the rotational symmetry number. We have assumed 3 here
       if it is different for your molecule then you should correct
       the printed rotational entropy by manually evaluating the equation
       as given above

For convenience we print out the resulting values for sn=1 - 12:
 sn= 1  qrot/sn=  196048.6642 T*S(rot)=     8.11 kcal/mol T*S(tot)=    24.43 kcal/mol
 sn= 2  qrot/sn=   98024.3321 T*S(rot)=     7.70 kcal/mol T*S(tot)=    24.02 kcal/mol
 sn= 3  qrot/sn=   65349.5547 T*S(rot)=     7.46 kcal/mol T*S(tot)=    23.78 kcal/mol
 sn= 4  qrot/sn=   49012.1661 T*S(rot)=     7.29 kcal/mol T*S(tot)=    23.61 kcal/mol
 sn= 5  qrot/sn=   39209.7328 T*S(rot)=     7.16 kcal/mol T*S(tot)=    23.48 kcal/mol
 sn= 6  qrot/sn=   32674.7774 T*S(rot)=     7.05 kcal/mol T*S(tot)=    23.37 kcal/mol
 sn= 7  qrot/sn=   28006.9520 T*S(rot)=     6.96 kcal/mol T*S(tot)=    23.28 kcal/mol
 sn= 8  qrot/sn=   24506.0830 T*S(rot)=     6.88 kcal/mol T*S(tot)=    23.20 kcal/mol
 sn= 9  qrot/sn=   21783.1849 T*S(rot)=     6.81 kcal/mol T*S(tot)=    23.13 kcal/mol
 sn=10  qrot/sn=   19604.8664 T*S(rot)=     6.74 kcal/mol T*S(tot)=    23.07 kcal/mol
 sn=11  qrot/sn=   17822.6058 T*S(rot)=     6.69 kcal/mol T*S(tot)=    23.01 kcal/mol
 sn=12  qrot/sn=   16337.3887 T*S(rot)=     6.64 kcal/mol T*S(tot)=    22.96 kcal/mol

-------------------
GIBBS FREE ENTHALPY
-------------------

The Gibbs free enthalpy is G = H - T*S

Total enthalpy                    ...   -361.74206460 Eh
Total entropy correction          ...     -0.03789496 Eh    -23.78 kcal/mol
-----------------------------------------------------------------------
Final Gibbs free enthalpy         ...   -361.77995955 Eh

For completeness - the Gibbs free enthalpy minus the electronic energy
G-E(el)                           ...      0.09800899 Eh     61.50 kcal/mol

                             ****ORCA TERMINATED NORMALLY****
TOTAL RUN TIME: 0 days 0 hours 30 minutes 5 seconds 668 msec
