                         Program Version 3.0.3 - RELEASE   -
|  1> ! NORI PBE0 def2-TZVP UseSym TightOPT Freq TightSCF Grid3 FinalGrid5 XYZFile
|  2> % pal
|  3>     nprocs 8
|  4> end
|  5> %method
|  6>     SymThresh 5.0e-2
|  7> end
|  8> % geom
|  9>     MaxIter 10
| 10> end
| 11> % maxcore 2000
| 12> % output
| 13>     printlevel mini
| 14>     print[ P_Basis ] 0
| 15>     print[ P_SCFInfo ] 1
| 16>     print[ P_SCFIterInfo ] 1
| 17>     print[ P_OrbEn ] 0
| 18>     print[ P_Cartesian ] 0
| 19> end
| 20> % elprop
| 21>     Dipole false
| 22> end
| 23> *xyz 1 1
| 24>  O        0.9950516568     0.1151971873     0.3546875431
| 25>  C        2.3410455472    -0.0067575015     0.1042501790
| 26>  C        3.2076738351     0.9912072534     0.8978405048
| 27>  N        3.9697200096    -0.1436309290     1.5421534013
| 28>  C        3.0511165754    -1.1485633230     0.9124528978
| 29>  C        3.8779847189    -2.1213716027     0.1116072600
| 30>  O        5.0634763479    -1.9599976502     0.0178904756
| 31>  H        0.4783793116     0.0581967243    -0.4541012231
| 32>  H        2.5810081239    -0.0355381161    -0.9616293879
| 33>  H        2.6245929205     1.5254227583     1.6455417193
| 34>  H        3.8580986098     1.6686251499     0.3489478733
| 35>  H        4.9142008746    -0.3152682536     1.1599620537
| 36>  H        4.0153320774    -0.1375852130     2.5594273589
| 37>  H        2.3830632806    -1.6200518260     1.6337378069
| 38>  H        3.3398561107    -2.9347646582    -0.4013684625
| 39> *
| 40>
| 41>                          ****END OF INPUT****
 Total Charge           Charge          ....    1
 Multiplicity           Mult            ....    1
 Number of Electrons    NEL             ....   54
FINAL SINGLE POINT ENERGY      -361.883355411716

CARTESIAN COORDINATES (ANGSTROEM)
---------------------------------
  O     -0.000372    0.000307    2.326162
  C      0.053645   -0.469190    1.035520
  C     -1.329292   -0.813416    0.447472
  N     -1.124188    0.172846   -0.678779
  C      0.155507    0.650313   -0.058692
  C      1.264574    0.501128   -1.068268
  O      1.036405    0.000878   -2.134978
  H      0.692403   -0.383417    2.871258
  H      0.792643   -1.261601    0.894811
  H     -2.137211   -0.481084    1.096354
  H     -1.505794   -1.824210    0.086503
  H     -0.880891   -0.243949   -1.592322
  H     -1.857076    0.867049   -0.811202
  H      0.071277    1.650802    0.366017
  H      2.270963    0.828373   -0.760973

FINAL SINGLE POINT ENERGY      -361.883355668675
                    ***********************HURRAY********************
 Multiplicity           Mult            ....    1
 Number of Electrons    NEL             ....   54
 Basis Dimension        Dim             ....  265
FINAL SINGLE POINT ENERGY      -361.883355577445

VIBRATIONAL FREQUENCIES
-----------------------

   0:         0.00 cm**-1
   1:         0.00 cm**-1
   2:         0.00 cm**-1
   3:         0.00 cm**-1
   4:         0.00 cm**-1
   5:         0.00 cm**-1
   6:        63.94 cm**-1
   7:        87.88 cm**-1
   8:       134.98 cm**-1
   9:       266.80 cm**-1
  10:       315.57 cm**-1
  11:       377.83 cm**-1
  12:       457.05 cm**-1
  13:       687.94 cm**-1
  14:       717.56 cm**-1
  15:       837.94 cm**-1
  16:       864.30 cm**-1
  17:       910.96 cm**-1
  18:       926.84 cm**-1
  19:       946.88 cm**-1
  20:       994.15 cm**-1
  21:      1061.87 cm**-1
  22:      1069.59 cm**-1
  23:      1146.67 cm**-1
  24:      1173.05 cm**-1
  25:      1216.54 cm**-1
  26:      1262.86 cm**-1
  27:      1273.82 cm**-1
  28:      1285.36 cm**-1
  29:      1298.61 cm**-1
  30:      1325.36 cm**-1
  31:      1364.70 cm**-1
  32:      1384.27 cm**-1
  33:      1458.75 cm**-1
  34:      1479.36 cm**-1
  35:      1641.27 cm**-1
  36:      1823.71 cm**-1
  37:      3030.04 cm**-1
  38:      3099.10 cm**-1
  39:      3126.58 cm**-1
  40:      3145.96 cm**-1
  41:      3203.33 cm**-1
  42:      3295.06 cm**-1
  43:      3523.41 cm**-1
  44:      3868.14 cm**-1

IR SPECTRUM
-----------

 Mode    freq (cm**-1)   T**2         TX         TY         TZ
-------------------------------------------------------------------
   6:        63.94   26.298214  (  3.926883   3.260515   0.496837)
   7:        87.88   93.329605  (  4.721835   7.964335  -2.757398)
   8:       134.98    6.187127  ( -1.751402   1.531674  -0.879597)
   9:       266.80   13.658669  ( -3.455496   0.698902   1.108941)
  10:       315.57   19.167325  ( -3.616925   0.841112   2.318989)
  11:       377.83   22.120505  ( -4.054797  -2.245025   0.799364)
  12:       457.05   12.116057  ( -0.172567   0.676601  -3.410057)
  13:       687.94   12.924973  (  3.003720  -1.044475  -1.676816)
  14:       717.56    7.356508  (  0.595001   0.519503  -2.594725)
  15:       837.94   11.353739  (  2.598895   0.595026  -2.060443)
  16:       864.30    9.021300  ( -1.548886   2.569698  -0.137493)
  17:       910.96   64.829782  (  4.618319   1.422677  -6.440256)
  18:       926.84    1.079111  (  0.022291  -0.647838   0.811739)
  19:       946.88    5.973909  (  0.350335  -1.726322   1.694398)
  20:       994.15   18.048906  ( -1.083932  -1.712374   3.733868)
  21:      1061.87   67.999467  ( -0.497498   2.385300   7.877963)
  22:      1069.59    6.522162  (  1.102780   1.964103   1.203469)
  23:      1146.67    6.656276  ( -2.322134  -0.223035   1.101918)
  24:      1173.05   30.109956  ( -4.762021  -2.050053  -1.797329)
  25:      1216.54   61.376388  (  2.537974   1.614808  -7.233773)
  26:      1262.86    9.978865  (  2.640241   1.290575   1.158624)
  27:      1273.82   55.659619  (  2.281958  -1.373403  -6.968935)
  28:      1285.36   67.624163  (  7.131424   3.872980  -1.329278)
  29:      1298.61   95.349465  ( -2.606419  -4.508439  -8.260146)
  30:      1325.36   16.013069  (  2.424656   2.395473  -2.096621)
  31:      1364.70    3.399995  ( -0.442071  -0.790161  -1.606305)
  32:      1384.27   15.045633  ( -3.286429  -2.000654   0.492339)
  33:      1458.75   16.868457  (  0.398826  -1.993756   3.568519)
  34:      1479.36   11.514259  (  3.121182   0.990304   0.889821)
  35:      1641.27   73.206302  (  4.417642  -1.087388   7.246263)
  36:      1823.71  112.790488  (  1.719149  -2.401267 -10.201418)
  37:      3030.04   12.384368  ( -3.078165  -1.492752  -0.825202)
  38:      3099.10    4.689051  ( -1.181101   1.495779   1.027959)
  39:      3126.58    0.160689  (  0.398186   0.007239  -0.045651)
  40:      3145.96    4.533735  ( -0.494271   2.026327   0.428290)
  41:      3203.33    2.138445  ( -1.152427   0.462678   0.772196)
  42:      3295.06  139.317488  ( -5.157153   1.186419  10.550530)
  43:      3523.41  111.472252  ( -8.382802   6.408594  -0.361666)
  44:      3868.14  152.317732  (  6.611361  -3.130110   9.940324)

--------------------------
THERMOCHEMISTRY AT 298.15K
--------------------------

Temperature         ... 298.15 K
Pressure            ... 1.00 atm
Total Mass          ... 102.11 AMU

Throughout the following assumptions are being made:
  (1) The electronic state is orbitally nondegenerate
  (2) There are no thermally accessible electronically excited states
  (3) Hindered rotations indicated by low frequency modes) are not
      treated as such but are treated as vibrations and this may
      case some error
  (4) All equations used are the standard statistical mechanics
      equations for an ideal gas
  (5) All vibrations are strinctly harmonic

------------
INNER ENERGY
------------

The inner energy is: U= E(el) + E(ZPE) + E(vib) + E(rot) + E(trans)
    E(el)   - is the total energy from the electronic structure calculation
              = E(kin-el) + E(nuc-el) + E(el-el) + E(nuc-nuc)
    E(ZPE)  - the the zero temperature vibrational energy from the frequency calculation
    E(vib)  - the the finite temperature correction to E(ZPE) due to population
              of excietd vibrational states
    E(rot)  - is the rotational thermal energy
    E(trans)- is the translational thermal energy

Summary of contributions to the inner energy U:
Electronic energy                ...   -361.88335558 Eh
Zero point energy                ...      0.12791465 Eh      80.27 kcal/mol
Thermal vibrational correction   ...      0.00442721 Eh       2.78 kcal/mol
Thermal rotational correction    ...      0.00141627 Eh       0.89 kcal/mol
Thermal translational correction ...      0.00141627 Eh       0.89 kcal/mol
-----------------------------------------------------------------------
Total thermal energy                   -361.74818117 Eh

Summary of corrections to the electronic energy:
(perhaps to be used in another calculation)
Total thermal correction                  0.00725976 Eh       4.56 kcal/mol
Non-thermal (ZPE) correction              0.12791465 Eh      80.27 kcal/mol
-----------------------------------------------------------------------
Total correction                          0.13517441 Eh      84.82 kcal/mol

--------
ENTHALPY
--------

The enthalpy is H = U + kB*T
                kB is Boltzmann's constant
Total free energy                 ...   -361.74818117 Eh
Thermal Enthalpy correction       ...      0.00094421 Eh       0.59 kcal/mol
-----------------------------------------------------------------------
Total Enthalpy                    ...   -361.74723696 Eh

-------
ENTROPY
-------

The entropy contributions are T*S = T*(S(el)+S(vib)+S(rot)+S(trans)
     S(el)   - electronic entropy
     S(vib)  - vibrational entropy
     S(rot)  - rotational entropy
     S(trans)- translational entropy
The entropies will be listed as mutliplied by the temperature to get
units of energy

Electronic entropy                ...      0.00000000 Eh      0.00 kcal/mol
Vibrational entropy               ...      0.00836297 Eh      5.25 kcal/mol
Rotational entropy                ...      0.01197070 Eh      7.51 kcal/mol
Translational entropy             ...      0.01890086 Eh     11.86 kcal/mol
-----------------------------------------------------------------------
Final entropy term                ...      0.03923452 Eh     24.62 kcal/mol

CAUTION: The rotational entropy is not quite correctly treated here
         because it includes a symmetry number that is not yet correctly
         implemented in ORCA!
For a nonlinear molecule the correct rotational entropy is:
    S(rot) = R*(ln(qrot/sn)+1.5)
    R    = 8.31441 J/mol/K = 1.987191683e-3 kcal/mol/K
    qrot = 214701.7807361
    sn is the rotational symmetry number. We have assumed 3 here
       if it is different for your molecule then you should correct
       the printed rotational entropy by manually evaluating the equation
       as given above

For convenience we print out the resulting values for sn=1 - 12:
 sn= 1  qrot/sn=  214701.7807 T*S(rot)=     8.16 kcal/mol T*S(tot)=    25.27 kcal/mol
 sn= 2  qrot/sn=  107350.8904 T*S(rot)=     7.75 kcal/mol T*S(tot)=    24.86 kcal/mol
 sn= 3  qrot/sn=   71567.2602 T*S(rot)=     7.51 kcal/mol T*S(tot)=    24.62 kcal/mol
 sn= 4  qrot/sn=   53675.4452 T*S(rot)=     7.34 kcal/mol T*S(tot)=    24.45 kcal/mol
 sn= 5  qrot/sn=   42940.3561 T*S(rot)=     7.21 kcal/mol T*S(tot)=    24.32 kcal/mol
 sn= 6  qrot/sn=   35783.6301 T*S(rot)=     7.10 kcal/mol T*S(tot)=    24.21 kcal/mol
 sn= 7  qrot/sn=   30671.6830 T*S(rot)=     7.01 kcal/mol T*S(tot)=    24.12 kcal/mol
 sn= 8  qrot/sn=   26837.7226 T*S(rot)=     6.93 kcal/mol T*S(tot)=    24.04 kcal/mol
 sn= 9  qrot/sn=   23855.7534 T*S(rot)=     6.86 kcal/mol T*S(tot)=    23.97 kcal/mol
 sn=10  qrot/sn=   21470.1781 T*S(rot)=     6.80 kcal/mol T*S(tot)=    23.91 kcal/mol
 sn=11  qrot/sn=   19518.3437 T*S(rot)=     6.74 kcal/mol T*S(tot)=    23.85 kcal/mol
 sn=12  qrot/sn=   17891.8151 T*S(rot)=     6.69 kcal/mol T*S(tot)=    23.80 kcal/mol

-------------------
GIBBS FREE ENTHALPY
-------------------

The Gibbs free enthalpy is G = H - T*S

Total enthalpy                    ...   -361.74723696 Eh
Total entropy correction          ...     -0.03923452 Eh    -24.62 kcal/mol
-----------------------------------------------------------------------
Final Gibbs free enthalpy         ...   -361.78647148 Eh

For completeness - the Gibbs free enthalpy minus the electronic energy
G-E(el)                           ...      0.09688409 Eh     60.80 kcal/mol

                             ****ORCA TERMINATED NORMALLY****
TOTAL RUN TIME: 0 days 0 hours 30 minutes 7 seconds 539 msec
