                         Program Version 3.0.3 - RELEASE   -
|  1> ! NORI PBE0 def2-TZVP UseSym TightOPT Freq TightSCF Grid3 FinalGrid5 XYZFile
|  2> % pal
|  3>     nprocs 8
|  4> end
|  5> %method
|  6>     SymThresh 5.0e-2
|  7> end
|  8> % geom
|  9>     MaxIter 10
| 10> end
| 11> % maxcore 2000
| 12> % output
| 13>     printlevel mini
| 14>     print[ P_Basis ] 0
| 15>     print[ P_SCFInfo ] 1
| 16>     print[ P_SCFIterInfo ] 1
| 17>     print[ P_OrbEn ] 0
| 18>     print[ P_Cartesian ] 0
| 19> end
| 20> % elprop
| 21>     Dipole false
| 22> end
| 23> *xyz 1 1
| 24>  O        0.9631138711     0.0521099033    -0.0013693279
| 25>  C        2.3613666733     0.0160489362    -0.0993948520
| 26>  C        2.7294000402    -1.4411139918    -0.3257019734
| 27>  N        2.5863432506    -1.6011773913    -1.8178867430
| 28>  C        3.0611612181    -0.3158306116    -2.4145971566
| 29>  C        2.0350074878     0.7503784209    -2.5455510174
| 30>  C        2.9275155407     0.7193019742    -1.3424762297
| 31>  H        0.6682620189     0.9267914534     0.2708907916
| 32>  H        2.8440326437     0.3914992700     0.8068119020
| 33>  H        3.7753225510    -1.6280356796    -0.0877816656
| 34>  H        2.0823674534    -2.1448384157     0.1957800168
| 35>  H        3.1212950526    -2.3946093534    -2.1696969659
| 36>  H        1.6072681848    -1.7700504564    -2.0573789040
| 37>  H        3.9014645421    -0.4224357880    -3.0864039511
| 38>  H        0.9915290166     0.4911356757    -2.4036139395
| 39>  H        2.2231298135     1.5035382599    -3.3002510705
| 40>  H        3.6921306417     1.4743377941    -1.2162989140
| 41> *
| 42>
| 43>                          ****END OF INPUT****
 Total Charge           Charge          ....    1
 Multiplicity           Mult            ....    1
 Number of Electrons    NEL             ....   54
FINAL SINGLE POINT ENERGY      -325.996862250311
FINAL SINGLE POINT ENERGY      -325.996863376954

CARTESIAN COORDINATES (ANGSTROEM)
---------------------------------
  O      0.001509   -0.000517    1.850070
  C     -0.375765    0.770968    0.741576
  C      0.917235    1.182638    0.057343
  N      1.227111   -0.000103   -0.824763
  C     -0.091714   -0.491222   -1.328676
  C     -0.790594   -1.469303   -0.456149
  C     -1.118940   -0.011654   -0.351980
  H     -0.763649   -0.191789    2.401705
  H     -0.945986    1.656349    1.035949
  H      0.763732    2.036003   -0.601833
  H      1.740149    1.368865    0.746062
  H      1.849501    0.249759   -1.592790
  H      1.699134   -0.725255   -0.280355
  H     -0.189299   -0.474034   -2.405086
  H     -0.244636   -1.920287    0.364879
  H     -1.505163   -2.119198   -0.944334
  H     -2.074820    0.353995   -0.702394

FINAL SINGLE POINT ENERGY      -325.996863881968
                    ***********************HURRAY********************
 Multiplicity           Mult            ....    1
 Number of Electrons    NEL             ....   54
 Basis Dimension        Dim             ....  277
FINAL SINGLE POINT ENERGY      -325.996864096150

VIBRATIONAL FREQUENCIES
-----------------------

   0:         0.00 cm**-1
   1:         0.00 cm**-1
   2:         0.00 cm**-1
   3:         0.00 cm**-1
   4:         0.00 cm**-1
   5:         0.00 cm**-1
   6:       112.37 cm**-1
   7:       252.90 cm**-1
   8:       321.58 cm**-1
   9:       396.41 cm**-1
  10:       424.97 cm**-1
  11:       523.69 cm**-1
  12:       654.10 cm**-1
  13:       721.14 cm**-1
  14:       779.80 cm**-1
  15:       817.70 cm**-1
  16:       856.61 cm**-1
  17:       871.55 cm**-1
  18:       937.85 cm**-1
  19:       955.38 cm**-1
  20:       974.76 cm**-1
  21:       999.86 cm**-1
  22:      1033.17 cm**-1
  23:      1061.26 cm**-1
  24:      1087.27 cm**-1
  25:      1098.57 cm**-1
  26:      1120.42 cm**-1
  27:      1173.73 cm**-1
  28:      1206.21 cm**-1
  29:      1221.00 cm**-1
  30:      1250.73 cm**-1
  31:      1274.00 cm**-1
  32:      1323.02 cm**-1
  33:      1336.03 cm**-1
  34:      1373.17 cm**-1
  35:      1387.84 cm**-1
  36:      1406.68 cm**-1
  37:      1433.17 cm**-1
  38:      1478.30 cm**-1
  39:      1485.68 cm**-1
  40:      1644.56 cm**-1
  41:      3088.58 cm**-1
  42:      3117.15 cm**-1
  43:      3157.56 cm**-1
  44:      3187.22 cm**-1
  45:      3219.58 cm**-1
  46:      3230.79 cm**-1
  47:      3252.26 cm**-1
  48:      3447.51 cm**-1
  49:      3515.89 cm**-1
  50:      3849.93 cm**-1

IR SPECTRUM
-----------

 Mode    freq (cm**-1)   T**2         TX         TY         TZ
-------------------------------------------------------------------
   6:       112.37   10.237431  (  0.649577   0.788598  -3.032094)
   7:       252.90    6.196246  ( -0.924235  -2.254320  -0.509978)
   8:       321.58  126.741552  (  1.018694   8.736634   7.026738)
   9:       396.41    7.449523  ( -0.384189   0.694308   2.611486)
  10:       424.97   14.494850  (  0.002728  -0.207087  -3.801573)
  11:       523.69    8.819721  ( -1.035873  -2.720097  -0.589712)
  12:       654.10    4.434692  (  1.528077  -1.110538  -0.930793)
  13:       721.14    2.747413  (  0.451589  -0.520398  -1.507536)
  14:       779.80    9.552534  (  2.623152   0.266504  -1.612633)
  15:       817.70   10.037248  ( -0.153540  -3.155335  -0.239862)
  16:       856.61    0.964210  (  0.220644  -0.416253   0.861545)
  17:       871.55    3.706991  (  0.046468   0.286280  -1.903385)
  18:       937.85    1.095573  (  0.562706  -0.191993   0.861437)
  19:       955.38    9.030776  (  0.474677  -1.345192   2.644979)
  20:       974.76   10.472041  ( -0.363362  -1.367504   2.910316)
  21:       999.86   22.040645  (  1.291732  -0.052183   4.513242)
  22:      1033.17   22.706142  (  0.986850  -4.280972   1.845412)
  23:      1061.26   12.464404  (  0.034712   3.242454  -1.396314)
  24:      1087.27    8.421925  ( -2.546858   1.158855   0.769736)
  25:      1098.57   31.787579  ( -0.036548   1.165048  -5.516240)
  26:      1120.42    3.638038  ( -0.491216   0.510297  -1.770972)
  27:      1173.73    6.930867  (  0.180204  -0.503839  -2.577700)
  28:      1206.21    1.019750  (  0.134244   0.877384  -0.481588)
  29:      1221.00   31.712286  ( -1.331927   3.094222  -4.512654)
  30:      1250.73   13.704333  (  0.090405   3.324837  -1.625305)
  31:      1274.00   40.895080  ( -4.249512  -1.257154  -4.610455)
  32:      1323.02   25.268812  (  0.036923   1.413323  -4.823895)
  33:      1336.03    1.129874  ( -0.641450   0.788140  -0.311849)
  34:      1373.17   43.734665  (  2.410402   3.588688   5.004592)
  35:      1387.84    1.498512  ( -0.515368  -0.721145  -0.844309)
  36:      1406.68    3.276183  (  0.654045   1.686617   0.061091)
  37:      1433.17   10.930114  (  1.093553  -2.944466  -1.031686)
  38:      1478.30    1.938094  ( -1.148585  -0.244762  -0.747622)
  39:      1485.68   15.687800  (  1.901816   3.075944  -1.615383)
  40:      1644.56   71.512920  ( -7.678888   3.336194   1.190548)
  41:      3088.58    6.455251  (  0.991343  -2.274938   0.545114)
  42:      3117.15    0.680684  ( -0.093645   0.752767  -0.324433)
  43:      3157.56    1.384323  ( -0.786646  -0.304556   0.820218)
  44:      3187.22    0.188524  (  0.025382  -0.410881   0.138045)
  45:      3219.58    0.428598  (  0.654389  -0.019298  -0.000766)
  46:      3230.79    0.734433  (  0.382752   0.000627   0.766768)
  47:      3252.26    3.843310  (  1.077913   0.606310   1.521118)
  48:      3447.51   55.517578  ( -6.339846   3.911401   0.157717)
  49:      3515.89   91.940562  (  3.573391   4.338622  -7.768385)
  50:      3849.93   99.780555  (  5.495692   2.195053  -8.047339)

--------------------------
THERMOCHEMISTRY AT 298.15K
--------------------------

Temperature         ... 298.15 K
Pressure            ... 1.00 atm
Total Mass          ... 100.14 AMU

Throughout the following assumptions are being made:
  (1) The electronic state is orbitally nondegenerate
  (2) There are no thermally accessible electronically excited states
  (3) Hindered rotations indicated by low frequency modes) are not
      treated as such but are treated as vibrations and this may
      case some error
  (4) All equations used are the standard statistical mechanics
      equations for an ideal gas
  (5) All vibrations are strinctly harmonic

------------
INNER ENERGY
------------

The inner energy is: U= E(el) + E(ZPE) + E(vib) + E(rot) + E(trans)
    E(el)   - is the total energy from the electronic structure calculation
              = E(kin-el) + E(nuc-el) + E(el-el) + E(nuc-nuc)
    E(ZPE)  - the the zero temperature vibrational energy from the frequency calculation
    E(vib)  - the the finite temperature correction to E(ZPE) due to population
              of excietd vibrational states
    E(rot)  - is the rotational thermal energy
    E(trans)- is the translational thermal energy

Summary of contributions to the inner energy U:
Electronic energy                ...   -325.99686410 Eh
Zero point energy                ...      0.15505658 Eh      97.30 kcal/mol
Thermal vibrational correction   ...      0.00335525 Eh       2.11 kcal/mol
Thermal rotational correction    ...      0.00141627 Eh       0.89 kcal/mol
Thermal translational correction ...      0.00141627 Eh       0.89 kcal/mol
-----------------------------------------------------------------------
Total thermal energy                   -325.83561972 Eh

Summary of corrections to the electronic energy:
(perhaps to be used in another calculation)
Total thermal correction                  0.00618779 Eh       3.88 kcal/mol
Non-thermal (ZPE) correction              0.15505658 Eh      97.30 kcal/mol
-----------------------------------------------------------------------
Total correction                          0.16124437 Eh     101.18 kcal/mol

--------
ENTHALPY
--------

The enthalpy is H = U + kB*T
                kB is Boltzmann's constant
Total free energy                 ...   -325.83561972 Eh
Thermal Enthalpy correction       ...      0.00094421 Eh       0.59 kcal/mol
-----------------------------------------------------------------------
Total Enthalpy                    ...   -325.83467551 Eh

-------
ENTROPY
-------

The entropy contributions are T*S = T*(S(el)+S(vib)+S(rot)+S(trans)
     S(el)   - electronic entropy
     S(vib)  - vibrational entropy
     S(rot)  - rotational entropy
     S(trans)- translational entropy
The entropies will be listed as mutliplied by the temperature to get
units of energy

Electronic entropy                ...      0.00000000 Eh      0.00 kcal/mol
Vibrational entropy               ...      0.00531694 Eh      3.34 kcal/mol
Rotational entropy                ...      0.01173146 Eh      7.36 kcal/mol
Translational entropy             ...      0.01887324 Eh     11.84 kcal/mol
-----------------------------------------------------------------------
Final entropy term                ...      0.03592164 Eh     22.54 kcal/mol

CAUTION: The rotational entropy is not quite correctly treated here
         because it includes a symmetry number that is not yet correctly
         implemented in ORCA!
For a nonlinear molecule the correct rotational entropy is:
    S(rot) = R*(ln(qrot/sn)+1.5)
    R    = 8.31441 J/mol/K = 1.987191683e-3 kcal/mol/K
    qrot = 166644.8842220
    sn is the rotational symmetry number. We have assumed 3 here
       if it is different for your molecule then you should correct
       the printed rotational entropy by manually evaluating the equation
       as given above

For convenience we print out the resulting values for sn=1 - 12:
 sn= 1  qrot/sn=  166644.8842 T*S(rot)=     8.01 kcal/mol T*S(tot)=    23.19 kcal/mol
 sn= 2  qrot/sn=   83322.4421 T*S(rot)=     7.60 kcal/mol T*S(tot)=    22.78 kcal/mol
 sn= 3  qrot/sn=   55548.2947 T*S(rot)=     7.36 kcal/mol T*S(tot)=    22.54 kcal/mol
 sn= 4  qrot/sn=   41661.2211 T*S(rot)=     7.19 kcal/mol T*S(tot)=    22.37 kcal/mol
 sn= 5  qrot/sn=   33328.9768 T*S(rot)=     7.06 kcal/mol T*S(tot)=    22.24 kcal/mol
 sn= 6  qrot/sn=   27774.1474 T*S(rot)=     6.95 kcal/mol T*S(tot)=    22.13 kcal/mol
 sn= 7  qrot/sn=   23806.4120 T*S(rot)=     6.86 kcal/mol T*S(tot)=    22.04 kcal/mol
 sn= 8  qrot/sn=   20830.6105 T*S(rot)=     6.78 kcal/mol T*S(tot)=    21.96 kcal/mol
 sn= 9  qrot/sn=   18516.0982 T*S(rot)=     6.71 kcal/mol T*S(tot)=    21.89 kcal/mol
 sn=10  qrot/sn=   16664.4884 T*S(rot)=     6.65 kcal/mol T*S(tot)=    21.83 kcal/mol
 sn=11  qrot/sn=   15149.5349 T*S(rot)=     6.59 kcal/mol T*S(tot)=    21.77 kcal/mol
 sn=12  qrot/sn=   13887.0737 T*S(rot)=     6.54 kcal/mol T*S(tot)=    21.72 kcal/mol

-------------------
GIBBS FREE ENTHALPY
-------------------

The Gibbs free enthalpy is G = H - T*S

Total enthalpy                    ...   -325.83467551 Eh
Total entropy correction          ...     -0.03592164 Eh    -22.54 kcal/mol
-----------------------------------------------------------------------
Final Gibbs free enthalpy         ...   -325.87059715 Eh

For completeness - the Gibbs free enthalpy minus the electronic energy
G-E(el)                           ...      0.12626695 Eh     79.23 kcal/mol

                             ****ORCA TERMINATED NORMALLY****
TOTAL RUN TIME: 0 days 0 hours 38 minutes 5 seconds 385 msec
