                         Program Version 3.0.3 - RELEASE   -
|  1> ! NORI PBE0 def2-TZVP UseSym TightOPT Freq TightSCF Grid3 FinalGrid5 XYZFile
|  2> % pal
|  3>     nprocs 8
|  4> end
|  5> %method
|  6>     SymThresh 5.0e-2
|  7> end
|  8> % geom
|  9>     MaxIter 10
| 10> end
| 11> % maxcore 2000
| 12> % output
| 13>     printlevel mini
| 14>     print[ P_Basis ] 0
| 15>     print[ P_SCFInfo ] 1
| 16>     print[ P_SCFIterInfo ] 1
| 17>     print[ P_OrbEn ] 0
| 18>     print[ P_Cartesian ] 0
| 19> end
| 20> % elprop
| 21>     Dipole false
| 22> end
| 23> *xyz 1 1
| 24>  O        1.6160595998     0.2514952480     1.0437517499
| 25>  C        2.5486163967     0.0638840852     0.3323404502
| 26>  C        2.8910571411    -1.3119387964    -0.2675628379
| 27>  N        4.3221377796    -1.1929133937    -0.7077369880
| 28>  C        4.6677825338     0.2614652366    -0.7873048952
| 29>  C        3.7603097473     1.0746797630    -1.6195006628
| 30>  C        3.5811867574     1.0379888129    -0.1167294108
| 31>  H        2.7888463793    -2.1024628416     0.4735104495
| 32>  H        2.2564887249    -1.5400860272    -1.1237681048
| 33>  H        4.9310595885    -1.6412050973    -0.0211999633
| 34>  H        4.4893460327    -1.6602961011    -1.6009512565
| 35>  H        5.7246865671     0.4661752681    -0.6856621859
| 36>  H        3.0167033928     0.5949570706    -2.2465673370
| 37>  H        4.1742704249     1.9851420275    -2.0327319093
| 38>  H        3.7714489340     1.9162047454     0.4843329018
| 39> *
| 40>
| 41>                          ****END OF INPUT****
 Total Charge           Charge          ....    1
 Multiplicity           Mult            ....    1
 Number of Electrons    NEL             ....   52
FINAL SINGLE POINT ENERGY      -324.779576706968

CARTESIAN COORDINATES (ANGSTROEM)
---------------------------------
  O      0.000033    0.000158    2.199532
  C      0.047898    0.001054    1.012701
  C      1.222794   -0.591020    0.213379
  N      1.088055   -0.000163   -1.161006
  C     -0.302191    0.535747   -1.305964
  C     -1.377754   -0.429285   -1.007760
  C     -0.936368    0.562849    0.047095
  H      2.178915   -0.312087    0.651617
  H      1.157752   -1.677631    0.159018
  H      1.752228    0.767762   -1.271383
  H      1.298301   -0.680452   -1.893992
  H     -0.394405    1.318795   -2.045952
  H     -1.146455   -1.479449   -0.867543
  H     -2.335279   -0.240583   -1.475485
  H     -1.596239    1.355611    0.371085

FINAL SINGLE POINT ENERGY      -324.779577009954
                    ***********************HURRAY********************
 Multiplicity           Mult            ....    1
 Number of Electrons    NEL             ....   52
 Basis Dimension        Dim             ....  265
FINAL SINGLE POINT ENERGY      -324.779577129970

VIBRATIONAL FREQUENCIES
-----------------------

   0:         0.00 cm**-1
   1:         0.00 cm**-1
   2:         0.00 cm**-1
   3:         0.00 cm**-1
   4:         0.00 cm**-1
   5:         0.00 cm**-1
   6:       126.31 cm**-1
   7:       221.21 cm**-1
   8:       374.34 cm**-1
   9:       446.96 cm**-1
  10:       532.10 cm**-1
  11:       627.13 cm**-1
  12:       637.38 cm**-1
  13:       765.16 cm**-1
  14:       813.06 cm**-1
  15:       849.91 cm**-1
  16:       857.95 cm**-1
  17:       923.65 cm**-1
  18:       943.40 cm**-1
  19:       974.62 cm**-1
  20:      1012.26 cm**-1
  21:      1065.32 cm**-1
  22:      1079.06 cm**-1
  23:      1109.52 cm**-1
  24:      1121.88 cm**-1
  25:      1180.48 cm**-1
  26:      1208.50 cm**-1
  27:      1231.59 cm**-1
  28:      1272.30 cm**-1
  29:      1332.03 cm**-1
  30:      1343.44 cm**-1
  31:      1352.80 cm**-1
  32:      1424.89 cm**-1
  33:      1467.55 cm**-1
  34:      1489.29 cm**-1
  35:      1654.82 cm**-1
  36:      1901.52 cm**-1
  37:      3119.57 cm**-1
  38:      3158.67 cm**-1
  39:      3186.69 cm**-1
  40:      3230.63 cm**-1
  41:      3237.89 cm**-1
  42:      3252.97 cm**-1
  43:      3444.56 cm**-1
  44:      3496.32 cm**-1

IR SPECTRUM
-----------

 Mode    freq (cm**-1)   T**2         TX         TY         TZ
-------------------------------------------------------------------
   6:       126.31    1.620902  ( -1.004239  -0.622881   0.473736)
   7:       221.21    3.066100  ( -0.509301  -1.625141  -0.406975)
   8:       374.34    5.469269  (  1.329539   1.151252   1.541497)
   9:       446.96    7.763098  (  2.543231  -1.041286   0.459128)
  10:       532.10    0.909472  ( -0.368549   0.023193   0.879264)
  11:       627.13    2.652400  (  0.204928  -0.604952   1.498145)
  12:       637.38    3.393667  (  0.264877   0.429629   1.771701)
  13:       765.16    3.114630  (  1.453444   0.624554   0.782344)
  14:       813.06   13.542651  ( -0.650334   0.063078   3.621566)
  15:       849.91    4.332191  ( -1.775705  -1.085667  -0.019798)
  16:       857.95   17.597222  ( -0.233748   4.152593   0.546405)
  17:       923.65    7.342167  (  2.611021  -0.526254   0.497791)
  18:       943.40    6.271912  ( -0.783386   0.896505   2.203293)
  19:       974.62   17.762300  (  2.266943  -0.486068   3.519518)
  20:      1012.26   19.528449  (  4.079017  -0.988998   1.382735)
  21:      1065.32    7.150568  (  1.431297   0.182095  -2.251399)
  22:      1079.06    3.454311  ( -1.743692  -0.449611   0.460106)
  23:      1109.52    0.454833  (  0.558330   0.375286   0.047548)
  24:      1121.88    5.048206  (  1.314834  -1.809862   0.209328)
  25:      1180.48   14.503402  ( -3.247176   1.678982  -1.067832)
  26:      1208.50   23.829296  ( -4.340436   1.336822  -1.789643)
  27:      1231.59    9.076668  ( -0.902128   2.680384   1.038448)
  28:      1272.30   33.772627  (  4.558648  -2.706971   2.379845)
  29:      1332.03    9.439011  (  1.395236   0.812025   2.613990)
  30:      1343.44   10.888663  (  3.036372  -0.729628   1.066185)
  31:      1352.80   10.480874  ( -0.828243   0.899347  -2.997676)
  32:      1424.89   27.373364  ( -3.216640   1.062337  -3.987234)
  33:      1467.55   15.248171  (  2.987780  -2.407773  -0.723859)
  34:      1489.29   20.073611  ( -0.604892  -4.028474   1.865238)
  35:      1654.82   64.248556  ( -5.815227  -0.124088   5.515097)
  36:      1901.52  265.692571  (  0.191127  -0.610539 -16.287519)
  37:      3119.57    6.647661  (  2.177416  -1.380685  -0.015094)
  38:      3158.67    2.882920  (  1.687818   0.175235   0.059016)
  39:      3186.69    5.783973  ( -1.848240  -1.348154  -0.741931)
  40:      3230.63    3.001811  (  0.626535   0.480065  -1.542337)
  41:      3237.89   10.403564  ( -2.029153   2.467545   0.444208)
  42:      3252.97    9.232028  ( -2.465071   1.227864  -1.283668)
  43:      3444.56   75.078447  ( -5.586353  -0.106662   6.622668)
  44:      3496.32   91.476742  ( -3.630020  -8.441994  -2.651873)

--------------------------
THERMOCHEMISTRY AT 298.15K
--------------------------

Temperature         ... 298.15 K
Pressure            ... 1.00 atm
Total Mass          ... 98.12 AMU

Throughout the following assumptions are being made:
  (1) The electronic state is orbitally nondegenerate
  (2) There are no thermally accessible electronically excited states
  (3) Hindered rotations indicated by low frequency modes) are not
      treated as such but are treated as vibrations and this may
      case some error
  (4) All equations used are the standard statistical mechanics
      equations for an ideal gas
  (5) All vibrations are strinctly harmonic

------------
INNER ENERGY
------------

The inner energy is: U= E(el) + E(ZPE) + E(vib) + E(rot) + E(trans)
    E(el)   - is the total energy from the electronic structure calculation
              = E(kin-el) + E(nuc-el) + E(el-el) + E(nuc-nuc)
    E(ZPE)  - the the zero temperature vibrational energy from the frequency calculation
    E(vib)  - the the finite temperature correction to E(ZPE) due to population
              of excietd vibrational states
    E(rot)  - is the rotational thermal energy
    E(trans)- is the translational thermal energy

Summary of contributions to the inner energy U:
Electronic energy                ...   -324.77957713 Eh
Zero point energy                ...      0.13092110 Eh      82.15 kcal/mol
Thermal vibrational correction   ...      0.00297950 Eh       1.87 kcal/mol
Thermal rotational correction    ...      0.00141627 Eh       0.89 kcal/mol
Thermal translational correction ...      0.00141627 Eh       0.89 kcal/mol
-----------------------------------------------------------------------
Total thermal energy                   -324.64284398 Eh

Summary of corrections to the electronic energy:
(perhaps to be used in another calculation)
Total thermal correction                  0.00581205 Eh       3.65 kcal/mol
Non-thermal (ZPE) correction              0.13092110 Eh      82.15 kcal/mol
-----------------------------------------------------------------------
Total correction                          0.13673315 Eh      85.80 kcal/mol

--------
ENTHALPY
--------

The enthalpy is H = U + kB*T
                kB is Boltzmann's constant
Total free energy                 ...   -324.64284398 Eh
Thermal Enthalpy correction       ...      0.00094421 Eh       0.59 kcal/mol
-----------------------------------------------------------------------
Total Enthalpy                    ...   -324.64189977 Eh

-------
ENTROPY
-------

The entropy contributions are T*S = T*(S(el)+S(vib)+S(rot)+S(trans)
     S(el)   - electronic entropy
     S(vib)  - vibrational entropy
     S(rot)  - rotational entropy
     S(trans)- translational entropy
The entropies will be listed as mutliplied by the temperature to get
units of energy

Electronic entropy                ...      0.00000000 Eh      0.00 kcal/mol
Vibrational entropy               ...      0.00471788 Eh      2.96 kcal/mol
Rotational entropy                ...      0.01174381 Eh      7.37 kcal/mol
Translational entropy             ...      0.01884443 Eh     11.83 kcal/mol
-----------------------------------------------------------------------
Final entropy term                ...      0.03530612 Eh     22.15 kcal/mol

CAUTION: The rotational entropy is not quite correctly treated here
         because it includes a symmetry number that is not yet correctly
         implemented in ORCA!
For a nonlinear molecule the correct rotational entropy is:
    S(rot) = R*(ln(qrot/sn)+1.5)
    R    = 8.31441 J/mol/K = 1.987191683e-3 kcal/mol/K
    qrot = 168839.0333988
    sn is the rotational symmetry number. We have assumed 3 here
       if it is different for your molecule then you should correct
       the printed rotational entropy by manually evaluating the equation
       as given above

For convenience we print out the resulting values for sn=1 - 12:
 sn= 1  qrot/sn=  168839.0334 T*S(rot)=     8.02 kcal/mol T*S(tot)=    22.81 kcal/mol
 sn= 2  qrot/sn=   84419.5167 T*S(rot)=     7.61 kcal/mol T*S(tot)=    22.40 kcal/mol
 sn= 3  qrot/sn=   56279.6778 T*S(rot)=     7.37 kcal/mol T*S(tot)=    22.15 kcal/mol
 sn= 4  qrot/sn=   42209.7583 T*S(rot)=     7.20 kcal/mol T*S(tot)=    21.98 kcal/mol
 sn= 5  qrot/sn=   33767.8067 T*S(rot)=     7.07 kcal/mol T*S(tot)=    21.85 kcal/mol
 sn= 6  qrot/sn=   28139.8389 T*S(rot)=     6.96 kcal/mol T*S(tot)=    21.74 kcal/mol
 sn= 7  qrot/sn=   24119.8619 T*S(rot)=     6.87 kcal/mol T*S(tot)=    21.65 kcal/mol
 sn= 8  qrot/sn=   21104.8792 T*S(rot)=     6.79 kcal/mol T*S(tot)=    21.57 kcal/mol
 sn= 9  qrot/sn=   18759.8926 T*S(rot)=     6.72 kcal/mol T*S(tot)=    21.50 kcal/mol
 sn=10  qrot/sn=   16883.9033 T*S(rot)=     6.66 kcal/mol T*S(tot)=    21.44 kcal/mol
 sn=11  qrot/sn=   15349.0030 T*S(rot)=     6.60 kcal/mol T*S(tot)=    21.39 kcal/mol
 sn=12  qrot/sn=   14069.9194 T*S(rot)=     6.55 kcal/mol T*S(tot)=    21.33 kcal/mol

-------------------
GIBBS FREE ENTHALPY
-------------------

The Gibbs free enthalpy is G = H - T*S

Total enthalpy                    ...   -324.64189977 Eh
Total entropy correction          ...     -0.03530612 Eh    -22.15 kcal/mol
-----------------------------------------------------------------------
Final Gibbs free enthalpy         ...   -324.67720590 Eh

For completeness - the Gibbs free enthalpy minus the electronic energy
G-E(el)                           ...      0.10237123 Eh     64.24 kcal/mol

                             ****ORCA TERMINATED NORMALLY****
TOTAL RUN TIME: 0 days 0 hours 30 minutes 26 seconds 996 msec
