                         Program Version 3.0.3 - RELEASE   -
|  1> ! NORI PBE0 def2-TZVP UseSym TightOPT Freq TightSCF Grid3 FinalGrid5 XYZFile
|  2> % pal
|  3>     nprocs 8
|  4> end
|  5> %method
|  6>     SymThresh 5.0e-2
|  7> end
|  8> % geom
|  9>     MaxIter 10
| 10> end
| 11> % maxcore 2000
| 12> % output
| 13>     printlevel mini
| 14>     print[ P_Basis ] 0
| 15>     print[ P_SCFInfo ] 1
| 16>     print[ P_SCFIterInfo ] 1
| 17>     print[ P_OrbEn ] 0
| 18>     print[ P_Cartesian ] 0
| 19> end
| 20> % elprop
| 21>     Dipole false
| 22> end
| 23> *xyz 1 1
| 24>  O        1.1564493801     0.0020943156     1.0527868848
| 25>  C        2.2197080244     0.0121159857     0.1404322422
| 26>  C        3.1424874465     1.1636052023     0.5318079606
| 27>  N        4.2147505638     0.5265045441     1.3981762882
| 28>  C        3.8030786244    -0.9035347932     1.6298521514
| 29>  C        3.1244803862    -1.2211886768     0.3188904595
| 30>  O        4.1474632062    -1.2376301372    -0.6442196968
| 31>  H        0.4130293631    -0.4967178345     0.7014316539
| 32>  H        1.8855697173     0.1198594806    -0.8959373929
| 33>  H        2.6074970041     1.9094827858     1.1153614186
| 34>  H        3.6318037133     1.6301885853    -0.3185509747
| 35>  H        4.3542289857     1.0326427280     2.2707816066
| 36>  H        5.1004154016     0.5280568287     0.8921028240
| 37>  H        4.6812301461    -1.5109022376     1.8387342506
| 38>  H        3.0983183209    -0.9243585636     2.4588817263
| 39>  H        2.5550767134    -2.1531508518     0.3692672952
| 40>  H        3.8290730031    -1.5932573613    -1.4790486975
| 41> *
| 42>
| 43>                          ****END OF INPUT****
 Total Charge           Charge          ....    1
 Multiplicity           Mult            ....    1
 Number of Electrons    NEL             ....   56
FINAL SINGLE POINT ENERGY      -363.133704196651

CARTESIAN COORDINATES (ANGSTROEM)
---------------------------------
  O     -0.000349    0.000056    2.016412
  C      0.408979   -0.543510    0.791614
  C     -0.829014   -1.133439    0.120843
  N     -1.325609   -0.040880   -0.809740
  C     -0.494908    1.184928   -0.534667
  C      0.836136    0.557572   -0.196589
  O      1.308816   -0.000051   -1.396685
  H      0.753221    0.123475    2.601271
  H      1.186057   -1.305241    0.906536
  H     -1.600191   -1.355903    0.854966
  H     -0.614748   -2.013559   -0.479279
  H     -2.322116    0.136484   -0.696512
  H     -1.167886   -0.325687   -1.776407
  H     -0.478442    1.824331   -1.414885
  H     -0.922237    1.699877    0.323434
  H      1.524884    1.278111    0.252635
  H      2.226008   -0.276352   -1.310761

FINAL SINGLE POINT ENERGY      -363.133704531636
                    ***********************HURRAY********************
 Multiplicity           Mult            ....    1
 Number of Electrons    NEL             ....   56
 Basis Dimension        Dim             ....  277
FINAL SINGLE POINT ENERGY      -363.133704690346

VIBRATIONAL FREQUENCIES
-----------------------

   0:         0.00 cm**-1
   1:         0.00 cm**-1
   2:         0.00 cm**-1
   3:         0.00 cm**-1
   4:         0.00 cm**-1
   5:         0.00 cm**-1
   6:        75.41 cm**-1
   7:       180.36 cm**-1
   8:       253.80 cm**-1
   9:       261.25 cm**-1
  10:       285.21 cm**-1
  11:       375.19 cm**-1
  12:       433.90 cm**-1
  13:       506.42 cm**-1
  14:       666.55 cm**-1
  15:       772.81 cm**-1
  16:       831.95 cm**-1
  17:       877.36 cm**-1
  18:       892.30 cm**-1
  19:       901.30 cm**-1
  20:       943.50 cm**-1
  21:      1001.05 cm**-1
  22:      1015.91 cm**-1
  23:      1056.51 cm**-1
  24:      1115.29 cm**-1
  25:      1149.50 cm**-1
  26:      1191.95 cm**-1
  27:      1208.21 cm**-1
  28:      1232.09 cm**-1
  29:      1268.77 cm**-1
  30:      1293.99 cm**-1
  31:      1314.05 cm**-1
  32:      1321.92 cm**-1
  33:      1363.33 cm**-1
  34:      1371.64 cm**-1
  35:      1392.68 cm**-1
  36:      1431.91 cm**-1
  37:      1437.51 cm**-1
  38:      1475.44 cm**-1
  39:      1484.82 cm**-1
  40:      1635.88 cm**-1
  41:      3081.00 cm**-1
  42:      3097.86 cm**-1
  43:      3128.92 cm**-1
  44:      3135.00 cm**-1
  45:      3200.15 cm**-1
  46:      3203.39 cm**-1
  47:      3473.49 cm**-1
  48:      3535.69 cm**-1
  49:      3857.99 cm**-1
  50:      3860.76 cm**-1

IR SPECTRUM
-----------

 Mode    freq (cm**-1)   T**2         TX         TY         TZ
-------------------------------------------------------------------
   6:        75.41    7.132711  ( -0.804138   1.204627   2.243869)
   7:       180.36   14.976593  (  3.796755  -0.695288  -0.278959)
   8:       253.80   41.601406  ( -0.283582   5.505519  -3.348171)
   9:       261.25    2.279176  (  1.414250   0.324909  -0.416543)
  10:       285.21  221.368821  (  4.411089  13.191716  -5.281074)
  11:       375.19    7.214999  ( -1.866543   1.121299  -1.572802)
  12:       433.90   19.659174  (  1.384238   0.047347  -4.211985)
  13:       506.42    1.016038  ( -0.798772  -0.244930  -0.563924)
  14:       666.55    1.385683  ( -1.172259   0.089243  -0.059401)
  15:       772.81    9.998247  ( -1.022334  -0.974621   2.828992)
  16:       831.95    6.003144  (  1.387317  -0.109775  -2.016543)
  17:       877.36    7.895946  (  1.384808   1.194627  -2.133335)
  18:       892.30   10.104048  ( -2.455423   0.692745  -1.896062)
  19:       901.30    0.635841  ( -0.510862   0.435819  -0.430027)
  20:       943.50    2.542268  ( -0.954891  -1.058624   0.713979)
  21:      1001.05   10.251834  ( -2.290009  -0.483033   2.185033)
  22:      1015.91   98.848933  ( -3.326814   5.383884   7.667792)
  23:      1056.51    1.525881  (  0.834658  -0.544459  -0.729926)
  24:      1115.29    3.114433  (  1.719704  -0.375463  -0.126804)
  25:      1149.50   29.349342  (  1.434355  -0.931413  -5.140471)
  26:      1191.95   28.848086  ( -1.197314   1.778394   4.924616)
  27:      1208.21   70.608897  (  1.892214  -3.479465  -7.410921)
  28:      1232.09   73.829945  ( -3.184535   2.866674   7.447876)
  29:      1268.77   24.548200  ( -0.870953  -3.542804   3.352340)
  30:      1293.99    0.405737  ( -0.439358   0.408622   0.213845)
  31:      1314.05    1.087607  (  0.427632  -0.928481   0.206543)
  32:      1321.92   27.586344  (  1.819216   0.746465  -4.870276)
  33:      1363.33    0.765734  ( -0.751708  -0.087607  -0.439311)
  34:      1371.64    6.876306  ( -1.455190  -1.893581   1.083088)
  35:      1392.68   21.140351  (  1.204925   4.035510  -1.844766)
  36:      1431.91   12.514885  ( -0.978432   3.196652   1.157138)
  37:      1437.51    7.578175  (  2.318248   0.722744   1.296743)
  38:      1475.44   21.227967  ( -0.274341   4.587028  -0.334477)
  39:      1484.82   10.462510  ( -3.220036   0.202878  -0.229602)
  40:      1635.88   79.021462  ( -6.481087  -1.170207  -5.970560)
  41:      3081.00   11.870361  ( -2.093183   2.331979   1.432068)
  42:      3097.86    6.194483  ( -0.992152  -1.253412  -1.907636)
  43:      3128.92    0.040864  ( -0.197808  -0.017383  -0.037862)
  44:      3135.00    0.287259  ( -0.499087   0.042316   0.190735)
  45:      3200.15    0.966020  (  0.273739  -0.112155  -0.937288)
  46:      3203.39    0.734255  (  0.507680  -0.151487  -0.673474)
  47:      3473.49   72.348500  (  4.996103   1.037662   6.805197)
  48:      3535.69   94.864140  (  7.762858  -2.601029  -5.276062)
  49:      3857.99   80.368767  ( -0.154058   2.523581   8.600964)
  50:      3860.76  130.234071  ( 11.092676  -1.679671   2.089332)

--------------------------
THERMOCHEMISTRY AT 298.15K
--------------------------

Temperature         ... 298.15 K
Pressure            ... 1.00 atm
Total Mass          ... 104.13 AMU

Throughout the following assumptions are being made:
  (1) The electronic state is orbitally nondegenerate
  (2) There are no thermally accessible electronically excited states
  (3) Hindered rotations indicated by low frequency modes) are not
      treated as such but are treated as vibrations and this may
      case some error
  (4) All equations used are the standard statistical mechanics
      equations for an ideal gas
  (5) All vibrations are strinctly harmonic

------------
INNER ENERGY
------------

The inner energy is: U= E(el) + E(ZPE) + E(vib) + E(rot) + E(trans)
    E(el)   - is the total energy from the electronic structure calculation
              = E(kin-el) + E(nuc-el) + E(el-el) + E(nuc-nuc)
    E(ZPE)  - the the zero temperature vibrational energy from the frequency calculation
    E(vib)  - the the finite temperature correction to E(ZPE) due to population
              of excietd vibrational states
    E(rot)  - is the rotational thermal energy
    E(trans)- is the translational thermal energy

Summary of contributions to the inner energy U:
Electronic energy                ...   -363.13370469 Eh
Zero point energy                ...      0.15399054 Eh      96.63 kcal/mol
Thermal vibrational correction   ...      0.00438386 Eh       2.75 kcal/mol
Thermal rotational correction    ...      0.00141627 Eh       0.89 kcal/mol
Thermal translational correction ...      0.00141627 Eh       0.89 kcal/mol
-----------------------------------------------------------------------
Total thermal energy                   -362.97249774 Eh

Summary of corrections to the electronic energy:
(perhaps to be used in another calculation)
Total thermal correction                  0.00721641 Eh       4.53 kcal/mol
Non-thermal (ZPE) correction              0.15399054 Eh      96.63 kcal/mol
-----------------------------------------------------------------------
Total correction                          0.16120695 Eh     101.16 kcal/mol

--------
ENTHALPY
--------

The enthalpy is H = U + kB*T
                kB is Boltzmann's constant
Total free energy                 ...   -362.97249774 Eh
Thermal Enthalpy correction       ...      0.00094421 Eh       0.59 kcal/mol
-----------------------------------------------------------------------
Total Enthalpy                    ...   -362.97155354 Eh

-------
ENTROPY
-------

The entropy contributions are T*S = T*(S(el)+S(vib)+S(rot)+S(trans)
     S(el)   - electronic entropy
     S(vib)  - vibrational entropy
     S(rot)  - rotational entropy
     S(trans)- translational entropy
The entropies will be listed as mutliplied by the temperature to get
units of energy

Electronic entropy                ...      0.00000000 Eh      0.00 kcal/mol
Vibrational entropy               ...      0.00749264 Eh      4.70 kcal/mol
Rotational entropy                ...      0.01186458 Eh      7.45 kcal/mol
Translational entropy             ...      0.01892854 Eh     11.88 kcal/mol
-----------------------------------------------------------------------
Final entropy term                ...      0.03828577 Eh     24.02 kcal/mol

CAUTION: The rotational entropy is not quite correctly treated here
         because it includes a symmetry number that is not yet correctly
         implemented in ORCA!
For a nonlinear molecule the correct rotational entropy is:
    S(rot) = R*(ln(qrot/sn)+1.5)
    R    = 8.31441 J/mol/K = 1.987191683e-3 kcal/mol/K
    qrot = 191878.5637248
    sn is the rotational symmetry number. We have assumed 3 here
       if it is different for your molecule then you should correct
       the printed rotational entropy by manually evaluating the equation
       as given above

For convenience we print out the resulting values for sn=1 - 12:
 sn= 1  qrot/sn=  191878.5637 T*S(rot)=     8.10 kcal/mol T*S(tot)=    24.68 kcal/mol
 sn= 2  qrot/sn=   95939.2819 T*S(rot)=     7.69 kcal/mol T*S(tot)=    24.26 kcal/mol
 sn= 3  qrot/sn=   63959.5212 T*S(rot)=     7.45 kcal/mol T*S(tot)=    24.02 kcal/mol
 sn= 4  qrot/sn=   47969.6409 T*S(rot)=     7.27 kcal/mol T*S(tot)=    23.85 kcal/mol
 sn= 5  qrot/sn=   38375.7127 T*S(rot)=     7.14 kcal/mol T*S(tot)=    23.72 kcal/mol
 sn= 6  qrot/sn=   31979.7606 T*S(rot)=     7.03 kcal/mol T*S(tot)=    23.61 kcal/mol
 sn= 7  qrot/sn=   27411.2234 T*S(rot)=     6.94 kcal/mol T*S(tot)=    23.52 kcal/mol
 sn= 8  qrot/sn=   23984.8205 T*S(rot)=     6.86 kcal/mol T*S(tot)=    23.44 kcal/mol
 sn= 9  qrot/sn=   21319.8404 T*S(rot)=     6.79 kcal/mol T*S(tot)=    23.37 kcal/mol
 sn=10  qrot/sn=   19187.8564 T*S(rot)=     6.73 kcal/mol T*S(tot)=    23.31 kcal/mol
 sn=11  qrot/sn=   17443.5058 T*S(rot)=     6.68 kcal/mol T*S(tot)=    23.25 kcal/mol
 sn=12  qrot/sn=   15989.8803 T*S(rot)=     6.62 kcal/mol T*S(tot)=    23.20 kcal/mol

-------------------
GIBBS FREE ENTHALPY
-------------------

The Gibbs free enthalpy is G = H - T*S

Total enthalpy                    ...   -362.97155354 Eh
Total entropy correction          ...     -0.03828577 Eh    -24.02 kcal/mol
-----------------------------------------------------------------------
Final Gibbs free enthalpy         ...   -363.00983930 Eh

For completeness - the Gibbs free enthalpy minus the electronic energy
G-E(el)                           ...      0.12386539 Eh     77.73 kcal/mol

                             ****ORCA TERMINATED NORMALLY****
TOTAL RUN TIME: 0 days 0 hours 37 minutes 19 seconds 840 msec
