                         Program Version 3.0.3 - RELEASE   -
|  1> ! NORI PBE0 def2-TZVP UseSym TightOPT Freq TightSCF Grid3 FinalGrid5 XYZFile
|  2> % pal
|  3>     nprocs 8
|  4> end
|  5> %method
|  6>     SymThresh 5.0e-2
|  7> end
|  8> % geom
|  9>     MaxIter 10
| 10> end
| 11> % maxcore 2000
| 12> % output
| 13>     printlevel mini
| 14>     print[ P_Basis ] 0
| 15>     print[ P_SCFInfo ] 1
| 16>     print[ P_SCFIterInfo ] 1
| 17>     print[ P_OrbEn ] 0
| 18>     print[ P_Cartesian ] 0
| 19> end
| 20> % elprop
| 21>     Dipole false
| 22> end
| 23> *xyz 1 1
| 24>  O        1.0287843123     0.0252626286     0.0922348046
| 25>  C        2.4047114834    -0.0254231554     0.0361185064
| 26>  C        2.9991567188     1.0664319646     0.9075869007
| 27>  N        4.3777552002     0.5394702648     1.2427149456
| 28>  C        4.2671915069    -0.9494667411     1.4015030573
| 29>  C        3.0032804119    -1.3041131056     0.6230804499
| 30>  O        2.5340052473    -2.3917151269     0.5361494236
| 31>  H        0.6598763034    -0.7969843123    -0.2553612410
| 32>  H        2.7933041666     0.0643472768    -0.9958007230
| 33>  H        2.4325994400     1.1509556025     1.8362441660
| 34>  H        3.0920390764     2.0438333715     0.4389490042
| 35>  H        4.7482849023     0.9873688002     2.0812353668
| 36>  H        5.0248528693     0.7651661626     0.4854414773
| 37>  H        5.1610043503    -1.4491247095     1.0296579851
| 38>  H        4.1320340108    -1.1912589209     2.4568158766
| 39> *
| 40>
| 41>                          ****END OF INPUT****
 Total Charge           Charge          ....    1
 Multiplicity           Mult            ....    1
 Number of Electrons    NEL             ....   54
FINAL SINGLE POINT ENERGY      -361.903463116810

CARTESIAN COORDINATES (ANGSTROEM)
---------------------------------
  O     -0.000166   -0.000900    2.039240
  C     -0.229719   -0.469000    0.763672
  C     -1.485804    0.167845    0.196312
  N     -1.282487    0.076901   -1.300640
  C      0.179961    0.281770   -1.572041
  C      0.847700   -0.073094   -0.246365
  O      2.012036    0.000146   -0.024034
  H      0.905559   -0.208854    2.302769
  H     -0.315894   -1.571121    0.722791
  H     -1.524136    1.223376    0.470319
  H     -2.421582   -0.319174    0.462346
  H     -1.861889    0.757836   -1.792086
  H     -1.575920   -0.843507   -1.631469
  H      0.512651   -0.336067   -2.405312
  H      0.359930    1.331760   -1.807634

FINAL SINGLE POINT ENERGY      -361.903463674596
                    ***********************HURRAY********************
 Multiplicity           Mult            ....    1
 Number of Electrons    NEL             ....   54
 Basis Dimension        Dim             ....  265
FINAL SINGLE POINT ENERGY      -361.903464518817

VIBRATIONAL FREQUENCIES
-----------------------

   0:         0.00 cm**-1
   1:         0.00 cm**-1
   2:         0.00 cm**-1
   3:         0.00 cm**-1
   4:         0.00 cm**-1
   5:         0.00 cm**-1
   6:        75.12 cm**-1
   7:       173.99 cm**-1
   8:       212.24 cm**-1
   9:       307.49 cm**-1
  10:       375.06 cm**-1
  11:       462.51 cm**-1
  12:       573.77 cm**-1
  13:       583.79 cm**-1
  14:       624.80 cm**-1
  15:       732.83 cm**-1
  16:       842.42 cm**-1
  17:       901.72 cm**-1
  18:       944.16 cm**-1
  19:       968.96 cm**-1
  20:      1007.54 cm**-1
  21:      1053.20 cm**-1
  22:      1108.92 cm**-1
  23:      1178.27 cm**-1
  24:      1211.16 cm**-1
  25:      1235.64 cm**-1
  26:      1263.45 cm**-1
  27:      1295.71 cm**-1
  28:      1334.75 cm**-1
  29:      1350.90 cm**-1
  30:      1372.99 cm**-1
  31:      1390.23 cm**-1
  32:      1439.08 cm**-1
  33:      1456.34 cm**-1
  34:      1498.22 cm**-1
  35:      1657.74 cm**-1
  36:      1911.01 cm**-1
  37:      2951.07 cm**-1
  38:      3108.41 cm**-1
  39:      3109.66 cm**-1
  40:      3174.71 cm**-1
  41:      3184.35 cm**-1
  42:      3460.86 cm**-1
  43:      3512.87 cm**-1
  44:      3804.24 cm**-1

IR SPECTRUM
-----------

 Mode    freq (cm**-1)   T**2         TX         TY         TZ
-------------------------------------------------------------------
   6:        75.12    5.982831  (  0.429228   0.806779  -2.268855)
   7:       173.99    0.175154  ( -0.298413   0.035713   0.291254)
   8:       212.24   68.892432  (  1.346079   5.148656  -6.369603)
   9:       307.49   83.508413  ( -2.172793  -8.251782   3.270393)
  10:       375.06   12.068955  ( -2.042527  -2.604656  -1.054896)
  11:       462.51    2.759488  ( -0.515730  -1.578668  -0.036313)
  12:       573.77    5.470641  (  1.837103   0.495325  -1.360274)
  13:       583.79    6.450780  (  1.891095  -1.027272   1.348796)
  14:       624.80    4.097293  (  1.960720  -0.115697  -0.489371)
  15:       732.83    4.560136  (  0.357376  -1.403587  -1.569192)
  16:       842.42   14.229261  ( -0.123791  -3.157586   2.059997)
  17:       901.72   12.851029  ( -1.301116   0.604059  -3.285306)
  18:       944.16    0.414532  (  0.375757   0.312082  -0.419456)
  19:       968.96   15.458959  ( -1.409919  -0.214157   3.664045)
  20:      1007.54    4.810057  (  0.515287  -1.484730   1.529743)
  21:      1053.20    2.973028  ( -0.591347  -1.619664   0.004956)
  22:      1108.92  118.286317  (  0.035598   1.111331  10.818965)
  23:      1178.27    7.819359  ( -0.576603  -1.314448   2.399815)
  24:      1211.16   39.509298  ( -0.140798  -2.450086  -5.786757)
  25:      1235.64    8.377012  ( -2.696880  -0.444471   0.951997)
  26:      1263.45   17.117889  (  0.012735   0.414202   4.116572)
  27:      1295.71   18.153045  (  1.061289   3.303162   2.473020)
  28:      1334.75    1.553785  (  0.561120   1.106435   0.121371)
  29:      1350.90   16.298956  (  2.500199   0.829166   3.059484)
  30:      1372.99   13.840574  ( -0.302604   0.663770   3.648070)
  31:      1390.23   38.113450  ( -4.021613   0.282487   4.675497)
  32:      1439.08    2.116973  (  0.471792  -0.121503   1.370993)
  33:      1456.34   20.351517  (  1.157877   1.498989  -4.094371)
  34:      1498.22   13.422786  (  2.696764  -2.470744  -0.213719)
  35:      1657.74   72.475591  (  5.996313   1.715164   5.794656)
  36:      1911.01  169.871356  ( 12.725264   0.243546   2.807080)
  37:      2951.07   19.726114  ( -0.187959   2.712044   3.512208)
  38:      3108.41    8.135104  (  0.215171   1.030610  -2.650783)
  39:      3109.66    1.227329  (  0.244730  -0.649091   0.863781)
  40:      3174.71    6.260038  (  0.183405  -2.276884  -1.020882)
  41:      3184.35    0.966736  ( -0.405967  -0.894538   0.041572)
  42:      3460.86   83.826449  ( -6.497589  -2.004315  -6.131110)
  43:      3512.87  100.159888  ( -2.774698   9.406628  -1.994064)
  44:      3804.24  106.510432  (  8.382627  -0.878295   5.955720)

--------------------------
THERMOCHEMISTRY AT 298.15K
--------------------------

Temperature         ... 298.15 K
Pressure            ... 1.00 atm
Total Mass          ... 102.11 AMU

Throughout the following assumptions are being made:
  (1) The electronic state is orbitally nondegenerate
  (2) There are no thermally accessible electronically excited states
  (3) Hindered rotations indicated by low frequency modes) are not
      treated as such but are treated as vibrations and this may
      case some error
  (4) All equations used are the standard statistical mechanics
      equations for an ideal gas
  (5) All vibrations are strinctly harmonic

------------
INNER ENERGY
------------

The inner energy is: U= E(el) + E(ZPE) + E(vib) + E(rot) + E(trans)
    E(el)   - is the total energy from the electronic structure calculation
              = E(kin-el) + E(nuc-el) + E(el-el) + E(nuc-nuc)
    E(ZPE)  - the the zero temperature vibrational energy from the frequency calculation
    E(vib)  - the the finite temperature correction to E(ZPE) due to population
              of excietd vibrational states
    E(rot)  - is the rotational thermal energy
    E(trans)- is the translational thermal energy

Summary of contributions to the inner energy U:
Electronic energy                ...   -361.90346452 Eh
Zero point energy                ...      0.12951411 Eh      81.27 kcal/mol
Thermal vibrational correction   ...      0.00394402 Eh       2.47 kcal/mol
Thermal rotational correction    ...      0.00141627 Eh       0.89 kcal/mol
Thermal translational correction ...      0.00141627 Eh       0.89 kcal/mol
-----------------------------------------------------------------------
Total thermal energy                   -361.76717384 Eh

Summary of corrections to the electronic energy:
(perhaps to be used in another calculation)
Total thermal correction                  0.00677656 Eh       4.25 kcal/mol
Non-thermal (ZPE) correction              0.12951411 Eh      81.27 kcal/mol
-----------------------------------------------------------------------
Total correction                          0.13629068 Eh      85.52 kcal/mol

--------
ENTHALPY
--------

The enthalpy is H = U + kB*T
                kB is Boltzmann's constant
Total free energy                 ...   -361.76717384 Eh
Thermal Enthalpy correction       ...      0.00094421 Eh       0.59 kcal/mol
-----------------------------------------------------------------------
Total Enthalpy                    ...   -361.76622963 Eh

-------
ENTROPY
-------

The entropy contributions are T*S = T*(S(el)+S(vib)+S(rot)+S(trans)
     S(el)   - electronic entropy
     S(vib)  - vibrational entropy
     S(rot)  - rotational entropy
     S(trans)- translational entropy
The entropies will be listed as mutliplied by the temperature to get
units of energy

Electronic entropy                ...      0.00000000 Eh      0.00 kcal/mol
Vibrational entropy               ...      0.00682105 Eh      4.28 kcal/mol
Rotational entropy                ...      0.01190831 Eh      7.47 kcal/mol
Translational entropy             ...      0.01890086 Eh     11.86 kcal/mol
-----------------------------------------------------------------------
Final entropy term                ...      0.03763021 Eh     23.61 kcal/mol

CAUTION: The rotational entropy is not quite correctly treated here
         because it includes a symmetry number that is not yet correctly
         implemented in ORCA!
For a nonlinear molecule the correct rotational entropy is:
    S(rot) = R*(ln(qrot/sn)+1.5)
    R    = 8.31441 J/mol/K = 1.987191683e-3 kcal/mol/K
    qrot = 200972.9493547
    sn is the rotational symmetry number. We have assumed 3 here
       if it is different for your molecule then you should correct
       the printed rotational entropy by manually evaluating the equation
       as given above

For convenience we print out the resulting values for sn=1 - 12:
 sn= 1  qrot/sn=  200972.9494 T*S(rot)=     8.12 kcal/mol T*S(tot)=    24.26 kcal/mol
 sn= 2  qrot/sn=  100486.4747 T*S(rot)=     7.71 kcal/mol T*S(tot)=    23.85 kcal/mol
 sn= 3  qrot/sn=   66990.9831 T*S(rot)=     7.47 kcal/mol T*S(tot)=    23.61 kcal/mol
 sn= 4  qrot/sn=   50243.2373 T*S(rot)=     7.30 kcal/mol T*S(tot)=    23.44 kcal/mol
 sn= 5  qrot/sn=   40194.5899 T*S(rot)=     7.17 kcal/mol T*S(tot)=    23.31 kcal/mol
 sn= 6  qrot/sn=   33495.4916 T*S(rot)=     7.06 kcal/mol T*S(tot)=    23.20 kcal/mol
 sn= 7  qrot/sn=   28710.4213 T*S(rot)=     6.97 kcal/mol T*S(tot)=    23.11 kcal/mol
 sn= 8  qrot/sn=   25121.6187 T*S(rot)=     6.89 kcal/mol T*S(tot)=    23.03 kcal/mol
 sn= 9  qrot/sn=   22330.3277 T*S(rot)=     6.82 kcal/mol T*S(tot)=    22.96 kcal/mol
 sn=10  qrot/sn=   20097.2949 T*S(rot)=     6.76 kcal/mol T*S(tot)=    22.90 kcal/mol
 sn=11  qrot/sn=   18270.2681 T*S(rot)=     6.70 kcal/mol T*S(tot)=    22.84 kcal/mol
 sn=12  qrot/sn=   16747.7458 T*S(rot)=     6.65 kcal/mol T*S(tot)=    22.79 kcal/mol

-------------------
GIBBS FREE ENTHALPY
-------------------

The Gibbs free enthalpy is G = H - T*S

Total enthalpy                    ...   -361.76622963 Eh
Total entropy correction          ...     -0.03763021 Eh    -23.61 kcal/mol
-----------------------------------------------------------------------
Final Gibbs free enthalpy         ...   -361.80385985 Eh

For completeness - the Gibbs free enthalpy minus the electronic energy
G-E(el)                           ...      0.09960467 Eh     62.50 kcal/mol

                             ****ORCA TERMINATED NORMALLY****
TOTAL RUN TIME: 0 days 0 hours 30 minutes 21 seconds 362 msec
