                         Program Version 3.0.3 - RELEASE   -
|  1> ! NORI PBE0 def2-TZVP UseSym TightOPT Freq TightSCF Grid3 FinalGrid5 XYZFile
|  2> % pal
|  3>     nprocs 8
|  4> end
|  5> %method
|  6>     SymThresh 5.0e-2
|  7> end
|  8> % geom
|  9>     MaxIter 10
| 10> end
| 11> % maxcore 2000
| 12> % output
| 13>     printlevel mini
| 14>     print[ P_Basis ] 0
| 15>     print[ P_SCFInfo ] 1
| 16>     print[ P_SCFIterInfo ] 1
| 17>     print[ P_OrbEn ] 0
| 18>     print[ P_Cartesian ] 0
| 19> end
| 20> % elprop
| 21>     Dipole false
| 22> end
| 23> *xyz 1 1
| 24>  O        1.0041018185    -0.0544505014     0.1009987923
| 25>  C        2.2026746010    -0.0575316485     0.0846380654
| 26>  C        2.9435249915     1.2628364267    -0.1158165709
| 27>  N        4.3229603861     1.1954142489     0.4581189008
| 28>  C        5.1224975652     0.0530387919    -0.0836137697
| 29>  C        4.3568005788    -1.2186157093     0.0517459417
| 30>  C        3.0299544596    -1.2680164825     0.1733820597
| 31>  H        2.3957955012     2.0738210572     0.3626543001
| 32>  H        3.0363286474     1.4718566688    -1.1843915811
| 33>  H        4.2503024295     1.0858755694     1.4732627595
| 34>  H        4.8152682097     2.0764837835     0.2945440594
| 35>  H        5.3571288954     0.2806088708    -1.1282462302
| 36>  H        6.0631013850     0.0161047528     0.4686415974
| 37>  H        4.9496410737    -2.1272286656     0.0413305555
| 38>  H        2.5004894574    -2.2063071627     0.2919311201
| 39> *
| 40>
| 41>                          ****END OF INPUT****
 Total Charge           Charge          ....    1
 Multiplicity           Mult            ....    1
 Number of Electrons    NEL             ....   52
FINAL SINGLE POINT ENERGY      -324.790921667419

CARTESIAN COORDINATES (ANGSTROEM)
---------------------------------
  O      0.000002    0.000296    2.282341
  C     -0.054882    0.000626    1.084942
  C      1.111892    0.583828    0.290817
  N      1.168646   -0.000078   -1.084740
  C     -0.114719    0.158619   -1.836593
  C     -1.253646   -0.348435   -1.019806
  C     -1.211941   -0.462921    0.307982
  H      2.050745    0.381449    0.804937
  H      0.981999    1.664304    0.189661
  H      1.376282   -0.999499   -1.008197
  H      1.938110    0.417777   -1.612391
  H     -0.225722    1.220397   -2.079557
  H     -0.018337   -0.389784   -2.775446
  H     -2.144492   -0.622648   -1.575113
  H     -2.048097   -0.855228    0.875253

FINAL SINGLE POINT ENERGY      -324.790921992802
                    ***********************HURRAY********************
 Multiplicity           Mult            ....    1
 Number of Electrons    NEL             ....   52
 Basis Dimension        Dim             ....  265
FINAL SINGLE POINT ENERGY      -324.790922072389

VIBRATIONAL FREQUENCIES
-----------------------

   0:         0.00 cm**-1
   1:         0.00 cm**-1
   2:         0.00 cm**-1
   3:         0.00 cm**-1
   4:         0.00 cm**-1
   5:         0.00 cm**-1
   6:       102.67 cm**-1
   7:       244.79 cm**-1
   8:       314.44 cm**-1
   9:       408.21 cm**-1
  10:       476.19 cm**-1
  11:       483.41 cm**-1
  12:       589.39 cm**-1
  13:       720.58 cm**-1
  14:       752.64 cm**-1
  15:       777.55 cm**-1
  16:       865.09 cm**-1
  17:       950.62 cm**-1
  18:       964.22 cm**-1
  19:      1006.27 cm**-1
  20:      1032.29 cm**-1
  21:      1057.03 cm**-1
  22:      1071.53 cm**-1
  23:      1167.77 cm**-1
  24:      1192.66 cm**-1
  25:      1258.18 cm**-1
  26:      1271.07 cm**-1
  27:      1329.01 cm**-1
  28:      1397.02 cm**-1
  29:      1407.65 cm**-1
  30:      1425.82 cm**-1
  31:      1442.31 cm**-1
  32:      1463.32 cm**-1
  33:      1484.34 cm**-1
  34:      1642.26 cm**-1
  35:      1706.38 cm**-1
  36:      1835.86 cm**-1
  37:      3070.55 cm**-1
  38:      3092.87 cm**-1
  39:      3131.00 cm**-1
  40:      3168.92 cm**-1
  41:      3202.26 cm**-1
  42:      3223.37 cm**-1
  43:      3427.60 cm**-1
  44:      3480.65 cm**-1

IR SPECTRUM
-----------

 Mode    freq (cm**-1)   T**2         TX         TY         TZ
-------------------------------------------------------------------
   6:       102.67    3.114654  (  0.682321  -1.599013  -0.303728)
   7:       244.79    6.795773  (  1.480581   1.557840  -1.475394)
   8:       314.44    2.573414  ( -0.406925   0.139086   1.545471)
   9:       408.21    3.208949  ( -1.619955  -0.316965  -0.695865)
  10:       476.19    3.475128  ( -0.369873  -0.006290  -1.827097)
  11:       483.41   10.634754  ( -2.769517  -1.712223   0.181170)
  12:       589.39    7.120411  ( -0.306728   2.544602   0.742517)
  13:       720.58    1.368267  (  1.069546   0.468223  -0.071446)
  14:       752.64   16.665078  (  2.431295  -3.127793  -0.985287)
  15:       777.55   24.687238  (  0.316192   4.586740  -1.883899)
  16:       865.09    2.940965  (  1.407081  -0.438647  -0.876741)
  17:       950.62   12.546808  (  0.971383  -3.173425   1.237981)
  18:       964.22    9.141653  ( -2.656050   1.278309  -0.673037)
  19:      1006.27   10.004123  ( -2.222020  -2.085400  -0.847264)
  20:      1032.29    0.647159  ( -0.089074  -0.579013  -0.551334)
  21:      1057.03    9.137483  ( -1.946056  -0.608896  -2.231501)
  22:      1071.53    4.984277  (  1.403319   1.342833   1.100805)
  23:      1167.77   20.145103  ( -4.023089  -1.964308  -0.318364)
  24:      1192.66    6.898931  ( -0.448535  -1.480169  -2.122934)
  25:      1258.18   41.484763  ( -5.006440  -1.740113  -3.659552)
  26:      1271.07    4.416252  (  1.591202   0.642190  -1.213227)
  27:      1329.01    4.704093  ( -0.153471   1.441201  -1.613530)
  28:      1397.02    2.628763  (  0.660649   0.966918  -1.121327)
  29:      1407.65   15.607183  (  3.460430   1.426529   1.263971)
  30:      1425.82    4.894769  (  1.804677   0.342164   1.233221)
  31:      1442.31   28.094433  (  2.237678   0.624233   4.764196)
  32:      1463.32   21.168645  ( -2.889319  -2.181994  -2.838905)
  33:      1484.34   29.553409  (  1.483508   2.753673  -4.446336)
  34:      1642.26   77.779756  ( -7.379307   4.067642   2.603819)
  35:      1706.38    7.861101  (  1.144076   1.011301   2.351481)
  36:      1835.86  213.890216  ( -0.919249   0.331363 -14.592306)
  37:      3070.55    0.256171  (  0.354418  -0.260674   0.250216)
  38:      3092.87    2.766397  (  1.222316   1.123492   0.100530)
  39:      3131.00    0.757363  ( -0.254346   0.824304   0.114864)
  40:      3168.92    3.288192  ( -1.261917   0.987258  -0.849163)
  41:      3202.26    3.761950  ( -0.773701  -0.143162  -1.772806)
  42:      3223.37    8.523503  (  2.522635   1.093029  -0.982398)
  43:      3427.60   60.585708  ( -5.962965   4.073502   2.904365)
  44:      3480.65   83.506189  ( -4.019556  -7.365220   3.619791)

--------------------------
THERMOCHEMISTRY AT 298.15K
--------------------------

Temperature         ... 298.15 K
Pressure            ... 1.00 atm
Total Mass          ... 98.12 AMU

Throughout the following assumptions are being made:
  (1) The electronic state is orbitally nondegenerate
  (2) There are no thermally accessible electronically excited states
  (3) Hindered rotations indicated by low frequency modes) are not
      treated as such but are treated as vibrations and this may
      case some error
  (4) All equations used are the standard statistical mechanics
      equations for an ideal gas
  (5) All vibrations are strinctly harmonic

------------
INNER ENERGY
------------

The inner energy is: U= E(el) + E(ZPE) + E(vib) + E(rot) + E(trans)
    E(el)   - is the total energy from the electronic structure calculation
              = E(kin-el) + E(nuc-el) + E(el-el) + E(nuc-nuc)
    E(ZPE)  - the the zero temperature vibrational energy from the frequency calculation
    E(vib)  - the the finite temperature correction to E(ZPE) due to population
              of excietd vibrational states
    E(rot)  - is the rotational thermal energy
    E(trans)- is the translational thermal energy

Summary of contributions to the inner energy U:
Electronic energy                ...   -324.79092207 Eh
Zero point energy                ...      0.13130850 Eh      82.40 kcal/mol
Thermal vibrational correction   ...      0.00324629 Eh       2.04 kcal/mol
Thermal rotational correction    ...      0.00141627 Eh       0.89 kcal/mol
Thermal translational correction ...      0.00141627 Eh       0.89 kcal/mol
-----------------------------------------------------------------------
Total thermal energy                   -324.65353474 Eh

Summary of corrections to the electronic energy:
(perhaps to be used in another calculation)
Total thermal correction                  0.00607883 Eh       3.81 kcal/mol
Non-thermal (ZPE) correction              0.13130850 Eh      82.40 kcal/mol
-----------------------------------------------------------------------
Total correction                          0.13738733 Eh      86.21 kcal/mol

--------
ENTHALPY
--------

The enthalpy is H = U + kB*T
                kB is Boltzmann's constant
Total free energy                 ...   -324.65353474 Eh
Thermal Enthalpy correction       ...      0.00094421 Eh       0.59 kcal/mol
-----------------------------------------------------------------------
Total Enthalpy                    ...   -324.65259053 Eh

-------
ENTROPY
-------

The entropy contributions are T*S = T*(S(el)+S(vib)+S(rot)+S(trans)
     S(el)   - electronic entropy
     S(vib)  - vibrational entropy
     S(rot)  - rotational entropy
     S(trans)- translational entropy
The entropies will be listed as mutliplied by the temperature to get
units of energy

Electronic entropy                ...      0.00000000 Eh      0.00 kcal/mol
Vibrational entropy               ...      0.00526237 Eh      3.30 kcal/mol
Rotational entropy                ...      0.01183878 Eh      7.43 kcal/mol
Translational entropy             ...      0.01884443 Eh     11.83 kcal/mol
-----------------------------------------------------------------------
Final entropy term                ...      0.03594558 Eh     22.56 kcal/mol

CAUTION: The rotational entropy is not quite correctly treated here
         because it includes a symmetry number that is not yet correctly
         implemented in ORCA!
For a nonlinear molecule the correct rotational entropy is:
    S(rot) = R*(ln(qrot/sn)+1.5)
    R    = 8.31441 J/mol/K = 1.987191683e-3 kcal/mol/K
    qrot = 186705.6253262
    sn is the rotational symmetry number. We have assumed 3 here
       if it is different for your molecule then you should correct
       the printed rotational entropy by manually evaluating the equation
       as given above

For convenience we print out the resulting values for sn=1 - 12:
 sn= 1  qrot/sn=  186705.6253 T*S(rot)=     8.08 kcal/mol T*S(tot)=    23.21 kcal/mol
 sn= 2  qrot/sn=   93352.8127 T*S(rot)=     7.67 kcal/mol T*S(tot)=    22.80 kcal/mol
 sn= 3  qrot/sn=   62235.2084 T*S(rot)=     7.43 kcal/mol T*S(tot)=    22.56 kcal/mol
 sn= 4  qrot/sn=   46676.4063 T*S(rot)=     7.26 kcal/mol T*S(tot)=    22.39 kcal/mol
 sn= 5  qrot/sn=   37341.1251 T*S(rot)=     7.13 kcal/mol T*S(tot)=    22.25 kcal/mol
 sn= 6  qrot/sn=   31117.6042 T*S(rot)=     7.02 kcal/mol T*S(tot)=    22.15 kcal/mol
 sn= 7  qrot/sn=   26672.2322 T*S(rot)=     6.93 kcal/mol T*S(tot)=    22.05 kcal/mol
 sn= 8  qrot/sn=   23338.2032 T*S(rot)=     6.85 kcal/mol T*S(tot)=    21.98 kcal/mol
 sn= 9  qrot/sn=   20745.0695 T*S(rot)=     6.78 kcal/mol T*S(tot)=    21.91 kcal/mol
 sn=10  qrot/sn=   18670.5625 T*S(rot)=     6.72 kcal/mol T*S(tot)=    21.84 kcal/mol
 sn=11  qrot/sn=   16973.2387 T*S(rot)=     6.66 kcal/mol T*S(tot)=    21.79 kcal/mol
 sn=12  qrot/sn=   15558.8021 T*S(rot)=     6.61 kcal/mol T*S(tot)=    21.73 kcal/mol

-------------------
GIBBS FREE ENTHALPY
-------------------

The Gibbs free enthalpy is G = H - T*S

Total enthalpy                    ...   -324.65259053 Eh
Total entropy correction          ...     -0.03594558 Eh    -22.56 kcal/mol
-----------------------------------------------------------------------
Final Gibbs free enthalpy         ...   -324.68853611 Eh

For completeness - the Gibbs free enthalpy minus the electronic energy
G-E(el)                           ...      0.10238596 Eh     64.25 kcal/mol

                             ****ORCA TERMINATED NORMALLY****
TOTAL RUN TIME: 0 days 0 hours 29 minutes 18 seconds 280 msec
