                         Program Version 3.0.3 - RELEASE   -
|  1> ! NORI PBE0 def2-TZVP UseSym TightOPT Freq TightSCF Grid3 FinalGrid5 XYZFile
|  2> % pal
|  3>     nprocs 8
|  4> end
|  5> %method
|  6>     SymThresh 5.0e-2
|  7> end
|  8> % geom
|  9>     MaxIter 10
| 10> end
| 11> % maxcore 2000
| 12> % output
| 13>     printlevel mini
| 14>     print[ P_Basis ] 0
| 15>     print[ P_SCFInfo ] 1
| 16>     print[ P_SCFIterInfo ] 1
| 17>     print[ P_OrbEn ] 0
| 18>     print[ P_Cartesian ] 0
| 19> end
| 20> % elprop
| 21>     Dipole false
| 22> end
| 23> *xyz 1 1
| 24>  O        0.9773060180     0.3132653704     0.3894102752
| 25>  C        2.3629175140     0.2504790956     0.1789613413
| 26>  C        2.6484026723     1.4526337967    -0.7065536295
| 27>  N        3.9902358984     1.3089577565    -1.3490686170
| 28>  C        4.0598765548     0.1327691291    -2.2736006254
| 29>  C        3.5175693230    -1.0782027177    -1.5944366421
| 30>  C        2.7815124972    -1.0266205880    -0.4929567953
| 31>  H        0.7337565401    -0.1811479513     1.1776152024
| 32>  H        2.9046422273     0.3567593050     1.1313312389
| 33>  H        1.9068820440     1.4979337504    -1.5055115344
| 34>  H        2.6298605960     2.3856427460    -0.1445310172
| 35>  H        4.2243196764     2.1634765036    -1.8566982717
| 36>  H        4.7001472544     1.1966593383    -0.6215615584
| 37>  H        3.4921823722     0.3948019871    -3.1712529317
| 38>  H        5.1043469960     0.0044495428    -2.5642516637
| 39>  H        3.7638464134    -2.0259281975    -2.0594700672
| 40>  H        2.4320354026    -1.9458188670    -0.0342647042
| 41> *
| 42>
| 43>                          ****END OF INPUT****
 Total Charge           Charge          ....    1
 Multiplicity           Mult            ....    1
 Number of Electrons    NEL             ....   54
FINAL SINGLE POINT ENERGY      -326.003787216157
FINAL SINGLE POINT ENERGY      -326.003788367782
FINAL SINGLE POINT ENERGY      -326.003789880831
FINAL SINGLE POINT ENERGY      -326.003790889258

CARTESIAN COORDINATES (ANGSTROEM)
---------------------------------
  O      0.005348   -0.004404    2.250461
  C      0.051167   -0.561293    0.963847
  C      1.192600    0.181635    0.289543
  N      1.118086    0.001627   -1.192080
  C     -0.123627    0.596129   -1.782411
  C     -1.315284    0.163548   -0.998879
  C     -1.235886   -0.370392    0.212185
  H     -0.463961   -0.589634    2.852554
  H      0.288955   -1.635380    1.014717
  H      1.098788    1.249097    0.494930
  H      2.165720   -0.166818    0.633682
  H      1.942426    0.413179   -1.632294
  H      1.138702   -0.997360   -1.410661
  H      0.004830    1.682711   -1.777001
  H     -0.179794    0.271226   -2.823622
  H     -2.273477    0.311221   -1.484331
  H     -2.140368   -0.683858    0.723722

FINAL SINGLE POINT ENERGY      -326.003791838852
                    ***********************HURRAY********************
 Multiplicity           Mult            ....    1
 Number of Electrons    NEL             ....   54
 Basis Dimension        Dim             ....  277
FINAL SINGLE POINT ENERGY      -326.003792252635

VIBRATIONAL FREQUENCIES
-----------------------

   0:         0.00 cm**-1
   1:         0.00 cm**-1
   2:         0.00 cm**-1
   3:         0.00 cm**-1
   4:         0.00 cm**-1
   5:         0.00 cm**-1
   6:       104.16 cm**-1
   7:       228.69 cm**-1
   8:       255.58 cm**-1
   9:       297.50 cm**-1
  10:       367.34 cm**-1
  11:       455.21 cm**-1
  12:       481.18 cm**-1
  13:       568.83 cm**-1
  14:       697.90 cm**-1
  15:       751.01 cm**-1
  16:       823.80 cm**-1
  17:       883.78 cm**-1
  18:       946.90 cm**-1
  19:       967.72 cm**-1
  20:      1003.62 cm**-1
  21:      1016.41 cm**-1
  22:      1066.18 cm**-1
  23:      1074.91 cm**-1
  24:      1094.41 cm**-1
  25:      1146.56 cm**-1
  26:      1184.25 cm**-1
  27:      1202.66 cm**-1
  28:      1268.87 cm**-1
  29:      1285.85 cm**-1
  30:      1331.43 cm**-1
  31:      1359.52 cm**-1
  32:      1393.24 cm**-1
  33:      1410.46 cm**-1
  34:      1421.34 cm**-1
  35:      1433.53 cm**-1
  36:      1465.63 cm**-1
  37:      1481.79 cm**-1
  38:      1497.50 cm**-1
  39:      1642.13 cm**-1
  40:      1744.60 cm**-1
  41:      2991.49 cm**-1
  42:      3073.48 cm**-1
  43:      3105.02 cm**-1
  44:      3125.37 cm**-1
  45:      3170.07 cm**-1
  46:      3192.59 cm**-1
  47:      3212.46 cm**-1
  48:      3438.24 cm**-1
  49:      3494.59 cm**-1
  50:      3859.02 cm**-1

IR SPECTRUM
-----------

 Mode    freq (cm**-1)   T**2         TX         TY         TZ
-------------------------------------------------------------------
   6:       104.16    1.113983  ( -0.011335   0.316720  -1.006749)
   7:       228.69  131.256253  (  9.215890  -5.723938   3.682413)
   8:       255.58    4.473996  ( -0.822869  -1.934325   0.235096)
   9:       297.50    2.217708  (  1.309775   0.589322  -0.393570)
  10:       367.34    5.807577  ( -0.339546   0.613733   2.305562)
  11:       455.21    3.724899  ( -1.823245  -0.489188  -0.401711)
  12:       481.18    7.882193  ( -0.246647  -1.057235   2.589133)
  13:       568.83   20.663939  ( -0.366883   2.227687   3.945472)
  14:       697.90   11.734165  ( -0.716187  -3.333545   0.329725)
  15:       751.01   22.634611  ( -0.574579   4.412348   1.683941)
  16:       823.80    6.812803  (  1.424471   1.625564  -1.463293)
  17:       883.78    2.896238  (  0.584541  -1.154799  -1.104984)
  18:       946.90    9.281274  ( -0.144432   0.103336   3.041338)
  19:       967.72   17.277192  ( -3.227511   1.819683  -1.883910)
  20:      1003.62   11.775625  ( -0.874542  -3.262757  -0.604335)
  21:      1016.41    1.416213  ( -0.260904  -0.777491   0.862351)
  22:      1066.18    3.544926  ( -1.530476   1.069455  -0.242563)
  23:      1074.91   15.577500  ( -1.196691  -0.485677  -3.729551)
  24:      1094.41   59.348243  ( -0.051379   2.947715   7.117343)
  25:      1146.56   34.746165  (  0.081047   0.908544   5.823585)
  26:      1184.25    1.187573  ( -0.111361   0.103088  -1.079141)
  27:      1202.66   23.059684  ( -1.056960  -2.095888  -4.189245)
  28:      1268.87   25.682097  (  1.123470   0.786309   4.878691)
  29:      1285.85   20.873557  (  1.291580  -2.013927  -3.892233)
  30:      1331.43    3.918701  (  0.213579  -1.811475  -0.769183)
  31:      1359.52    6.903435  ( -0.778888   0.940551  -2.326399)
  32:      1393.24    4.791284  ( -0.807920  -0.810640  -1.865854)
  33:      1410.46    5.814866  ( -0.524999   0.103391  -2.351287)
  34:      1421.34   13.517281  (  2.565527  -0.412112   2.601060)
  35:      1433.53   25.637365  (  2.361814   0.202284   4.474179)
  36:      1465.63    7.996965  (  0.645944  -1.960276   1.933142)
  37:      1481.79   10.523390  ( -1.414733   0.217084  -2.911150)
  38:      1497.50   23.937250  ( -2.531318  -3.650117   2.050933)
  39:      1642.13   76.282033  (  5.891921  -4.340190  -4.767605)
  40:      1744.60    0.149546  (  0.361108  -0.096356   0.099312)
  41:      2991.49   18.804023  (  1.188105  -4.006186  -1.158838)
  42:      3073.48    1.879302  ( -0.667489  -0.556010   1.060477)
  43:      3105.02    0.329791  ( -0.443203  -0.119004   0.345255)
  44:      3125.37    0.135472  ( -0.156359   0.298021  -0.149022)
  45:      3170.07    0.291791  (  0.321582   0.288910   0.323894)
  46:      3192.59    0.125120  (  0.059075  -0.101152   0.333764)
  47:      3212.46    1.684540  (  1.170847  -0.204021   0.521568)
  48:      3438.24   52.931326  ( -4.708921   3.824626   4.016170)
  49:      3494.59   76.389516  (  5.307899   6.635125  -2.047153)
  50:      3859.02  114.031112  (  3.391359   3.995257  -9.304177)

--------------------------
THERMOCHEMISTRY AT 298.15K
--------------------------

Temperature         ... 298.15 K
Pressure            ... 1.00 atm
Total Mass          ... 100.14 AMU

Throughout the following assumptions are being made:
  (1) The electronic state is orbitally nondegenerate
  (2) There are no thermally accessible electronically excited states
  (3) Hindered rotations indicated by low frequency modes) are not
      treated as such but are treated as vibrations and this may
      case some error
  (4) All equations used are the standard statistical mechanics
      equations for an ideal gas
  (5) All vibrations are strinctly harmonic

------------
INNER ENERGY
------------

The inner energy is: U= E(el) + E(ZPE) + E(vib) + E(rot) + E(trans)
    E(el)   - is the total energy from the electronic structure calculation
              = E(kin-el) + E(nuc-el) + E(el-el) + E(nuc-nuc)
    E(ZPE)  - the the zero temperature vibrational energy from the frequency calculation
    E(vib)  - the the finite temperature correction to E(ZPE) due to population
              of excietd vibrational states
    E(rot)  - is the rotational thermal energy
    E(trans)- is the translational thermal energy

Summary of contributions to the inner energy U:
Electronic energy                ...   -326.00379225 Eh
Zero point energy                ...      0.15495369 Eh      97.23 kcal/mol
Thermal vibrational correction   ...      0.00388690 Eh       2.44 kcal/mol
Thermal rotational correction    ...      0.00141627 Eh       0.89 kcal/mol
Thermal translational correction ...      0.00141627 Eh       0.89 kcal/mol
-----------------------------------------------------------------------
Total thermal energy                   -325.84211912 Eh

Summary of corrections to the electronic energy:
(perhaps to be used in another calculation)
Total thermal correction                  0.00671944 Eh       4.22 kcal/mol
Non-thermal (ZPE) correction              0.15495369 Eh      97.23 kcal/mol
-----------------------------------------------------------------------
Total correction                          0.16167314 Eh     101.45 kcal/mol

--------
ENTHALPY
--------

The enthalpy is H = U + kB*T
                kB is Boltzmann's constant
Total free energy                 ...   -325.84211912 Eh
Thermal Enthalpy correction       ...      0.00094421 Eh       0.59 kcal/mol
-----------------------------------------------------------------------
Total Enthalpy                    ...   -325.84117491 Eh

-------
ENTROPY
-------

The entropy contributions are T*S = T*(S(el)+S(vib)+S(rot)+S(trans)
     S(el)   - electronic entropy
     S(vib)  - vibrational entropy
     S(rot)  - rotational entropy
     S(trans)- translational entropy
The entropies will be listed as mutliplied by the temperature to get
units of energy

Electronic entropy                ...      0.00000000 Eh      0.00 kcal/mol
Vibrational entropy               ...      0.00633536 Eh      3.98 kcal/mol
Rotational entropy                ...      0.01190183 Eh      7.47 kcal/mol
Translational entropy             ...      0.01887324 Eh     11.84 kcal/mol
-----------------------------------------------------------------------
Final entropy term                ...      0.03711043 Eh     23.29 kcal/mol

CAUTION: The rotational entropy is not quite correctly treated here
         because it includes a symmetry number that is not yet correctly
         implemented in ORCA!
For a nonlinear molecule the correct rotational entropy is:
    S(rot) = R*(ln(qrot/sn)+1.5)
    R    = 8.31441 J/mol/K = 1.987191683e-3 kcal/mol/K
    qrot = 199600.2194888
    sn is the rotational symmetry number. We have assumed 3 here
       if it is different for your molecule then you should correct
       the printed rotational entropy by manually evaluating the equation
       as given above

For convenience we print out the resulting values for sn=1 - 12:
 sn= 1  qrot/sn=  199600.2195 T*S(rot)=     8.12 kcal/mol T*S(tot)=    23.94 kcal/mol
 sn= 2  qrot/sn=   99800.1097 T*S(rot)=     7.71 kcal/mol T*S(tot)=    23.53 kcal/mol
 sn= 3  qrot/sn=   66533.4065 T*S(rot)=     7.47 kcal/mol T*S(tot)=    23.29 kcal/mol
 sn= 4  qrot/sn=   49900.0549 T*S(rot)=     7.30 kcal/mol T*S(tot)=    23.12 kcal/mol
 sn= 5  qrot/sn=   39920.0439 T*S(rot)=     7.17 kcal/mol T*S(tot)=    22.98 kcal/mol
 sn= 6  qrot/sn=   33266.7032 T*S(rot)=     7.06 kcal/mol T*S(tot)=    22.88 kcal/mol
 sn= 7  qrot/sn=   28514.3171 T*S(rot)=     6.97 kcal/mol T*S(tot)=    22.79 kcal/mol
 sn= 8  qrot/sn=   24950.0274 T*S(rot)=     6.89 kcal/mol T*S(tot)=    22.71 kcal/mol
 sn= 9  qrot/sn=   22177.8022 T*S(rot)=     6.82 kcal/mol T*S(tot)=    22.64 kcal/mol
 sn=10  qrot/sn=   19960.0219 T*S(rot)=     6.76 kcal/mol T*S(tot)=    22.57 kcal/mol
 sn=11  qrot/sn=   18145.4745 T*S(rot)=     6.70 kcal/mol T*S(tot)=    22.52 kcal/mol
 sn=12  qrot/sn=   16633.3516 T*S(rot)=     6.65 kcal/mol T*S(tot)=    22.47 kcal/mol

-------------------
GIBBS FREE ENTHALPY
-------------------

The Gibbs free enthalpy is G = H - T*S

Total enthalpy                    ...   -325.84117491 Eh
Total entropy correction          ...     -0.03711043 Eh    -23.29 kcal/mol
-----------------------------------------------------------------------
Final Gibbs free enthalpy         ...   -325.87828534 Eh

For completeness - the Gibbs free enthalpy minus the electronic energy
G-E(el)                           ...      0.12550691 Eh     78.76 kcal/mol

                             ****ORCA TERMINATED NORMALLY****
TOTAL RUN TIME: 0 days 0 hours 39 minutes 21 seconds 667 msec
