                         Program Version 3.0.3 - RELEASE   -
|  1> ! NORI PBE0 def2-TZVP UseSym TightOPT Freq TightSCF Grid3 FinalGrid5 XYZFile
|  2> % pal
|  3>     nprocs 8
|  4> end
|  5> %method
|  6>     SymThresh 5.0e-2
|  7> end
|  8> % geom
|  9>     MaxIter 10
| 10> end
| 11> % maxcore 2000
| 12> % output
| 13>     printlevel mini
| 14>     print[ P_Basis ] 0
| 15>     print[ P_SCFInfo ] 1
| 16>     print[ P_SCFIterInfo ] 1
| 17>     print[ P_OrbEn ] 0
| 18>     print[ P_Cartesian ] 0
| 19> end
| 20> % elprop
| 21>     Dipole false
| 22> end
| 23> *xyz 1 1
| 24>  O        1.4157828359     0.0079827441     1.0242475763
| 25>  C        2.3577349713    -0.0007009298     0.2780865348
| 26>  C        2.9709889960    -1.3543488110    -0.0685390135
| 27>  N        3.9357326757    -1.3190128080    -1.2159056793
| 28>  C        4.8442950484    -0.1334339815    -1.1277799175
| 29>  C        4.0089511066     1.1186268949    -1.2164201904
| 30>  N        2.9545559906     1.1019422264    -0.2310110807
| 31>  H        3.5097589456    -1.7180511305     0.8078599327
| 32>  H        2.1679271670    -2.0525343677    -0.2999616984
| 33>  H        4.4776553293    -2.1853863349    -1.2397322448
| 34>  H        3.4191863512    -1.2807162946    -2.0980306306
| 35>  H        5.3672373552    -0.2087930979    -0.1732508787
| 36>  H        5.5648207369    -0.1900056222    -1.9438817972
| 37>  H        3.6101555249     1.2334869091    -2.2338534209
| 38>  H        4.6643265940     1.9732851696    -1.0369435439
| 39>  H        2.5096803715     1.9749094341     0.0175160521
| 40> *
| 41>
| 42>                          ****END OF INPUT****
 Total Charge           Charge          ....    1
 Multiplicity           Mult            ....    1
 Number of Electrons    NEL             ....   54
FINAL SINGLE POINT ENERGY      -342.072831944431

CARTESIAN COORDINATES (ANGSTROEM)
---------------------------------
  O      0.000235   -0.000642    2.280491
  C     -0.043629   -0.019851    1.079760
  C      1.233937    0.327875    0.321327
  N      1.191698   -0.000086   -1.141479
  C     -0.119235    0.388999   -1.749920
  C     -1.212240   -0.411234   -1.087307
  N     -1.154726   -0.267355    0.347844
  H      1.404570    1.401366    0.416693
  H      2.067710   -0.201033    0.780935
  H      1.963218    0.466178   -1.623366
  H      1.337600   -1.003982   -1.272913
  H     -0.237980    1.460441   -1.581281
  H     -0.074462    0.191304   -2.820793
  H     -1.144030   -1.464958   -1.391226
  H     -2.170883   -0.039131   -1.454530
  H     -1.974155   -0.501655    0.891482

FINAL SINGLE POINT ENERGY      -342.072832548784
                    ***********************HURRAY********************
 Multiplicity           Mult            ....    1
 Number of Electrons    NEL             ....   54
 Basis Dimension        Dim             ....  271
FINAL SINGLE POINT ENERGY      -342.072832746035

VIBRATIONAL FREQUENCIES
-----------------------

   0:         0.00 cm**-1
   1:         0.00 cm**-1
   2:         0.00 cm**-1
   3:         0.00 cm**-1
   4:         0.00 cm**-1
   5:         0.00 cm**-1
   6:       111.38 cm**-1
   7:       148.60 cm**-1
   8:       322.92 cm**-1
   9:       407.20 cm**-1
  10:       456.84 cm**-1
  11:       488.75 cm**-1
  12:       525.42 cm**-1
  13:       652.08 cm**-1
  14:       667.79 cm**-1
  15:       783.51 cm**-1
  16:       853.68 cm**-1
  17:       883.48 cm**-1
  18:       942.81 cm**-1
  19:       979.57 cm**-1
  20:      1010.78 cm**-1
  21:      1059.16 cm**-1
  22:      1117.36 cm**-1
  23:      1141.64 cm**-1
  24:      1207.10 cm**-1
  25:      1234.15 cm**-1
  26:      1311.92 cm**-1
  27:      1332.78 cm**-1
  28:      1356.36 cm**-1
  29:      1396.96 cm**-1
  30:      1419.15 cm**-1
  31:      1424.27 cm**-1
  32:      1438.12 cm**-1
  33:      1465.69 cm**-1
  34:      1490.64 cm**-1
  35:      1502.70 cm**-1
  36:      1521.00 cm**-1
  37:      1654.00 cm**-1
  38:      1844.54 cm**-1
  39:      3018.97 cm**-1
  40:      3101.88 cm**-1
  41:      3109.90 cm**-1
  42:      3116.62 cm**-1
  43:      3167.25 cm**-1
  44:      3175.17 cm**-1
  45:      3432.36 cm**-1
  46:      3483.69 cm**-1
  47:      3603.98 cm**-1

IR SPECTRUM
-----------

 Mode    freq (cm**-1)   T**2         TX         TY         TZ
-------------------------------------------------------------------
   6:       111.38    0.908332  ( -0.137817  -0.698573  -0.633509)
   7:       148.60    0.287395  (  0.470020   0.256684  -0.024282)
   8:       322.92    6.912456  (  0.854472   2.086901  -1.351732)
   9:       407.20    4.051428  ( -1.909007  -0.218648   0.599429)
  10:       456.84   10.491850  ( -2.294955   0.824949  -2.131781)
  11:       488.75   11.769562  ( -2.668660  -2.028004   0.731448)
  12:       525.42   26.103000  ( -2.247847   4.502280   0.882983)
  13:       652.08   62.857938  ( -3.118573   7.276785   0.425258)
  14:       667.79   15.112421  (  1.671953  -3.180130   1.484510)
  15:       783.51    6.972963  ( -0.704001  -1.791918   1.807311)
  16:       853.68    5.808072  ( -0.167610  -2.226547   0.906901)
  17:       883.48    6.758113  ( -1.802624  -1.723305   0.734085)
  18:       942.81   15.286496  (  2.846225  -0.043758  -2.680221)
  19:       979.57    6.783591  (  2.450628   0.133984   0.871816)
  20:      1010.78   15.721876  (  2.550124   2.679336   1.428252)
  21:      1059.16    2.631105  ( -1.108396   0.779397  -0.891685)
  22:      1117.36    1.425564  ( -1.157891  -0.267541   0.115220)
  23:      1141.64   15.821519  (  3.271824   1.071232  -1.992272)
  24:      1207.10   10.256139  ( -2.365196  -0.144038  -2.154353)
  25:      1234.15   37.958341  (  3.976229   0.795560   4.638430)
  26:      1311.92   14.195009  ( -1.324762   1.099039  -3.351436)
  27:      1332.78    4.954492  ( -1.657070   0.799730  -1.252615)
  28:      1356.36   74.398007  ( -6.369546  -2.437191  -5.280813)
  29:      1396.96   12.144172  (  2.432860   1.460503   2.022942)
  30:      1419.15   31.251523  (  4.088723  -0.391051   3.792222)
  31:      1424.27   15.199223  ( -0.093119  -0.280333  -3.887411)
  32:      1438.12   23.042272  ( -4.375457  -1.641422  -1.096987)
  33:      1465.69    9.054348  (  2.575727   0.598202   1.436013)
  34:      1490.64   23.032625  (  1.641682   3.690606  -2.591704)
  35:      1502.70    7.594695  ( -2.297300  -0.711645  -1.345611)
  36:      1521.00   42.063384  (  5.789036   2.512945   1.495176)
  37:      1654.00   69.974240  ( -6.400937   3.847849   3.767798)
  38:      1844.54  419.356543  ( -4.866228  -1.009999 -19.865958)
  39:      3018.97   22.539376  (  0.038705   3.040900   3.645655)
  40:      3101.88    0.408647  (  0.320543   0.451695   0.319171)
  41:      3109.90    3.049911  ( -1.541480  -0.698472  -0.431148)
  42:      3116.62    0.636707  (  0.425442   0.337615  -0.584570)
  43:      3167.25    0.053462  (  0.229154   0.024213  -0.019091)
  44:      3175.17    3.582847  (  0.930077  -1.586401   0.448481)
  45:      3432.36   58.303302  ( -5.943025   3.001062   3.738634)
  46:      3483.69   80.298092  (  3.911448   7.769667  -2.151962)
  47:      3603.98   92.908615  (  8.694696   2.289905  -3.473789)

--------------------------
THERMOCHEMISTRY AT 298.15K
--------------------------

Temperature         ... 298.15 K
Pressure            ... 1.00 atm
Total Mass          ... 101.13 AMU

Throughout the following assumptions are being made:
  (1) The electronic state is orbitally nondegenerate
  (2) There are no thermally accessible electronically excited states
  (3) Hindered rotations indicated by low frequency modes) are not
      treated as such but are treated as vibrations and this may
      case some error
  (4) All equations used are the standard statistical mechanics
      equations for an ideal gas
  (5) All vibrations are strinctly harmonic

------------
INNER ENERGY
------------

The inner energy is: U= E(el) + E(ZPE) + E(vib) + E(rot) + E(trans)
    E(el)   - is the total energy from the electronic structure calculation
              = E(kin-el) + E(nuc-el) + E(el-el) + E(nuc-nuc)
    E(ZPE)  - the the zero temperature vibrational energy from the frequency calculation
    E(vib)  - the the finite temperature correction to E(ZPE) due to population
              of excietd vibrational states
    E(rot)  - is the rotational thermal energy
    E(trans)- is the translational thermal energy

Summary of contributions to the inner energy U:
Electronic energy                ...   -342.07283275 Eh
Zero point energy                ...      0.14434967 Eh      90.58 kcal/mol
Thermal vibrational correction   ...      0.00352150 Eh       2.21 kcal/mol
Thermal rotational correction    ...      0.00141627 Eh       0.89 kcal/mol
Thermal translational correction ...      0.00141627 Eh       0.89 kcal/mol
-----------------------------------------------------------------------
Total thermal energy                   -341.92212904 Eh

Summary of corrections to the electronic energy:
(perhaps to be used in another calculation)
Total thermal correction                  0.00635404 Eh       3.99 kcal/mol
Non-thermal (ZPE) correction              0.14434967 Eh      90.58 kcal/mol
-----------------------------------------------------------------------
Total correction                          0.15070371 Eh      94.57 kcal/mol

--------
ENTHALPY
--------

The enthalpy is H = U + kB*T
                kB is Boltzmann's constant
Total free energy                 ...   -341.92212904 Eh
Thermal Enthalpy correction       ...      0.00094421 Eh       0.59 kcal/mol
-----------------------------------------------------------------------
Total Enthalpy                    ...   -341.92118483 Eh

-------
ENTROPY
-------

The entropy contributions are T*S = T*(S(el)+S(vib)+S(rot)+S(trans)
     S(el)   - electronic entropy
     S(vib)  - vibrational entropy
     S(rot)  - rotational entropy
     S(trans)- translational entropy
The entropies will be listed as mutliplied by the temperature to get
units of energy

Electronic entropy                ...      0.00000000 Eh      0.00 kcal/mol
Vibrational entropy               ...      0.00581732 Eh      3.65 kcal/mol
Rotational entropy                ...      0.01187392 Eh      7.45 kcal/mol
Translational entropy             ...      0.01888714 Eh     11.85 kcal/mol
-----------------------------------------------------------------------
Final entropy term                ...      0.03657839 Eh     22.95 kcal/mol

CAUTION: The rotational entropy is not quite correctly treated here
         because it includes a symmetry number that is not yet correctly
         implemented in ORCA!
For a nonlinear molecule the correct rotational entropy is:
    S(rot) = R*(ln(qrot/sn)+1.5)
    R    = 8.31441 J/mol/K = 1.987191683e-3 kcal/mol/K
    qrot = 193785.9634356
    sn is the rotational symmetry number. We have assumed 3 here
       if it is different for your molecule then you should correct
       the printed rotational entropy by manually evaluating the equation
       as given above

For convenience we print out the resulting values for sn=1 - 12:
 sn= 1  qrot/sn=  193785.9634 T*S(rot)=     8.10 kcal/mol T*S(tot)=    23.60 kcal/mol
 sn= 2  qrot/sn=   96892.9817 T*S(rot)=     7.69 kcal/mol T*S(tot)=    23.19 kcal/mol
 sn= 3  qrot/sn=   64595.3211 T*S(rot)=     7.45 kcal/mol T*S(tot)=    22.95 kcal/mol
 sn= 4  qrot/sn=   48446.4909 T*S(rot)=     7.28 kcal/mol T*S(tot)=    22.78 kcal/mol
 sn= 5  qrot/sn=   38757.1927 T*S(rot)=     7.15 kcal/mol T*S(tot)=    22.65 kcal/mol
 sn= 6  qrot/sn=   32297.6606 T*S(rot)=     7.04 kcal/mol T*S(tot)=    22.54 kcal/mol
 sn= 7  qrot/sn=   27683.7091 T*S(rot)=     6.95 kcal/mol T*S(tot)=    22.45 kcal/mol
 sn= 8  qrot/sn=   24223.2454 T*S(rot)=     6.87 kcal/mol T*S(tot)=    22.37 kcal/mol
 sn= 9  qrot/sn=   21531.7737 T*S(rot)=     6.80 kcal/mol T*S(tot)=    22.30 kcal/mol
 sn=10  qrot/sn=   19378.5963 T*S(rot)=     6.74 kcal/mol T*S(tot)=    22.24 kcal/mol
 sn=11  qrot/sn=   17616.9058 T*S(rot)=     6.68 kcal/mol T*S(tot)=    22.18 kcal/mol
 sn=12  qrot/sn=   16148.8303 T*S(rot)=     6.63 kcal/mol T*S(tot)=    22.13 kcal/mol

-------------------
GIBBS FREE ENTHALPY
-------------------

The Gibbs free enthalpy is G = H - T*S

Total enthalpy                    ...   -341.92118483 Eh
Total entropy correction          ...     -0.03657839 Eh    -22.95 kcal/mol
-----------------------------------------------------------------------
Final Gibbs free enthalpy         ...   -341.95776321 Eh

For completeness - the Gibbs free enthalpy minus the electronic energy
G-E(el)                           ...      0.11506953 Eh     72.21 kcal/mol

                             ****ORCA TERMINATED NORMALLY****
TOTAL RUN TIME: 0 days 0 hours 31 minutes 3 seconds 594 msec
