                         Program Version 3.0.3 - RELEASE   -
|  1> ! NORI PBE0 def2-TZVP UseSym TightOPT Freq TightSCF Grid3 FinalGrid5 XYZFile
|  2> % pal
|  3>     nprocs 8
|  4> end
|  5> %method
|  6>     SymThresh 5.0e-2
|  7> end
|  8> % geom
|  9>     MaxIter 10
| 10> end
| 11> % maxcore 2000
| 12> % output
| 13>     printlevel mini
| 14>     print[ P_Basis ] 0
| 15>     print[ P_SCFInfo ] 1
| 16>     print[ P_SCFIterInfo ] 1
| 17>     print[ P_OrbEn ] 0
| 18>     print[ P_Cartesian ] 0
| 19> end
| 20> % elprop
| 21>     Dipole false
| 22> end
| 23> *xyz 1 1
| 24>  O        1.3475654553     0.1140770133     0.7076884609
| 25>  C        2.3240199888     0.0686725210     0.0380077905
| 26>  C        2.9715187357    -1.2918479793    -0.2033117631
| 27>  N        4.0343555005    -1.3142728352    -1.2601721383
| 28>  C        4.8656828168    -0.0735691629    -1.2043750402
| 29>  C        3.9502508610     1.1040114731    -1.4043248572
| 30>  O        2.9209207756     1.1714216349    -0.4278605441
| 31>  H        3.4333501354    -1.5990511088     0.7370423914
| 32>  H        2.1945501599    -2.0107555714    -0.4585596829
| 33>  H        4.6150669736    -2.1486488896    -1.1500303836
| 34>  H        3.6017238278    -1.3865941842    -2.1845044121
| 35>  H        5.3523440030    -0.0537353588    -0.2278462984
| 36>  H        5.6230016738    -0.1237871141    -1.9877256141
| 37>  H        3.4982304001     1.0888309917    -2.4033331904
| 38>  H        4.5197286929     2.0287385704    -1.3140347183
| 39> *
| 40>
| 41>                          ****END OF INPUT****
 Total Charge           Charge          ....    1
 Multiplicity           Mult            ....    1
 Number of Electrons    NEL             ....   54
FINAL SINGLE POINT ENERGY      -361.912655104249

CARTESIAN COORDINATES (ANGSTROEM)
---------------------------------
  O     -0.000170    0.001055    2.246329
  C      0.037902    0.008024    1.062129
  C     -1.279048   -0.084396    0.296859
  N     -1.183673    0.194435   -1.173182
  C      0.071539   -0.383544   -1.743407
  C      1.235318    0.232847   -1.014952
  O      1.192044    0.000387    0.385742
  H     -1.649297   -1.104296    0.416981
  H     -1.996409    0.599748    0.747644
  H     -2.007434   -0.178103   -1.650811
  H     -1.191406    1.204562   -1.335036
  H      0.023952   -1.464477   -1.600723
  H      0.108122   -0.158396   -2.809814
  H      1.290385    1.312526   -1.198748
  H      2.165060   -0.210365   -1.370799

FINAL SINGLE POINT ENERGY      -361.912655626183
                    ***********************HURRAY********************
 Multiplicity           Mult            ....    1
 Number of Electrons    NEL             ....   54
 Basis Dimension        Dim             ....  265
FINAL SINGLE POINT ENERGY      -361.912655783743

VIBRATIONAL FREQUENCIES
-----------------------

   0:         0.00 cm**-1
   1:         0.00 cm**-1
   2:         0.00 cm**-1
   3:         0.00 cm**-1
   4:         0.00 cm**-1
   5:         0.00 cm**-1
   6:        98.55 cm**-1
   7:       145.07 cm**-1
   8:       327.69 cm**-1
   9:       400.60 cm**-1
  10:       469.47 cm**-1
  11:       502.77 cm**-1
  12:       551.04 cm**-1
  13:       661.46 cm**-1
  14:       772.63 cm**-1
  15:       855.31 cm**-1
  16:       884.25 cm**-1
  17:       939.74 cm**-1
  18:       975.91 cm**-1
  19:       993.14 cm**-1
  20:      1069.11 cm**-1
  21:      1125.11 cm**-1
  22:      1145.53 cm**-1
  23:      1211.76 cm**-1
  24:      1221.06 cm**-1
  25:      1286.59 cm**-1
  26:      1316.61 cm**-1
  27:      1338.46 cm**-1
  28:      1396.74 cm**-1
  29:      1420.29 cm**-1
  30:      1423.14 cm**-1
  31:      1443.82 cm**-1
  32:      1462.46 cm**-1
  33:      1487.33 cm**-1
  34:      1503.81 cm**-1
  35:      1655.85 cm**-1
  36:      1903.82 cm**-1
  37:      3051.19 cm**-1
  38:      3100.59 cm**-1
  39:      3107.80 cm**-1
  40:      3149.45 cm**-1
  41:      3165.11 cm**-1
  42:      3174.47 cm**-1
  43:      3430.89 cm**-1
  44:      3481.35 cm**-1

IR SPECTRUM
-----------

 Mode    freq (cm**-1)   T**2         TX         TY         TZ
-------------------------------------------------------------------
   6:        98.55    1.075126  (  0.048120  -0.701413   0.762122)
   7:       145.07    1.396395  ( -0.709559   0.916253   0.231088)
   8:       327.69    4.575388  (  0.854943   1.432482   1.338826)
   9:       400.60    0.215085  (  0.154252  -0.433822  -0.055582)
  10:       469.47    3.342591  ( -0.000461  -0.179018   1.819490)
  11:       502.77    8.510628  (  2.815425   0.489502   0.586854)
  12:       551.04    3.857054  ( -1.271864  -1.397667  -0.534738)
  13:       661.46    4.230496  (  1.319667  -0.999382  -1.220742)
  14:       772.63    4.570623  ( -0.890095   1.501221   1.234784)
  15:       855.31    7.174190  (  0.653724   2.367813   1.067847)
  16:       884.25   14.656843  (  3.581149   1.271905   0.463114)
  17:       939.74   25.834137  (  3.599663   0.164756   3.584608)
  18:       975.91   10.177552  (  3.066553   0.027003  -0.879248)
  19:       993.14   13.014582  ( -2.591453  -2.509663   0.023315)
  20:      1069.11    3.235939  ( -1.422353  -0.885456  -0.654842)
  21:      1125.11    2.241372  (  0.877659  -0.639286   1.030728)
  22:      1145.53   54.147570  (  1.639491  -0.943269   7.111250)
  23:      1211.76   61.697481  ( -6.110517   0.344410   4.923458)
  24:      1221.06  107.458726  ( -7.546212  -0.387461   7.096709)
  25:      1286.59   87.355774  ( -7.141466  -1.252538   5.897998)
  26:      1316.61   38.708150  (  3.315507  -1.318026  -5.096898)
  27:      1338.46   26.618842  ( -3.396486  -2.006630   3.325081)
  28:      1396.74    4.813830  (  2.041296   0.548653  -0.588152)
  29:      1420.29   52.505551  ( -4.879731   0.635195   5.318863)
  30:      1423.14    8.266827  ( -2.477537  -0.764014  -1.242948)
  31:      1443.82   17.645200  (  3.962374  -0.210354  -1.378601)
  32:      1462.46    6.190175  ( -2.329876  -0.242395   0.838508)
  33:      1487.33   23.599966  (  2.635259   3.408307   2.244731)
  34:      1503.81   12.652591  (  3.085657   1.599662  -0.756566)
  35:      1655.85   71.460000  (  5.856998  -4.621131   3.975012)
  36:      1903.82  345.181155  (  2.187917  -0.296116 -18.447398)
  37:      3051.19   12.321703  ( -0.070507   2.522904  -2.439608)
  38:      3100.59    0.635503  ( -0.280448  -0.198454   0.719353)
  39:      3107.80    5.452023  (  2.150395   0.725707  -0.548792)
  40:      3149.45    1.198193  (  1.017562  -0.137659   0.379224)
  41:      3165.11    0.456522  (  0.394833  -0.259350   0.483080)
  42:      3174.47    5.818909  ( -0.808038   2.198270   0.577577)
  43:      3430.89   63.454569  (  5.632342  -3.744590   4.208246)
  44:      3481.35   85.713129  ( -4.983826  -7.531297  -2.038180)

--------------------------
THERMOCHEMISTRY AT 298.15K
--------------------------

Temperature         ... 298.15 K
Pressure            ... 1.00 atm
Total Mass          ... 102.11 AMU

Throughout the following assumptions are being made:
  (1) The electronic state is orbitally nondegenerate
  (2) There are no thermally accessible electronically excited states
  (3) Hindered rotations indicated by low frequency modes) are not
      treated as such but are treated as vibrations and this may
      case some error
  (4) All equations used are the standard statistical mechanics
      equations for an ideal gas
  (5) All vibrations are strinctly harmonic

------------
INNER ENERGY
------------

The inner energy is: U= E(el) + E(ZPE) + E(vib) + E(rot) + E(trans)
    E(el)   - is the total energy from the electronic structure calculation
              = E(kin-el) + E(nuc-el) + E(el-el) + E(nuc-nuc)
    E(ZPE)  - the the zero temperature vibrational energy from the frequency calculation
    E(vib)  - the the finite temperature correction to E(ZPE) due to population
              of excietd vibrational states
    E(rot)  - is the rotational thermal energy
    E(trans)- is the translational thermal energy

Summary of contributions to the inner energy U:
Electronic energy                ...   -361.91265578 Eh
Zero point energy                ...      0.13133627 Eh      82.41 kcal/mol
Thermal vibrational correction   ...      0.00338675 Eh       2.13 kcal/mol
Thermal rotational correction    ...      0.00141627 Eh       0.89 kcal/mol
Thermal translational correction ...      0.00141627 Eh       0.89 kcal/mol
-----------------------------------------------------------------------
Total thermal energy                   -361.77510022 Eh

Summary of corrections to the electronic energy:
(perhaps to be used in another calculation)
Total thermal correction                  0.00621929 Eh       3.90 kcal/mol
Non-thermal (ZPE) correction              0.13133627 Eh      82.41 kcal/mol
-----------------------------------------------------------------------
Total correction                          0.13755556 Eh      86.32 kcal/mol

--------
ENTHALPY
--------

The enthalpy is H = U + kB*T
                kB is Boltzmann's constant
Total free energy                 ...   -361.77510022 Eh
Thermal Enthalpy correction       ...      0.00094421 Eh       0.59 kcal/mol
-----------------------------------------------------------------------
Total Enthalpy                    ...   -361.77415601 Eh

-------
ENTROPY
-------

The entropy contributions are T*S = T*(S(el)+S(vib)+S(rot)+S(trans)
     S(el)   - electronic entropy
     S(vib)  - vibrational entropy
     S(rot)  - rotational entropy
     S(trans)- translational entropy
The entropies will be listed as mutliplied by the temperature to get
units of energy

Electronic entropy                ...      0.00000000 Eh      0.00 kcal/mol
Vibrational entropy               ...      0.00572457 Eh      3.59 kcal/mol
Rotational entropy                ...      0.01184473 Eh      7.43 kcal/mol
Translational entropy             ...      0.01890086 Eh     11.86 kcal/mol
-----------------------------------------------------------------------
Final entropy term                ...      0.03647015 Eh     22.89 kcal/mol

CAUTION: The rotational entropy is not quite correctly treated here
         because it includes a symmetry number that is not yet correctly
         implemented in ORCA!
For a nonlinear molecule the correct rotational entropy is:
    S(rot) = R*(ln(qrot/sn)+1.5)
    R    = 8.31441 J/mol/K = 1.987191683e-3 kcal/mol/K
    qrot = 187885.0967471
    sn is the rotational symmetry number. We have assumed 3 here
       if it is different for your molecule then you should correct
       the printed rotational entropy by manually evaluating the equation
       as given above

For convenience we print out the resulting values for sn=1 - 12:
 sn= 1  qrot/sn=  187885.0967 T*S(rot)=     8.08 kcal/mol T*S(tot)=    23.54 kcal/mol
 sn= 2  qrot/sn=   93942.5484 T*S(rot)=     7.67 kcal/mol T*S(tot)=    23.13 kcal/mol
 sn= 3  qrot/sn=   62628.3656 T*S(rot)=     7.43 kcal/mol T*S(tot)=    22.89 kcal/mol
 sn= 4  qrot/sn=   46971.2742 T*S(rot)=     7.26 kcal/mol T*S(tot)=    22.71 kcal/mol
 sn= 5  qrot/sn=   37577.0193 T*S(rot)=     7.13 kcal/mol T*S(tot)=    22.58 kcal/mol
 sn= 6  qrot/sn=   31314.1828 T*S(rot)=     7.02 kcal/mol T*S(tot)=    22.47 kcal/mol
 sn= 7  qrot/sn=   26840.7281 T*S(rot)=     6.93 kcal/mol T*S(tot)=    22.38 kcal/mol
 sn= 8  qrot/sn=   23485.6371 T*S(rot)=     6.85 kcal/mol T*S(tot)=    22.30 kcal/mol
 sn= 9  qrot/sn=   20876.1219 T*S(rot)=     6.78 kcal/mol T*S(tot)=    22.23 kcal/mol
 sn=10  qrot/sn=   18788.5097 T*S(rot)=     6.72 kcal/mol T*S(tot)=    22.17 kcal/mol
 sn=11  qrot/sn=   17080.4633 T*S(rot)=     6.66 kcal/mol T*S(tot)=    22.12 kcal/mol
 sn=12  qrot/sn=   15657.0914 T*S(rot)=     6.61 kcal/mol T*S(tot)=    22.06 kcal/mol

-------------------
GIBBS FREE ENTHALPY
-------------------

The Gibbs free enthalpy is G = H - T*S

Total enthalpy                    ...   -361.77415601 Eh
Total entropy correction          ...     -0.03647015 Eh    -22.89 kcal/mol
-----------------------------------------------------------------------
Final Gibbs free enthalpy         ...   -361.81062616 Eh

For completeness - the Gibbs free enthalpy minus the electronic energy
G-E(el)                           ...      0.10202962 Eh     64.02 kcal/mol

                             ****ORCA TERMINATED NORMALLY****
TOTAL RUN TIME: 0 days 0 hours 30 minutes 59 seconds 825 msec
