                         Program Version 3.0.3 - RELEASE   -
|  1> ! NORI PBE0 def2-TZVP UseSym TightOPT Freq TightSCF Grid3 FinalGrid5 XYZFile
|  2> % pal
|  3>     nprocs 8
|  4> end
|  5> %method
|  6>     SymThresh 5.0e-2
|  7> end
|  8> % geom
|  9>     MaxIter 10
| 10> end
| 11> % maxcore 2000
| 12> % output
| 13>     printlevel mini
| 14>     print[ P_Basis ] 0
| 15>     print[ P_SCFInfo ] 1
| 16>     print[ P_SCFIterInfo ] 1
| 17>     print[ P_OrbEn ] 0
| 18>     print[ P_Cartesian ] 0
| 19> end
| 20> % elprop
| 21>     Dipole false
| 22> end
| 23> *xyz 1 1
| 24>  O        1.4918224186     0.2199865603     0.8594464906
| 25>  C        2.4442244632    -0.0192385035     0.1816298181
| 26>  N        2.7522913720    -1.1540054684    -0.5118626831
| 27>  C        4.0992963432    -1.2244137903    -1.0286582747
| 28>  C        4.5786668955     0.2012742056    -0.9065855593
| 29>  N        3.6911232179     1.1838041967    -1.5860381309
| 30>  C        3.5874380483     0.9504222883    -0.1202501501
| 31>  H        2.1510120524    -1.9623634394    -0.4532609963
| 32>  H        4.7516809909    -1.8577176028    -0.4181546029
| 33>  H        4.1358771753    -1.5912348580    -2.0579570720
| 34>  H        5.6320654975     0.4448114759    -0.9483123233
| 35>  H        2.9352067146     0.8415407623    -2.1759256852
| 36>  H        4.1063794628     2.0572583520    -1.8956526434
| 37>  H        3.7771653479     1.8028558213     0.5171318127
| 38> *
| 39>
| 40>                          ****END OF INPUT****
 Total Charge           Charge          ....    1
 Multiplicity           Mult            ....    1
 Number of Electrons    NEL             ....   52
FINAL SINGLE POINT ENERGY      -340.834520004909

CARTESIAN COORDINATES (ANGSTROEM)
---------------------------------
  O      0.000068   -0.000175    2.178034
  C      0.119040    0.074674    0.993191
  N      1.247230    0.000112    0.228411
  C      1.090278    0.381745   -1.155812
  C     -0.408220    0.384015   -1.333897
  N     -1.050733   -0.904280   -0.956404
  C     -1.025528    0.241155   -0.007077
  H      2.151579   -0.089029    0.667082
  H      1.459603    1.392784   -1.358069
  H      1.592184   -0.306716   -1.841141
  H     -0.873289    0.888934   -2.170022
  H     -0.461539   -1.707461   -0.746912
  H     -1.937826   -1.133552   -1.394389
  H     -1.985602    0.628291    0.305188

FINAL SINGLE POINT ENERGY      -340.834520265450
                    ***********************HURRAY********************
 Multiplicity           Mult            ....    1
 Number of Electrons    NEL             ....   52
 Basis Dimension        Dim             ....  259
FINAL SINGLE POINT ENERGY      -340.834520366292

VIBRATIONAL FREQUENCIES
-----------------------

   0:         0.00 cm**-1
   1:         0.00 cm**-1
   2:         0.00 cm**-1
   3:         0.00 cm**-1
   4:         0.00 cm**-1
   5:         0.00 cm**-1
   6:       151.54 cm**-1
   7:       263.71 cm**-1
   8:       376.35 cm**-1
   9:       449.84 cm**-1
  10:       571.27 cm**-1
  11:       616.93 cm**-1
  12:       730.68 cm**-1
  13:       778.11 cm**-1
  14:       798.57 cm**-1
  15:       833.02 cm**-1
  16:       874.03 cm**-1
  17:       917.92 cm**-1
  18:       964.79 cm**-1
  19:      1020.08 cm**-1
  20:      1042.98 cm**-1
  21:      1058.82 cm**-1
  22:      1080.30 cm**-1
  23:      1121.04 cm**-1
  24:      1158.57 cm**-1
  25:      1232.30 cm**-1
  26:      1255.92 cm**-1
  27:      1269.70 cm**-1
  28:      1345.13 cm**-1
  29:      1352.79 cm**-1
  30:      1399.07 cm**-1
  31:      1460.16 cm**-1
  32:      1511.05 cm**-1
  33:      1617.18 cm**-1
  34:      1894.21 cm**-1
  35:      3059.81 cm**-1
  36:      3106.44 cm**-1
  37:      3236.19 cm**-1
  38:      3249.46 cm**-1
  39:      3477.46 cm**-1
  40:      3588.84 cm**-1
  41:      3634.55 cm**-1

IR SPECTRUM
-----------

 Mode    freq (cm**-1)   T**2         TX         TY         TZ
-------------------------------------------------------------------
   6:       151.54    0.100244  (  0.273831  -0.019515  -0.157732)
   7:       263.71    9.589081  (  1.216065   1.021955   2.658171)
   8:       376.35    5.415242  (  1.529938  -1.615031  -0.682793)
   9:       449.84    8.609313  (  2.442203   0.676203   1.479089)
  10:       571.27   88.932848  (  1.758849  -8.939921  -2.432511)
  11:       616.93   25.482559  (  1.012313   4.935255  -0.317873)
  12:       730.68    3.079958  (  0.240354  -0.201874   1.726683)
  13:       778.11    7.096536  ( -0.182773   2.644933   0.259724)
  14:       798.57    2.006615  (  1.411033  -0.124435   0.010867)
  15:       833.02   15.908938  ( -2.467027  -2.470470  -1.928599)
  16:       874.03   15.258094  ( -0.560437   3.789103   0.765965)
  17:       917.92    2.956601  ( -0.848108  -0.985955   1.124814)
  18:       964.79    0.073423  (  0.064154  -0.186347  -0.185962)
  19:      1020.08   57.804882  (  4.473312   0.479621  -6.128974)
  20:      1042.98   38.718856  (  5.556008   1.058939  -2.593892)
  21:      1058.82   29.159490  (  1.023357  -0.905116   5.224270)
  22:      1080.30    9.516836  (  1.504192  -0.550829   2.636443)
  23:      1121.04    2.932136  ( -0.663902  -0.102419  -1.575081)
  24:      1158.57    3.076123  ( -1.362100   0.099445   1.100417)
  25:      1232.30    6.569992  (  2.298214   1.131518   0.088730)
  26:      1255.92   44.070896  ( -6.178049   1.358087   2.014499)
  27:      1269.70   14.309577  ( -2.232328  -1.322613   2.752633)
  28:      1345.13   12.286328  (  3.149599  -0.358820   1.495861)
  29:      1352.79   19.064888  ( -2.797764  -0.491446   3.316005)
  30:      1399.07    3.960090  ( -0.743424  -0.035519  -1.845575)
  31:      1460.16   24.782115  (  3.321888   0.492581  -3.674852)
  32:      1511.05   13.758760  (  3.552426   0.437438  -0.973488)
  33:      1617.18   80.330869  (  2.370935   8.383963   2.102069)
  34:      1894.21  457.116646  (  5.388432   0.618213 -20.680891)
  35:      3059.81    7.451794  (  0.193879  -0.413251   2.691362)
  36:      3106.44    0.583155  (  0.346708  -0.286226  -0.617271)
  37:      3236.19    6.095567  ( -0.065459  -1.115511   2.201571)
  38:      3249.46   15.915273  (  3.487295  -1.890907  -0.422513)
  39:      3477.46  100.450100  ( -2.640799  -9.528076  -1.640748)
  40:      3588.84  145.759723  ( 10.870349  -1.403153   5.062252)
  41:      3634.55  120.211887  ( 10.521461  -0.928611   2.940821)

--------------------------
THERMOCHEMISTRY AT 298.15K
--------------------------

Temperature         ... 298.15 K
Pressure            ... 1.00 atm
Total Mass          ... 99.11 AMU

Throughout the following assumptions are being made:
  (1) The electronic state is orbitally nondegenerate
  (2) There are no thermally accessible electronically excited states
  (3) Hindered rotations indicated by low frequency modes) are not
      treated as such but are treated as vibrations and this may
      case some error
  (4) All equations used are the standard statistical mechanics
      equations for an ideal gas
  (5) All vibrations are strinctly harmonic

------------
INNER ENERGY
------------

The inner energy is: U= E(el) + E(ZPE) + E(vib) + E(rot) + E(trans)
    E(el)   - is the total energy from the electronic structure calculation
              = E(kin-el) + E(nuc-el) + E(el-el) + E(nuc-nuc)
    E(ZPE)  - the the zero temperature vibrational energy from the frequency calculation
    E(vib)  - the the finite temperature correction to E(ZPE) due to population
              of excietd vibrational states
    E(rot)  - is the rotational thermal energy
    E(trans)- is the translational thermal energy

Summary of contributions to the inner energy U:
Electronic energy                ...   -340.83452037 Eh
Zero point energy                ...      0.11960108 Eh      75.05 kcal/mol
Thermal vibrational correction   ...      0.00276427 Eh       1.73 kcal/mol
Thermal rotational correction    ...      0.00141627 Eh       0.89 kcal/mol
Thermal translational correction ...      0.00141627 Eh       0.89 kcal/mol
-----------------------------------------------------------------------
Total thermal energy                   -340.70932247 Eh

Summary of corrections to the electronic energy:
(perhaps to be used in another calculation)
Total thermal correction                  0.00559681 Eh       3.51 kcal/mol
Non-thermal (ZPE) correction              0.11960108 Eh      75.05 kcal/mol
-----------------------------------------------------------------------
Total correction                          0.12519790 Eh      78.56 kcal/mol

--------
ENTHALPY
--------

The enthalpy is H = U + kB*T
                kB is Boltzmann's constant
Total free energy                 ...   -340.70932247 Eh
Thermal Enthalpy correction       ...      0.00094421 Eh       0.59 kcal/mol
-----------------------------------------------------------------------
Total Enthalpy                    ...   -340.70837826 Eh

-------
ENTROPY
-------

The entropy contributions are T*S = T*(S(el)+S(vib)+S(rot)+S(trans)
     S(el)   - electronic entropy
     S(vib)  - vibrational entropy
     S(rot)  - rotational entropy
     S(trans)- translational entropy
The entropies will be listed as mutliplied by the temperature to get
units of energy

Electronic entropy                ...      0.00000000 Eh      0.00 kcal/mol
Vibrational entropy               ...      0.00425421 Eh      2.67 kcal/mol
Rotational entropy                ...      0.01169350 Eh      7.34 kcal/mol
Translational entropy             ...      0.01885862 Eh     11.83 kcal/mol
-----------------------------------------------------------------------
Final entropy term                ...      0.03480634 Eh     21.84 kcal/mol

CAUTION: The rotational entropy is not quite correctly treated here
         because it includes a symmetry number that is not yet correctly
         implemented in ORCA!
For a nonlinear molecule the correct rotational entropy is:
    S(rot) = R*(ln(qrot/sn)+1.5)
    R    = 8.31441 J/mol/K = 1.987191683e-3 kcal/mol/K
    qrot = 160079.1467608
    sn is the rotational symmetry number. We have assumed 3 here
       if it is different for your molecule then you should correct
       the printed rotational entropy by manually evaluating the equation
       as given above

For convenience we print out the resulting values for sn=1 - 12:
 sn= 1  qrot/sn=  160079.1468 T*S(rot)=     7.99 kcal/mol T*S(tot)=    22.49 kcal/mol
 sn= 2  qrot/sn=   80039.5734 T*S(rot)=     7.58 kcal/mol T*S(tot)=    22.08 kcal/mol
 sn= 3  qrot/sn=   53359.7156 T*S(rot)=     7.34 kcal/mol T*S(tot)=    21.84 kcal/mol
 sn= 4  qrot/sn=   40019.7867 T*S(rot)=     7.17 kcal/mol T*S(tot)=    21.67 kcal/mol
 sn= 5  qrot/sn=   32015.8294 T*S(rot)=     7.04 kcal/mol T*S(tot)=    21.54 kcal/mol
 sn= 6  qrot/sn=   26679.8578 T*S(rot)=     6.93 kcal/mol T*S(tot)=    21.43 kcal/mol
 sn= 7  qrot/sn=   22868.4495 T*S(rot)=     6.84 kcal/mol T*S(tot)=    21.34 kcal/mol
 sn= 8  qrot/sn=   20009.8933 T*S(rot)=     6.76 kcal/mol T*S(tot)=    21.26 kcal/mol
 sn= 9  qrot/sn=   17786.5719 T*S(rot)=     6.69 kcal/mol T*S(tot)=    21.19 kcal/mol
 sn=10  qrot/sn=   16007.9147 T*S(rot)=     6.62 kcal/mol T*S(tot)=    21.13 kcal/mol
 sn=11  qrot/sn=   14552.6497 T*S(rot)=     6.57 kcal/mol T*S(tot)=    21.07 kcal/mol
 sn=12  qrot/sn=   13339.9289 T*S(rot)=     6.52 kcal/mol T*S(tot)=    21.02 kcal/mol

-------------------
GIBBS FREE ENTHALPY
-------------------

The Gibbs free enthalpy is G = H - T*S

Total enthalpy                    ...   -340.70837826 Eh
Total entropy correction          ...     -0.03480634 Eh    -21.84 kcal/mol
-----------------------------------------------------------------------
Final Gibbs free enthalpy         ...   -340.74318460 Eh

For completeness - the Gibbs free enthalpy minus the electronic energy
G-E(el)                           ...      0.09133577 Eh     57.31 kcal/mol

                             ****ORCA TERMINATED NORMALLY****
TOTAL RUN TIME: 0 days 0 hours 29 minutes 1 seconds 982 msec
