                         Program Version 3.0.3 - RELEASE   -
|  1> ! NORI PBE0 def2-TZVP UseSym TightOPT Freq TightSCF Grid3 FinalGrid5 XYZFile
|  2> % pal
|  3>     nprocs 8
|  4> end
|  5> %method
|  6>     SymThresh 5.0e-2
|  7> end
|  8> % geom
|  9>     MaxIter 10
| 10> end
| 11> % maxcore 2000
| 12> % output
| 13>     printlevel mini
| 14>     print[ P_Basis ] 0
| 15>     print[ P_SCFInfo ] 1
| 16>     print[ P_SCFIterInfo ] 1
| 17>     print[ P_OrbEn ] 0
| 18>     print[ P_Cartesian ] 0
| 19> end
| 20> % elprop
| 21>     Dipole false
| 22> end
| 23> *xyz 1 1
| 24>  O        1.1507090810     0.0758984684     0.4869330551
| 25>  C        2.1512972521    -0.1175550578    -0.1044294373
| 26>  O        2.4150048562    -1.1955531163    -0.8802506770
| 27>  C        3.7893356751    -1.2925826101    -1.2373685592
| 28>  C        4.3854779559     0.0565929996    -0.9257296819
| 29>  N        3.6494509654     1.1697098767    -1.5818085066
| 30>  C        3.3671164824     0.7948274875    -0.1700707828
| 31>  H        4.2783771317    -2.0525092636    -0.6228628714
| 32>  H        3.8651886059    -1.5777607564    -2.2877452143
| 33>  H        5.4532928657     0.2044462010    -0.8281074077
| 34>  H        2.9513195583     0.9572214546    -2.2924484101
| 35>  H        4.1497191856     2.0405299150    -1.7362863759
| 36>  H        3.5318603846     1.5591044014     0.5770548692
| 37> *
| 38>
| 39>                          ****END OF INPUT****
 Total Charge           Charge          ....    1
 Multiplicity           Mult            ....    1
 Number of Electrons    NEL             ....   52
FINAL SINGLE POINT ENERGY      -360.675530674115

CARTESIAN COORDINATES (ANGSTROEM)
---------------------------------
  O      0.000154    0.000319    2.147970
  C      0.093193    0.072033    0.975644
  O      1.245579   -0.000532    0.268338
  C      1.082295    0.393128   -1.089611
  C     -0.404898    0.389615   -1.336869
  N     -1.037100   -0.909524   -0.985307
  C     -1.042462    0.227074   -0.025251
  H      1.467812    1.406107   -1.230008
  H      1.638794   -0.293987   -1.729135
  H     -0.848788    0.905312   -2.178365
  H     -0.446879   -1.715343   -0.785231
  H     -1.920669   -1.140705   -1.430773
  H     -2.010715    0.597100    0.282902

FINAL SINGLE POINT ENERGY      -360.675531019312
                    ***********************HURRAY********************
 Multiplicity           Mult            ....    1
 Number of Electrons    NEL             ....   52
 Basis Dimension        Dim             ....  253
FINAL SINGLE POINT ENERGY      -360.675531305546

VIBRATIONAL FREQUENCIES
-----------------------

   0:         0.00 cm**-1
   1:         0.00 cm**-1
   2:         0.00 cm**-1
   3:         0.00 cm**-1
   4:         0.00 cm**-1
   5:         0.00 cm**-1
   6:       152.32 cm**-1
   7:       252.70 cm**-1
   8:       376.66 cm**-1
   9:       464.02 cm**-1
  10:       622.32 cm**-1
  11:       721.66 cm**-1
  12:       775.26 cm**-1
  13:       796.40 cm**-1
  14:       828.25 cm**-1
  15:       878.82 cm**-1
  16:       921.94 cm**-1
  17:       967.16 cm**-1
  18:      1013.75 cm**-1
  19:      1034.26 cm**-1
  20:      1060.43 cm**-1
  21:      1082.01 cm**-1
  22:      1129.81 cm**-1
  23:      1153.32 cm**-1
  24:      1179.17 cm**-1
  25:      1246.50 cm**-1
  26:      1264.83 cm**-1
  27:      1339.84 cm**-1
  28:      1378.35 cm**-1
  29:      1405.05 cm**-1
  30:      1501.68 cm**-1
  31:      1627.74 cm**-1
  32:      1948.58 cm**-1
  33:      3087.73 cm**-1
  34:      3143.89 cm**-1
  35:      3236.40 cm**-1
  36:      3249.53 cm**-1
  37:      3470.47 cm**-1
  38:      3580.39 cm**-1

IR SPECTRUM
-----------

 Mode    freq (cm**-1)   T**2         TX         TY         TZ
-------------------------------------------------------------------
   6:       152.32    0.049253  ( -0.200267   0.030725  -0.090565)
   7:       252.70   15.240411  (  1.322712   2.493709   2.696712)
   8:       376.66    2.763098  ( -1.645438   0.123868   0.200718)
   9:       464.02    4.467139  ( -1.440337   0.062238  -1.545540)
  10:       622.32    1.546585  ( -0.774544  -0.898794   0.372607)
  11:       721.66    2.133981  (  0.878085  -0.775565  -0.872609)
  12:       775.26    3.956559  ( -0.734239  -1.755955  -0.577992)
  13:       796.40    0.492669  (  0.388763  -0.520930  -0.264885)
  14:       828.25   11.839191  (  1.047831   2.621400   1.967104)
  15:       878.82   14.591431  (  0.581883   3.643941   0.987187)
  16:       921.94    3.787162  ( -1.633933  -0.870490   0.599726)
  17:       967.16    6.423280  ( -2.406599   0.020764   0.794438)
  18:      1013.75   61.710542  ( -3.601695  -0.642054   6.951698)
  19:      1034.26   67.382793  (  8.199022   0.116684  -0.381069)
  20:      1060.43   45.970403  (  0.002949   1.509670  -6.609939)
  21:      1082.01   34.285488  (  0.031737   1.546598  -5.647346)
  22:      1129.81   24.986372  (  0.511721  -0.876596   4.894496)
  23:      1153.32   37.868296  (  4.993922   0.258035  -3.586427)
  24:      1179.17  102.858869  ( -8.138677  -0.700391   6.010845)
  25:      1246.50   10.849701  (  2.174250  -1.457832  -1.999266)
  26:      1264.83    6.161936  ( -1.110047   1.697411  -1.431267)
  27:      1339.84    9.725134  (  3.080804  -0.054644   0.480410)
  28:      1378.35    2.514026  ( -1.089504   0.089534   1.148473)
  29:      1405.05    7.816080  (  2.243353   0.533323  -1.580826)
  30:      1501.68   12.035437  (  3.211737   0.560929  -1.185556)
  31:      1627.74   74.290924  (  2.174590   8.150734   1.768509)
  32:      1948.58  368.082275  (  2.768774   0.705958 -18.971499)
  33:      3087.73    3.642358  ( -0.843131  -0.139959  -1.706429)
  34:      3143.89    0.385728  (  0.149748   0.600267  -0.054618)
  35:      3236.40    9.916941  ( -0.044774  -1.364325   2.837878)
  36:      3249.53   20.842514  (  4.003831  -2.123936  -0.548407)
  37:      3470.47  114.718647  ( -2.375201 -10.230002  -2.103362)
  38:      3580.39  157.197096  ( 11.269701  -1.334916   5.330004)

--------------------------
THERMOCHEMISTRY AT 298.15K
--------------------------

Temperature         ... 298.15 K
Pressure            ... 1.00 atm
Total Mass          ... 100.10 AMU

Throughout the following assumptions are being made:
  (1) The electronic state is orbitally nondegenerate
  (2) There are no thermally accessible electronically excited states
  (3) Hindered rotations indicated by low frequency modes) are not
      treated as such but are treated as vibrations and this may
      case some error
  (4) All equations used are the standard statistical mechanics
      equations for an ideal gas
  (5) All vibrations are strinctly harmonic

------------
INNER ENERGY
------------

The inner energy is: U= E(el) + E(ZPE) + E(vib) + E(rot) + E(trans)
    E(el)   - is the total energy from the electronic structure calculation
              = E(kin-el) + E(nuc-el) + E(el-el) + E(nuc-nuc)
    E(ZPE)  - the the zero temperature vibrational energy from the frequency calculation
    E(vib)  - the the finite temperature correction to E(ZPE) due to population
              of excietd vibrational states
    E(rot)  - is the rotational thermal energy
    E(trans)- is the translational thermal energy

Summary of contributions to the inner energy U:
Electronic energy                ...   -360.67553131 Eh
Zero point energy                ...      0.10682606 Eh      67.03 kcal/mol
Thermal vibrational correction   ...      0.00258919 Eh       1.62 kcal/mol
Thermal rotational correction    ...      0.00141627 Eh       0.89 kcal/mol
Thermal translational correction ...      0.00141627 Eh       0.89 kcal/mol
-----------------------------------------------------------------------
Total thermal energy                   -360.56328351 Eh

Summary of corrections to the electronic energy:
(perhaps to be used in another calculation)
Total thermal correction                  0.00542174 Eh       3.40 kcal/mol
Non-thermal (ZPE) correction              0.10682606 Eh      67.03 kcal/mol
-----------------------------------------------------------------------
Total correction                          0.11224779 Eh      70.44 kcal/mol

--------
ENTHALPY
--------

The enthalpy is H = U + kB*T
                kB is Boltzmann's constant
Total free energy                 ...   -360.56328351 Eh
Thermal Enthalpy correction       ...      0.00094421 Eh       0.59 kcal/mol
-----------------------------------------------------------------------
Total Enthalpy                    ...   -360.56233930 Eh

-------
ENTROPY
-------

The entropy contributions are T*S = T*(S(el)+S(vib)+S(rot)+S(trans)
     S(el)   - electronic entropy
     S(vib)  - vibrational entropy
     S(rot)  - rotational entropy
     S(trans)- translational entropy
The entropies will be listed as mutliplied by the temperature to get
units of energy

Electronic entropy                ...      0.00000000 Eh      0.00 kcal/mol
Vibrational entropy               ...      0.00402635 Eh      2.53 kcal/mol
Rotational entropy                ...      0.01166383 Eh      7.32 kcal/mol
Translational entropy             ...      0.01887262 Eh     11.84 kcal/mol
-----------------------------------------------------------------------
Final entropy term                ...      0.03456280 Eh     21.69 kcal/mol

CAUTION: The rotational entropy is not quite correctly treated here
         because it includes a symmetry number that is not yet correctly
         implemented in ORCA!
For a nonlinear molecule the correct rotational entropy is:
    S(rot) = R*(ln(qrot/sn)+1.5)
    R    = 8.31441 J/mol/K = 1.987191683e-3 kcal/mol/K
    qrot = 155125.9435368
    sn is the rotational symmetry number. We have assumed 3 here
       if it is different for your molecule then you should correct
       the printed rotational entropy by manually evaluating the equation
       as given above

For convenience we print out the resulting values for sn=1 - 12:
 sn= 1  qrot/sn=  155125.9435 T*S(rot)=     7.97 kcal/mol T*S(tot)=    22.34 kcal/mol
 sn= 2  qrot/sn=   77562.9718 T*S(rot)=     7.56 kcal/mol T*S(tot)=    21.93 kcal/mol
 sn= 3  qrot/sn=   51708.6478 T*S(rot)=     7.32 kcal/mol T*S(tot)=    21.69 kcal/mol
 sn= 4  qrot/sn=   38781.4859 T*S(rot)=     7.15 kcal/mol T*S(tot)=    21.52 kcal/mol
 sn= 5  qrot/sn=   31025.1887 T*S(rot)=     7.02 kcal/mol T*S(tot)=    21.39 kcal/mol
 sn= 6  qrot/sn=   25854.3239 T*S(rot)=     6.91 kcal/mol T*S(tot)=    21.28 kcal/mol
 sn= 7  qrot/sn=   22160.8491 T*S(rot)=     6.82 kcal/mol T*S(tot)=    21.19 kcal/mol
 sn= 8  qrot/sn=   19390.7429 T*S(rot)=     6.74 kcal/mol T*S(tot)=    21.11 kcal/mol
 sn= 9  qrot/sn=   17236.2159 T*S(rot)=     6.67 kcal/mol T*S(tot)=    21.04 kcal/mol
 sn=10  qrot/sn=   15512.5944 T*S(rot)=     6.61 kcal/mol T*S(tot)=    20.98 kcal/mol
 sn=11  qrot/sn=   14102.3585 T*S(rot)=     6.55 kcal/mol T*S(tot)=    20.92 kcal/mol
 sn=12  qrot/sn=   12927.1620 T*S(rot)=     6.50 kcal/mol T*S(tot)=    20.87 kcal/mol

-------------------
GIBBS FREE ENTHALPY
-------------------

The Gibbs free enthalpy is G = H - T*S

Total enthalpy                    ...   -360.56233930 Eh
Total entropy correction          ...     -0.03456280 Eh    -21.69 kcal/mol
-----------------------------------------------------------------------
Final Gibbs free enthalpy         ...   -360.59690210 Eh

For completeness - the Gibbs free enthalpy minus the electronic energy
G-E(el)                           ...      0.07862921 Eh     49.34 kcal/mol

                             ****ORCA TERMINATED NORMALLY****
TOTAL RUN TIME: 0 days 0 hours 23 minutes 31 seconds 947 msec
