                         Program Version 3.0.3 - RELEASE   -
|  1> ! NORI PBE0 def2-TZVP UseSym TightOPT Freq TightSCF Grid3 FinalGrid5 XYZFile
|  2> % pal
|  3>     nprocs 8
|  4> end
|  5> %method
|  6>     SymThresh 5.0e-2
|  7> end
|  8> % geom
|  9>     MaxIter 10
| 10> end
| 11> % maxcore 2000
| 12> % output
| 13>     printlevel mini
| 14>     print[ P_Basis ] 0
| 15>     print[ P_SCFInfo ] 1
| 16>     print[ P_SCFIterInfo ] 1
| 17>     print[ P_OrbEn ] 0
| 18>     print[ P_Cartesian ] 0
| 19> end
| 20> % elprop
| 21>     Dipole false
| 22> end
| 23> *xyz 1 1
| 24>  O        1.1669904846    -0.5523162252     0.0514921410
| 25>  C        2.5424769505    -0.2586337671    -0.0271824240
| 26>  C        2.9613025372    -0.5927199933    -1.4459434399
| 27>  C        4.4743735055    -0.7266460578    -1.6523964757
| 28>  C        4.6985520246    -2.1456085664    -2.1895400304
| 29>  C        3.5310437596    -2.9369078708    -1.6360322822
| 30>  N        2.3996492182    -1.9666563437    -1.7667578765
| 31>  H        0.8152789956    -0.3211145901     0.9160386991
| 32>  H        2.7603102947     0.7984388310     0.1566631948
| 33>  H        3.1201195454    -0.8548661176     0.6918275727
| 34>  H        2.4860841646     0.1049668336    -2.1352911168
| 35>  H        4.8540566355     0.0318445917    -2.3349833406
| 36>  H        4.9876810152    -0.5921643082    -0.6979998840
| 37>  H        5.6538359434    -2.5674748392    -1.8808437568
| 38>  H        4.6752577401    -2.1581927945    -3.2826711402
| 39>  H        3.6471662380    -3.1596172048    -0.5751056364
| 40>  H        3.2913126267    -3.8560741974    -2.1685095061
| 41>  H        1.6061622476    -2.1358840098    -1.1360538739
| 42>  H        2.0364760731    -1.9827833704    -2.7186008242
| 43> *
| 44>
| 45>                          ****END OF INPUT****
 Total Charge           Charge          ....    1
 Multiplicity           Mult            ....    1
 Number of Electrons    NEL             ....   56
FINAL SINGLE POINT ENERGY      -327.243133455159

CARTESIAN COORDINATES (ANGSTROEM)
---------------------------------
  O      0.000263   -0.000438    2.380605
  C     -0.954714   -0.050459    1.346329
  C     -0.256640   -0.692816    0.163207
  C     -0.964365   -0.496904   -1.182474
  C      0.052347    0.206389   -2.090603
  C      0.939471    0.968601   -1.127548
  N      1.085002    0.000639    0.004053
  H     -0.384695    0.355393    3.186702
  H     -1.826512   -0.660482    1.604969
  H     -1.309985    0.954532    1.080877
  H     -0.040850   -1.735824    0.395645
  H     -1.296920   -1.445102   -1.601748
  H     -1.850608    0.126022   -1.043252
  H     -0.417320    0.868735   -2.816430
  H      0.645539   -0.521407   -2.650770
  H      0.451769    1.860433   -0.732301
  H      1.922857    1.240251   -1.508599
  H      1.329157    0.422432    0.908889
  H      1.808093   -0.683066   -0.214720

FINAL SINGLE POINT ENERGY      -327.243134425080
                    ***********************HURRAY********************
 Multiplicity           Mult            ....    1
 Number of Electrons    NEL             ....   56
 Basis Dimension        Dim             ....  289
FINAL SINGLE POINT ENERGY      -327.243134837346

VIBRATIONAL FREQUENCIES
-----------------------

   0:         0.00 cm**-1
   1:         0.00 cm**-1
   2:         0.00 cm**-1
   3:         0.00 cm**-1
   4:         0.00 cm**-1
   5:         0.00 cm**-1
   6:        61.01 cm**-1
   7:       144.61 cm**-1
   8:       220.31 cm**-1
   9:       291.52 cm**-1
  10:       317.26 cm**-1
  11:       388.67 cm**-1
  12:       499.47 cm**-1
  13:       583.80 cm**-1
  14:       656.36 cm**-1
  15:       795.86 cm**-1
  16:       845.83 cm**-1
  17:       875.84 cm**-1
  18:       919.11 cm**-1
  19:       930.26 cm**-1
  20:       938.64 cm**-1
  21:      1007.17 cm**-1
  22:      1021.86 cm**-1
  23:      1059.75 cm**-1
  24:      1077.40 cm**-1
  25:      1102.54 cm**-1
  26:      1128.71 cm**-1
  27:      1205.57 cm**-1
  28:      1218.32 cm**-1
  29:      1228.28 cm**-1
  30:      1245.88 cm**-1
  31:      1278.32 cm**-1
  32:      1294.52 cm**-1
  33:      1324.21 cm**-1
  34:      1350.73 cm**-1
  35:      1357.44 cm**-1
  36:      1379.04 cm**-1
  37:      1395.45 cm**-1
  38:      1405.72 cm**-1
  39:      1455.56 cm**-1
  40:      1488.71 cm**-1
  41:      1496.78 cm**-1
  42:      1507.45 cm**-1
  43:      1517.92 cm**-1
  44:      1658.57 cm**-1
  45:      3018.09 cm**-1
  46:      3079.55 cm**-1
  47:      3082.95 cm**-1
  48:      3089.83 cm**-1
  49:      3106.60 cm**-1
  50:      3125.94 cm**-1
  51:      3150.47 cm**-1
  52:      3157.16 cm**-1
  53:      3170.57 cm**-1
  54:      3375.18 cm**-1
  55:      3508.22 cm**-1
  56:      3864.29 cm**-1

IR SPECTRUM
-----------

 Mode    freq (cm**-1)   T**2         TX         TY         TZ
-------------------------------------------------------------------
   6:        61.01    1.219860  (  0.202592  -1.085730  -0.002670)
   7:       144.61   11.922391  ( -1.243340  -2.222694   2.331550)
   8:       220.31    3.136451  ( -0.999686   0.441825   1.393510)
   9:       291.52   18.154804  (  1.255373   0.954816  -3.958178)
  10:       317.26  119.829716  ( -1.862875 -10.432338   2.743306)
  11:       388.67   10.966893  (  0.538698   0.490364  -3.230517)
  12:       499.47    6.072282  ( -2.209913  -0.641894  -0.881215)
  13:       583.80    8.002961  ( -0.217129  -1.147577  -2.576603)
  14:       656.36    0.236974  ( -0.246983  -0.417883  -0.036701)
  15:       795.86    4.984993  (  0.326622  -0.481506  -2.155566)
  16:       845.83    1.942429  (  0.946889  -0.213824   1.000055)
  17:       875.84    1.119212  ( -0.920315  -0.513814  -0.090707)
  18:       919.11   11.789970  ( -0.056772  -1.337171  -3.162075)
  19:       930.26    3.763274  ( -1.427838   0.090061   1.310131)
  20:       938.64   13.226754  ( -2.774524  -0.341141  -2.326454)
  21:      1007.17   13.841947  ( -1.135950   1.192254  -3.336180)
  22:      1021.86    3.953572  (  1.086608  -0.241199   1.647628)
  23:      1059.75   10.500035  ( -2.577546  -1.079256  -1.640579)
  24:      1077.40    1.293721  (  0.447797   0.186723  -1.028753)
  25:      1102.54   64.965099  (  5.142899   1.332580   6.061347)
  26:      1128.71   11.061100  ( -1.440043   0.599205  -2.937402)
  27:      1205.57   11.878387  (  3.413355  -0.115634  -0.462625)
  28:      1218.32   12.166883  (  0.850078   1.187703  -3.167588)
  29:      1228.28   42.809696  (  3.115791  -1.784480   5.469660)
  30:      1245.88   19.353653  ( -2.893368  -2.759174   1.835492)
  31:      1278.32   22.515374  ( -3.986024  -1.552171   2.053717)
  32:      1294.52    7.411188  (  1.445196   0.100433   2.304888)
  33:      1324.21    5.485097  (  2.142835   0.217708   0.919761)
  34:      1350.73    3.978349  (  0.965715  -0.305736   1.718217)
  35:      1357.44    2.590150  (  1.193005   1.066156  -0.173783)
  36:      1379.04   33.307378  (  4.381628   1.959351  -3.204631)
  37:      1395.45   30.737934  ( -3.582820  -3.357885   2.574090)
  38:      1405.72    2.217194  ( -0.390716   1.414493  -0.252477)
  39:      1455.56    5.293109  ( -1.505111  -1.192093   1.267542)
  40:      1488.71    5.101140  (  1.313414  -0.550678  -1.752951)
  41:      1496.78   15.849335  (  2.464693   2.610506   1.720431)
  42:      1507.45    6.832871  (  0.251011  -0.706483   2.504146)
  43:      1517.92    9.829789  (  1.842788  -2.333867  -0.993472)
  44:      1658.57   56.073512  (  6.939720  -1.445704   2.413242)
  45:      3018.09   23.113201  ( -2.767206   2.694623  -2.862652)
  46:      3079.55    2.974750  (  0.728574  -0.883898  -1.289439)
  47:      3082.95    5.590431  (  1.512671   1.816441  -0.052918)
  48:      3089.83    5.862845  (  2.316678  -0.446796  -0.544263)
  49:      3106.60    2.799316  ( -0.087751   1.456595   0.818502)
  50:      3125.94    1.829073  ( -0.395609   1.147222  -0.597034)
  51:      3150.47    0.196690  ( -0.114521   0.355645   0.238938)
  52:      3157.16    1.304148  ( -0.226230   1.092973   0.241614)
  53:      3170.57    0.838126  (  0.687980  -0.371901  -0.475920)
  54:      3375.18  132.082442  ( -2.161891  -1.940322 -11.119524)
  55:      3508.22   78.106619  (  6.073089  -5.357330  -3.538817)
  56:      3864.29  127.644423  (  2.070381  -3.221129 -10.629312)

--------------------------
THERMOCHEMISTRY AT 298.15K
--------------------------

Temperature         ... 298.15 K
Pressure            ... 1.00 atm
Total Mass          ... 102.16 AMU

Throughout the following assumptions are being made:
  (1) The electronic state is orbitally nondegenerate
  (2) There are no thermally accessible electronically excited states
  (3) Hindered rotations indicated by low frequency modes) are not
      treated as such but are treated as vibrations and this may
      case some error
  (4) All equations used are the standard statistical mechanics
      equations for an ideal gas
  (5) All vibrations are strinctly harmonic

------------
INNER ENERGY
------------

The inner energy is: U= E(el) + E(ZPE) + E(vib) + E(rot) + E(trans)
    E(el)   - is the total energy from the electronic structure calculation
              = E(kin-el) + E(nuc-el) + E(el-el) + E(nuc-nuc)
    E(ZPE)  - the the zero temperature vibrational energy from the frequency calculation
    E(vib)  - the the finite temperature correction to E(ZPE) due to population
              of excietd vibrational states
    E(rot)  - is the rotational thermal energy
    E(trans)- is the translational thermal energy

Summary of contributions to the inner energy U:
Electronic energy                ...   -327.24313484 Eh
Zero point energy                ...      0.17861586 Eh     112.08 kcal/mol
Thermal vibrational correction   ...      0.00435653 Eh       2.73 kcal/mol
Thermal rotational correction    ...      0.00141627 Eh       0.89 kcal/mol
Thermal translational correction ...      0.00141627 Eh       0.89 kcal/mol
-----------------------------------------------------------------------
Total thermal energy                   -327.05732991 Eh

Summary of corrections to the electronic energy:
(perhaps to be used in another calculation)
Total thermal correction                  0.00718907 Eh       4.51 kcal/mol
Non-thermal (ZPE) correction              0.17861586 Eh     112.08 kcal/mol
-----------------------------------------------------------------------
Total correction                          0.18580493 Eh     116.59 kcal/mol

--------
ENTHALPY
--------

The enthalpy is H = U + kB*T
                kB is Boltzmann's constant
Total free energy                 ...   -327.05732991 Eh
Thermal Enthalpy correction       ...      0.00094421 Eh       0.59 kcal/mol
-----------------------------------------------------------------------
Total Enthalpy                    ...   -327.05638570 Eh

-------
ENTROPY
-------

The entropy contributions are T*S = T*(S(el)+S(vib)+S(rot)+S(trans)
     S(el)   - electronic entropy
     S(vib)  - vibrational entropy
     S(rot)  - rotational entropy
     S(trans)- translational entropy
The entropies will be listed as mutliplied by the temperature to get
units of energy

Electronic entropy                ...      0.00000000 Eh      0.00 kcal/mol
Vibrational entropy               ...      0.00767884 Eh      4.82 kcal/mol
Rotational entropy                ...      0.01198891 Eh      7.52 kcal/mol
Translational entropy             ...      0.01890147 Eh     11.86 kcal/mol
-----------------------------------------------------------------------
Final entropy term                ...      0.03856922 Eh     24.20 kcal/mol

CAUTION: The rotational entropy is not quite correctly treated here
         because it includes a symmetry number that is not yet correctly
         implemented in ORCA!
For a nonlinear molecule the correct rotational entropy is:
    S(rot) = R*(ln(qrot/sn)+1.5)
    R    = 8.31441 J/mol/K = 1.987191683e-3 kcal/mol/K
    qrot = 218883.0559603
    sn is the rotational symmetry number. We have assumed 3 here
       if it is different for your molecule then you should correct
       the printed rotational entropy by manually evaluating the equation
       as given above

For convenience we print out the resulting values for sn=1 - 12:
 sn= 1  qrot/sn=  218883.0560 T*S(rot)=     8.17 kcal/mol T*S(tot)=    24.85 kcal/mol
 sn= 2  qrot/sn=  109441.5280 T*S(rot)=     7.76 kcal/mol T*S(tot)=    24.44 kcal/mol
 sn= 3  qrot/sn=   72961.0187 T*S(rot)=     7.52 kcal/mol T*S(tot)=    24.20 kcal/mol
 sn= 4  qrot/sn=   54720.7640 T*S(rot)=     7.35 kcal/mol T*S(tot)=    24.03 kcal/mol
 sn= 5  qrot/sn=   43776.6112 T*S(rot)=     7.22 kcal/mol T*S(tot)=    23.90 kcal/mol
 sn= 6  qrot/sn=   36480.5093 T*S(rot)=     7.11 kcal/mol T*S(tot)=    23.79 kcal/mol
 sn= 7  qrot/sn=   31269.0080 T*S(rot)=     7.02 kcal/mol T*S(tot)=    23.70 kcal/mol
 sn= 8  qrot/sn=   27360.3820 T*S(rot)=     6.94 kcal/mol T*S(tot)=    23.62 kcal/mol
 sn= 9  qrot/sn=   24320.3396 T*S(rot)=     6.87 kcal/mol T*S(tot)=    23.55 kcal/mol
 sn=10  qrot/sn=   21888.3056 T*S(rot)=     6.81 kcal/mol T*S(tot)=    23.49 kcal/mol
 sn=11  qrot/sn=   19898.4596 T*S(rot)=     6.75 kcal/mol T*S(tot)=    23.43 kcal/mol
 sn=12  qrot/sn=   18240.2547 T*S(rot)=     6.70 kcal/mol T*S(tot)=    23.38 kcal/mol

-------------------
GIBBS FREE ENTHALPY
-------------------

The Gibbs free enthalpy is G = H - T*S

Total enthalpy                    ...   -327.05638570 Eh
Total entropy correction          ...     -0.03856922 Eh    -24.20 kcal/mol
-----------------------------------------------------------------------
Final Gibbs free enthalpy         ...   -327.09495492 Eh

For completeness - the Gibbs free enthalpy minus the electronic energy
G-E(el)                           ...      0.14817992 Eh     92.98 kcal/mol

                             ****ORCA TERMINATED NORMALLY****
TOTAL RUN TIME: 0 days 0 hours 46 minutes 17 seconds 942 msec
