                         Program Version 3.0.3 - RELEASE   -
|  1> ! NORI PBE0 def2-TZVP UseSym TightOPT Freq TightSCF Grid3 FinalGrid5 XYZFile
|  2> % pal
|  3>     nprocs 8
|  4> end
|  5> %method
|  6>     SymThresh 5.0e-2
|  7> end
|  8> % geom
|  9>     MaxIter 10
| 10> end
| 11> % maxcore 2000
| 12> % output
| 13>     printlevel mini
| 14>     print[ P_Basis ] 0
| 15>     print[ P_SCFInfo ] 1
| 16>     print[ P_SCFIterInfo ] 1
| 17>     print[ P_OrbEn ] 0
| 18>     print[ P_Cartesian ] 0
| 19> end
| 20> % elprop
| 21>     Dipole false
| 22> end
| 23> *xyz 1 1
| 24>  O        2.2315607498     0.5259308004     1.2926633158
| 25>  C        1.9245796594    -0.3002085198     0.4967392572
| 26>  C        2.9592688121    -1.1950577005    -0.1906108480
| 27>  C        4.1685557551    -1.5027578904     0.6742799135
| 28>  C        3.7506679164    -2.7563180862     1.4332610149
| 29>  C        3.0451586362    -3.5830898246     0.3780269681
| 30>  N        2.3323167681    -2.5486956107    -0.4811032400
| 31>  H        0.8670972322    -0.4509173058     0.1810185298
| 32>  H        3.2045516878    -0.7226739557    -1.1460016862
| 33>  H        4.3791233818    -0.6537117748     1.3248660209
| 34>  H        5.0494277235    -1.6888537828     0.0559843141
| 35>  H        4.5947863497    -3.2994799278     1.8564550861
| 36>  H        3.0713793337    -2.5081613390     2.2532488238
| 37>  H        3.7501039278    -4.0992438745    -0.2738385507
| 38>  H        2.3114577218    -4.2974956268     0.7486992964
| 39>  H        2.4024024067    -2.7901706279    -1.4690323022
| 40>  H        1.3317719380    -2.5278349532    -0.2653159136
| 41> *
| 42>
| 43>                          ****END OF INPUT****
 Total Charge           Charge          ....    1
 Multiplicity           Mult            ....    1
 Number of Electrons    NEL             ....   54
FINAL SINGLE POINT ENERGY      -326.007713188568
FINAL SINGLE POINT ENERGY      -326.007715130988

CARTESIAN COORDINATES (ANGSTROEM)
---------------------------------
  O      0.000409   -0.001088    2.384433
  C      0.746974   -0.046238    1.462253
  C      0.370837   -0.720144    0.139934
  C     -1.108843   -0.631799   -0.189993
  C     -1.222494    0.681980   -0.954298
  C     -0.002490    0.669601   -1.852060
  N      1.068205    0.000225   -1.002834
  H      1.777344    0.376064    1.515985
  H      0.756649   -1.742766    0.182526
  H     -1.690925   -0.647690    0.731570
  H     -1.419206   -1.477033   -0.807430
  H     -2.138527    0.756870   -1.539019
  H     -1.195256    1.534626   -0.270558
  H     -0.148288    0.037822   -2.727886
  H      0.360408    1.645347   -2.170806
  H      1.625643   -0.640830   -1.565268
  H      1.722388    0.695256   -0.634236

FINAL SINGLE POINT ENERGY      -326.007715022722
                    ***********************HURRAY********************
 Multiplicity           Mult            ....    1
 Number of Electrons    NEL             ....   54
 Basis Dimension        Dim             ....  277
FINAL SINGLE POINT ENERGY      -326.007715578545

VIBRATIONAL FREQUENCIES
-----------------------

   0:         0.00 cm**-1
   1:         0.00 cm**-1
   2:         0.00 cm**-1
   3:         0.00 cm**-1
   4:         0.00 cm**-1
   5:         0.00 cm**-1
   6:        53.53 cm**-1
   7:       106.24 cm**-1
   8:       196.16 cm**-1
   9:       287.02 cm**-1
  10:       359.62 cm**-1
  11:       538.79 cm**-1
  12:       622.08 cm**-1
  13:       666.75 cm**-1
  14:       803.79 cm**-1
  15:       833.03 cm**-1
  16:       852.71 cm**-1
  17:       874.20 cm**-1
  18:       906.93 cm**-1
  19:       942.39 cm**-1
  20:       979.34 cm**-1
  21:      1004.98 cm**-1
  22:      1035.23 cm**-1
  23:      1064.96 cm**-1
  24:      1105.91 cm**-1
  25:      1187.11 cm**-1
  26:      1213.90 cm**-1
  27:      1261.59 cm**-1
  28:      1268.61 cm**-1
  29:      1306.77 cm**-1
  30:      1332.03 cm**-1
  31:      1357.16 cm**-1
  32:      1361.97 cm**-1
  33:      1373.97 cm**-1
  34:      1395.38 cm**-1
  35:      1414.13 cm**-1
  36:      1480.34 cm**-1
  37:      1490.75 cm**-1
  38:      1504.51 cm**-1
  39:      1653.61 cm**-1
  40:      1883.23 cm**-1
  41:      2879.30 cm**-1
  42:      3081.10 cm**-1
  43:      3092.08 cm**-1
  44:      3099.33 cm**-1
  45:      3112.28 cm**-1
  46:      3152.25 cm**-1
  47:      3157.65 cm**-1
  48:      3176.72 cm**-1
  49:      3429.78 cm**-1
  50:      3514.33 cm**-1

IR SPECTRUM
-----------

 Mode    freq (cm**-1)   T**2         TX         TY         TZ
-------------------------------------------------------------------
   6:        53.53    6.205444  ( -0.627301   2.363014  -0.477600)
   7:       106.24    4.545251  (  1.261026  -0.675430   1.580778)
   8:       196.16    2.516436  ( -1.045313  -1.163675  -0.263851)
   9:       287.02    6.772200  ( -2.593805  -0.209522   0.021767)
  10:       359.62    4.994252  ( -0.494620   0.941222   1.965631)
  11:       538.79    1.293662  (  0.518463  -0.877805   0.504298)
  12:       622.08    4.148276  (  1.266096   0.641224   1.460859)
  13:       666.75    5.594776  (  0.256454  -1.488997  -1.819861)
  14:       803.79   23.102391  (  1.939016   2.397107   3.687341)
  15:       833.03    1.309049  (  0.493536  -0.991082   0.288492)
  16:       852.71    2.396039  (  0.882037  -0.808346   0.982154)
  17:       874.20   16.279001  ( -2.773522  -1.472411  -2.533493)
  18:       906.93    2.461069  (  1.188723  -0.174230  -1.008786)
  19:       942.39    4.914057  ( -1.921338   0.422475   1.021779)
  20:       979.34    1.804496  (  0.095221   0.123103   1.334269)
  21:      1004.98    1.934376  ( -0.018517  -1.309094   0.469368)
  22:      1035.23   24.236263  (  1.741371  -1.457776   4.367926)
  23:      1064.96    2.976328  (  0.905477   0.128396   1.462858)
  24:      1105.91    6.902036  (  0.325832  -0.052546   2.606359)
  25:      1187.11    3.913855  (  0.049008  -0.925863  -1.747635)
  26:      1213.90    4.357149  ( -2.010670  -0.016040   0.560443)
  27:      1261.59   19.762475  ( -0.008946  -0.080963  -4.444754)
  28:      1268.61   10.334782  ( -0.888235   0.080302  -3.088588)
  29:      1306.77    2.641826  (  1.062059   0.305089   1.191964)
  30:      1332.03    0.403472  (  0.250970  -0.188173  -0.552338)
  31:      1357.16   22.234989  (  0.336549   3.627670  -2.993615)
  32:      1361.97    7.440224  ( -0.392530   2.100682  -1.695075)
  33:      1373.97   13.844781  (  0.950182   3.038787  -1.925541)
  34:      1395.38    3.615529  ( -0.582143   1.345387  -1.211022)
  35:      1414.13   17.430060  ( -1.120558   2.115393  -3.420457)
  36:      1480.34   15.467260  ( -2.191542  -3.231709   0.469532)
  37:      1490.75   16.484572  ( -3.099717   1.563710   2.105026)
  38:      1504.51    5.205597  ( -1.279936   0.424524  -1.840419)
  39:      1653.61   56.469961  ( -7.263796  -0.871508   1.716888)
  40:      1883.23  124.397283  ( -4.607483   0.688457  10.133825)
  41:      2879.30   61.354727  ( -7.346455  -2.699762   0.309203)
  42:      3081.10    0.375330  (  0.121376   0.570956   0.186030)
  43:      3092.08   10.740640  (  0.673443   2.246504   2.289178)
  44:      3099.33    0.161053  (  0.326441  -0.181526  -0.146757)
  45:      3112.28    1.836748  ( -0.475493   0.324217   1.227004)
  46:      3152.25    2.410828  ( -0.934839  -0.112540   1.234601)
  47:      3157.65    0.559684  ( -0.250984  -0.410049   0.573193)
  48:      3176.72    0.122452  (  0.042180   0.346218   0.028391)
  49:      3429.78   45.115350  ( -5.970735  -2.346343  -1.990062)
  50:      3514.33   95.122529  ( -3.898011   6.392946   6.249663)

--------------------------
THERMOCHEMISTRY AT 298.15K
--------------------------

Temperature         ... 298.15 K
Pressure            ... 1.00 atm
Total Mass          ... 100.14 AMU

Throughout the following assumptions are being made:
  (1) The electronic state is orbitally nondegenerate
  (2) There are no thermally accessible electronically excited states
  (3) Hindered rotations indicated by low frequency modes) are not
      treated as such but are treated as vibrations and this may
      case some error
  (4) All equations used are the standard statistical mechanics
      equations for an ideal gas
  (5) All vibrations are strinctly harmonic

------------
INNER ENERGY
------------

The inner energy is: U= E(el) + E(ZPE) + E(vib) + E(rot) + E(trans)
    E(el)   - is the total energy from the electronic structure calculation
              = E(kin-el) + E(nuc-el) + E(el-el) + E(nuc-nuc)
    E(ZPE)  - the the zero temperature vibrational energy from the frequency calculation
    E(vib)  - the the finite temperature correction to E(ZPE) due to population
              of excietd vibrational states
    E(rot)  - is the rotational thermal energy
    E(trans)- is the translational thermal energy

Summary of contributions to the inner energy U:
Electronic energy                ...   -326.00771558 Eh
Zero point energy                ...      0.15357933 Eh      96.37 kcal/mol
Thermal vibrational correction   ...      0.00404622 Eh       2.54 kcal/mol
Thermal rotational correction    ...      0.00141627 Eh       0.89 kcal/mol
Thermal translational correction ...      0.00141627 Eh       0.89 kcal/mol
-----------------------------------------------------------------------
Total thermal energy                   -325.84725749 Eh

Summary of corrections to the electronic energy:
(perhaps to be used in another calculation)
Total thermal correction                  0.00687876 Eh       4.32 kcal/mol
Non-thermal (ZPE) correction              0.15357933 Eh      96.37 kcal/mol
-----------------------------------------------------------------------
Total correction                          0.16045809 Eh     100.69 kcal/mol

--------
ENTHALPY
--------

The enthalpy is H = U + kB*T
                kB is Boltzmann's constant
Total free energy                 ...   -325.84725749 Eh
Thermal Enthalpy correction       ...      0.00094421 Eh       0.59 kcal/mol
-----------------------------------------------------------------------
Total Enthalpy                    ...   -325.84631328 Eh

-------
ENTROPY
-------

The entropy contributions are T*S = T*(S(el)+S(vib)+S(rot)+S(trans)
     S(el)   - electronic entropy
     S(vib)  - vibrational entropy
     S(rot)  - rotational entropy
     S(trans)- translational entropy
The entropies will be listed as mutliplied by the temperature to get
units of energy

Electronic entropy                ...      0.00000000 Eh      0.00 kcal/mol
Vibrational entropy               ...      0.00752707 Eh      4.72 kcal/mol
Rotational entropy                ...      0.01193279 Eh      7.49 kcal/mol
Translational entropy             ...      0.01887324 Eh     11.84 kcal/mol
-----------------------------------------------------------------------
Final entropy term                ...      0.03833310 Eh     24.05 kcal/mol

CAUTION: The rotational entropy is not quite correctly treated here
         because it includes a symmetry number that is not yet correctly
         implemented in ORCA!
For a nonlinear molecule the correct rotational entropy is:
    S(rot) = R*(ln(qrot/sn)+1.5)
    R    = 8.31441 J/mol/K = 1.987191683e-3 kcal/mol/K
    qrot = 206252.6495333
    sn is the rotational symmetry number. We have assumed 3 here
       if it is different for your molecule then you should correct
       the printed rotational entropy by manually evaluating the equation
       as given above

For convenience we print out the resulting values for sn=1 - 12:
 sn= 1  qrot/sn=  206252.6495 T*S(rot)=     8.14 kcal/mol T*S(tot)=    24.71 kcal/mol
 sn= 2  qrot/sn=  103126.3248 T*S(rot)=     7.73 kcal/mol T*S(tot)=    24.29 kcal/mol
 sn= 3  qrot/sn=   68750.8832 T*S(rot)=     7.49 kcal/mol T*S(tot)=    24.05 kcal/mol
 sn= 4  qrot/sn=   51563.1624 T*S(rot)=     7.32 kcal/mol T*S(tot)=    23.88 kcal/mol
 sn= 5  qrot/sn=   41250.5299 T*S(rot)=     7.19 kcal/mol T*S(tot)=    23.75 kcal/mol
 sn= 6  qrot/sn=   34375.4416 T*S(rot)=     7.08 kcal/mol T*S(tot)=    23.64 kcal/mol
 sn= 7  qrot/sn=   29464.6642 T*S(rot)=     6.99 kcal/mol T*S(tot)=    23.55 kcal/mol
 sn= 8  qrot/sn=   25781.5812 T*S(rot)=     6.91 kcal/mol T*S(tot)=    23.47 kcal/mol
 sn= 9  qrot/sn=   22916.9611 T*S(rot)=     6.84 kcal/mol T*S(tot)=    23.40 kcal/mol
 sn=10  qrot/sn=   20625.2650 T*S(rot)=     6.77 kcal/mol T*S(tot)=    23.34 kcal/mol
 sn=11  qrot/sn=   18750.2409 T*S(rot)=     6.72 kcal/mol T*S(tot)=    23.28 kcal/mol
 sn=12  qrot/sn=   17187.7208 T*S(rot)=     6.67 kcal/mol T*S(tot)=    23.23 kcal/mol

-------------------
GIBBS FREE ENTHALPY
-------------------

The Gibbs free enthalpy is G = H - T*S

Total enthalpy                    ...   -325.84631328 Eh
Total entropy correction          ...     -0.03833310 Eh    -24.05 kcal/mol
-----------------------------------------------------------------------
Final Gibbs free enthalpy         ...   -325.88464638 Eh

For completeness - the Gibbs free enthalpy minus the electronic energy
G-E(el)                           ...      0.12306920 Eh     77.23 kcal/mol

                             ****ORCA TERMINATED NORMALLY****
TOTAL RUN TIME: 0 days 0 hours 38 minutes 29 seconds 703 msec
