                         Program Version 3.0.3 - RELEASE   -
|  1> ! NORI PBE0 def2-TZVP UseSym TightOPT Freq TightSCF Grid3 FinalGrid5 XYZFile
|  2> % pal
|  3>     nprocs 8
|  4> end
|  5> %method
|  6>     SymThresh 5.0e-2
|  7> end
|  8> % geom
|  9>     MaxIter 10
| 10> end
| 11> % maxcore 2000
| 12> % output
| 13>     printlevel mini
| 14>     print[ P_Basis ] 0
| 15>     print[ P_SCFInfo ] 1
| 16>     print[ P_SCFIterInfo ] 1
| 17>     print[ P_OrbEn ] 0
| 18>     print[ P_Cartesian ] 0
| 19> end
| 20> % elprop
| 21>     Dipole false
| 22> end
| 23> *xyz 1 1
| 24>  O        3.0793046922    -1.0169615410    -0.7479019666
| 25>  C        2.4870604112     0.0872526734    -0.1107059906
| 26>  C        2.8842219678    -0.0018294848     1.3470527412
| 27>  C        2.2057387856     1.0018027147     2.2722118703
| 28>  C        2.4477536583     0.4270806540     3.6535074095
| 29>  N        2.4105568333    -1.0777542397     3.4414666827
| 30>  C        2.4883685312    -1.3421555216     1.9477579935
| 31>  H        2.9133389106    -0.9777332766    -1.6936204978
| 32>  H        1.3895631160     0.0618819433    -0.1950496273
| 33>  H        2.8339905968     1.0402790702    -0.5275819772
| 34>  H        3.9722897460     0.1114788287     1.4132783690
| 35>  H        1.1340997817     1.0600236772     2.0579151876
| 36>  H        2.6166160158     2.0078977523     2.1911085088
| 37>  H        1.7119284204     0.6984757813     4.4083730420
| 38>  H        3.4425138250     0.6715619508     4.0250296977
| 39>  H        3.1834951323    -1.5255235553     3.9307394610
| 40>  H        1.5579943961    -1.4783401277     3.8285980638
| 41>  H        3.1871472729    -2.1531883291     1.7582497039
| 42>  H        1.4942679068    -1.6465189699     1.6180613285
| 43> *
| 44>
| 45>                          ****END OF INPUT****
 Total Charge           Charge          ....    1
 Multiplicity           Mult            ....    1
 Number of Electrons    NEL             ....   56
FINAL SINGLE POINT ENERGY      -327.234356901238
FINAL SINGLE POINT ENERGY      -327.234358828080
FINAL SINGLE POINT ENERGY      -327.234362085524
FINAL SINGLE POINT ENERGY      -327.234363452474
FINAL SINGLE POINT ENERGY      -327.234364992650

CARTESIAN COORDINATES (ANGSTROEM)
---------------------------------
  O      0.004172    0.008471    2.552264
  C     -0.914665    0.301685    1.530050
  C     -0.346085   -0.299158    0.262477
  C     -1.091576    0.053512   -1.019387
  C     -0.105355   -0.308166   -2.112366
  N      1.254654   -0.007511   -1.501474
  C      1.060366    0.210881   -0.011434
  H     -0.353133    0.277416    3.402718
  H     -1.039123    1.387340    1.397592
  H     -1.904027   -0.127914    1.727063
  H     -0.312714   -1.387894    0.383874
  H     -1.326259    1.121991   -1.045929
  H     -2.025062   -0.495933   -1.139279
  H     -0.209947    0.252230   -3.039567
  H     -0.123480   -1.373655   -2.339117
  H      1.899852   -0.776451   -1.674136
  H      1.672033    0.816563   -1.930381
  H      1.847967   -0.299876    0.536984
  H      1.137230    1.283156    0.173480

FINAL SINGLE POINT ENERGY      -327.234365807695
                    ***********************HURRAY********************
 Multiplicity           Mult            ....    1
 Number of Electrons    NEL             ....   56
 Basis Dimension        Dim             ....  289
FINAL SINGLE POINT ENERGY      -327.234366922794

VIBRATIONAL FREQUENCIES
-----------------------

   0:         0.00 cm**-1
   1:         0.00 cm**-1
   2:         0.00 cm**-1
   3:         0.00 cm**-1
   4:         0.00 cm**-1
   5:         0.00 cm**-1
   6:        52.91 cm**-1
   7:       108.01 cm**-1
   8:       160.96 cm**-1
   9:       222.72 cm**-1
  10:       298.01 cm**-1
  11:       414.59 cm**-1
  12:       420.43 cm**-1
  13:       575.04 cm**-1
  14:       643.57 cm**-1
  15:       800.97 cm**-1
  16:       838.78 cm**-1
  17:       861.54 cm**-1
  18:       899.23 cm**-1
  19:       918.13 cm**-1
  20:       965.70 cm**-1
  21:       976.38 cm**-1
  22:      1020.05 cm**-1
  23:      1076.13 cm**-1
  24:      1104.23 cm**-1
  25:      1112.78 cm**-1
  26:      1141.18 cm**-1
  27:      1213.98 cm**-1
  28:      1229.66 cm**-1
  29:      1249.34 cm**-1
  30:      1262.57 cm**-1
  31:      1286.32 cm**-1
  32:      1307.47 cm**-1
  33:      1327.97 cm**-1
  34:      1352.88 cm**-1
  35:      1361.35 cm**-1
  36:      1370.19 cm**-1
  37:      1392.33 cm**-1
  38:      1409.06 cm**-1
  39:      1460.94 cm**-1
  40:      1486.15 cm**-1
  41:      1494.88 cm**-1
  42:      1504.90 cm**-1
  43:      1519.85 cm**-1
  44:      1657.80 cm**-1
  45:      2990.80 cm**-1
  46:      3050.68 cm**-1
  47:      3062.81 cm**-1
  48:      3074.72 cm**-1
  49:      3109.43 cm**-1
  50:      3113.80 cm**-1
  51:      3147.85 cm**-1
  52:      3176.45 cm**-1
  53:      3186.10 cm**-1
  54:      3483.53 cm**-1
  55:      3536.65 cm**-1
  56:      3869.42 cm**-1

IR SPECTRUM
-----------

 Mode    freq (cm**-1)   T**2         TX         TY         TZ
-------------------------------------------------------------------
   6:        52.91    6.654048  ( -0.146207   2.502343  -0.609058)
   7:       108.01    3.410516  (  0.379815   1.147490  -1.396253)
   8:       160.96    6.757043  ( -0.319817  -1.022344   2.368454)
   9:       222.72   13.055191  ( -1.597914  -2.736656  -1.735677)
  10:       298.01  120.763604  ( -4.425238  -9.903488   1.761189)
  11:       414.59    2.596641  (  1.023127   0.543815  -1.119874)
  12:       420.43    6.541811  (  0.734212  -0.815829   2.310231)
  13:       575.04    7.059545  ( -0.925145  -1.034027  -2.265930)
  14:       643.57    1.707388  ( -1.135417   0.428589  -0.484282)
  15:       800.97    9.145036  ( -0.712129   2.577767  -1.411745)
  16:       838.78    2.788661  ( -0.128269   0.216296  -1.650886)
  17:       861.54    5.111943  ( -1.752393   0.050942   1.427749)
  18:       899.23    4.331066  ( -1.633966  -0.778040   1.027558)
  19:       918.13    3.102881  ( -0.079757   0.100201   1.756838)
  20:       965.70    3.965346  (  1.467235  -0.598343   1.206049)
  21:       976.38    2.172486  (  0.529989   1.215029   0.644440)
  22:      1020.05   10.594788  (  2.569500  -0.204229   1.987650)
  23:      1076.13    2.232860  (  1.060263  -0.004607   1.052940)
  24:      1104.23    7.657804  (  1.686418  -1.001644   1.952052)
  25:      1112.78   71.176136  ( -3.923081   1.033260  -7.397158)
  26:      1141.18   20.248551  ( -2.463655   0.257169  -3.756703)
  27:      1213.98    2.099090  ( -0.715563  -1.152345   0.509080)
  28:      1229.66   15.416270  (  3.460456  -1.130993   1.470499)
  29:      1249.34   14.908313  (  2.635746   1.002803   2.637336)
  30:      1262.57   13.356918  (  2.021512  -2.787399   1.225076)
  31:      1286.32    3.059780  (  1.171006  -1.259194   0.320865)
  32:      1307.47   28.733220  (  3.339246  -1.102640   4.045596)
  33:      1327.97    2.777505  (  0.391681   0.167868   1.611183)
  34:      1352.88    6.693723  (  0.974173   0.941474   2.204164)
  35:      1361.35   38.366104  (  3.096542  -0.133970   5.362796)
  36:      1370.19    0.675057  (  0.705809   0.419210  -0.033967)
  37:      1392.33    5.429718  (  1.181758   0.205369   1.997746)
  38:      1409.06    3.456256  (  0.584108   0.362015   1.727431)
  39:      1460.94    8.853803  (  1.381238  -0.060056  -2.634839)
  40:      1486.15   12.291404  ( -3.408233   0.816579  -0.092477)
  41:      1494.88   11.012661  ( -0.901367  -2.723029  -1.668925)
  42:      1504.90    4.072580  (  0.237304   0.399748   1.963789)
  43:      1519.85    4.773396  (  0.699562  -1.635321  -1.268752)
  44:      1657.80   61.638391  (  6.774896   0.373273  -3.949663)
  45:      2990.80   36.554571  (  3.134334  -4.677805   2.201968)
  46:      3050.68    9.121673  ( -2.996476  -0.225990   0.302872)
  47:      3062.81   13.110767  ( -2.787203  -2.305091   0.169761)
  48:      3074.72   10.964001  (  0.343773  -3.270003   0.391026)
  49:      3109.43    3.180228  ( -0.378773  -1.742625   0.004347)
  50:      3113.80    2.017271  ( -0.383182   0.742561   1.148497)
  51:      3147.85    0.796373  ( -0.074797   0.776746   0.432949)
  52:      3176.45    0.467621  ( -0.038523   0.516872  -0.446072)
  53:      3186.10    0.224536  (  0.077360   0.179686   0.431583)
  54:      3483.53   70.299943  ( -7.209824  -0.218685   4.274407)
  55:      3536.65   82.533293  ( -1.255317   8.880603  -1.446503)
  56:      3869.42   92.737303  (  1.401852  -1.544886  -9.401353)

--------------------------
THERMOCHEMISTRY AT 298.15K
--------------------------

Temperature         ... 298.15 K
Pressure            ... 1.00 atm
Total Mass          ... 102.16 AMU

Throughout the following assumptions are being made:
  (1) The electronic state is orbitally nondegenerate
  (2) There are no thermally accessible electronically excited states
  (3) Hindered rotations indicated by low frequency modes) are not
      treated as such but are treated as vibrations and this may
      case some error
  (4) All equations used are the standard statistical mechanics
      equations for an ideal gas
  (5) All vibrations are strinctly harmonic

------------
INNER ENERGY
------------

The inner energy is: U= E(el) + E(ZPE) + E(vib) + E(rot) + E(trans)
    E(el)   - is the total energy from the electronic structure calculation
              = E(kin-el) + E(nuc-el) + E(el-el) + E(nuc-nuc)
    E(ZPE)  - the the zero temperature vibrational energy from the frequency calculation
    E(vib)  - the the finite temperature correction to E(ZPE) due to population
              of excietd vibrational states
    E(rot)  - is the rotational thermal energy
    E(trans)- is the translational thermal energy

Summary of contributions to the inner energy U:
Electronic energy                ...   -327.23436692 Eh
Zero point energy                ...      0.17838327 Eh     111.94 kcal/mol
Thermal vibrational correction   ...      0.00470408 Eh       2.95 kcal/mol
Thermal rotational correction    ...      0.00141627 Eh       0.89 kcal/mol
Thermal translational correction ...      0.00141627 Eh       0.89 kcal/mol
-----------------------------------------------------------------------
Total thermal energy                   -327.04844703 Eh

Summary of corrections to the electronic energy:
(perhaps to be used in another calculation)
Total thermal correction                  0.00753662 Eh       4.73 kcal/mol
Non-thermal (ZPE) correction              0.17838327 Eh     111.94 kcal/mol
-----------------------------------------------------------------------
Total correction                          0.18591989 Eh     116.67 kcal/mol

--------
ENTHALPY
--------

The enthalpy is H = U + kB*T
                kB is Boltzmann's constant
Total free energy                 ...   -327.04844703 Eh
Thermal Enthalpy correction       ...      0.00094421 Eh       0.59 kcal/mol
-----------------------------------------------------------------------
Total Enthalpy                    ...   -327.04750282 Eh

-------
ENTROPY
-------

The entropy contributions are T*S = T*(S(el)+S(vib)+S(rot)+S(trans)
     S(el)   - electronic entropy
     S(vib)  - vibrational entropy
     S(rot)  - rotational entropy
     S(trans)- translational entropy
The entropies will be listed as mutliplied by the temperature to get
units of energy

Electronic entropy                ...      0.00000000 Eh      0.00 kcal/mol
Vibrational entropy               ...      0.00871030 Eh      5.47 kcal/mol
Rotational entropy                ...      0.01205553 Eh      7.56 kcal/mol
Translational entropy             ...      0.01890147 Eh     11.86 kcal/mol
-----------------------------------------------------------------------
Final entropy term                ...      0.03966729 Eh     24.89 kcal/mol

CAUTION: The rotational entropy is not quite correctly treated here
         because it includes a symmetry number that is not yet correctly
         implemented in ORCA!
For a nonlinear molecule the correct rotational entropy is:
    S(rot) = R*(ln(qrot/sn)+1.5)
    R    = 8.31441 J/mol/K = 1.987191683e-3 kcal/mol/K
    qrot = 234884.5415061
    sn is the rotational symmetry number. We have assumed 3 here
       if it is different for your molecule then you should correct
       the printed rotational entropy by manually evaluating the equation
       as given above

For convenience we print out the resulting values for sn=1 - 12:
 sn= 1  qrot/sn=  234884.5415 T*S(rot)=     8.22 kcal/mol T*S(tot)=    25.54 kcal/mol
 sn= 2  qrot/sn=  117442.2708 T*S(rot)=     7.81 kcal/mol T*S(tot)=    25.13 kcal/mol
 sn= 3  qrot/sn=   78294.8472 T*S(rot)=     7.56 kcal/mol T*S(tot)=    24.89 kcal/mol
 sn= 4  qrot/sn=   58721.1354 T*S(rot)=     7.39 kcal/mol T*S(tot)=    24.72 kcal/mol
 sn= 5  qrot/sn=   46976.9083 T*S(rot)=     7.26 kcal/mol T*S(tot)=    24.59 kcal/mol
 sn= 6  qrot/sn=   39147.4236 T*S(rot)=     7.15 kcal/mol T*S(tot)=    24.48 kcal/mol
 sn= 7  qrot/sn=   33554.9345 T*S(rot)=     7.06 kcal/mol T*S(tot)=    24.39 kcal/mol
 sn= 8  qrot/sn=   29360.5677 T*S(rot)=     6.98 kcal/mol T*S(tot)=    24.31 kcal/mol
 sn= 9  qrot/sn=   26098.2824 T*S(rot)=     6.91 kcal/mol T*S(tot)=    24.24 kcal/mol
 sn=10  qrot/sn=   23488.4542 T*S(rot)=     6.85 kcal/mol T*S(tot)=    24.18 kcal/mol
 sn=11  qrot/sn=   21353.1401 T*S(rot)=     6.80 kcal/mol T*S(tot)=    24.12 kcal/mol
 sn=12  qrot/sn=   19573.7118 T*S(rot)=     6.74 kcal/mol T*S(tot)=    24.07 kcal/mol

-------------------
GIBBS FREE ENTHALPY
-------------------

The Gibbs free enthalpy is G = H - T*S

Total enthalpy                    ...   -327.04750282 Eh
Total entropy correction          ...     -0.03966729 Eh    -24.89 kcal/mol
-----------------------------------------------------------------------
Final Gibbs free enthalpy         ...   -327.08717011 Eh

For completeness - the Gibbs free enthalpy minus the electronic energy
G-E(el)                           ...      0.14719681 Eh     92.37 kcal/mol

                             ****ORCA TERMINATED NORMALLY****
TOTAL RUN TIME: 0 days 0 hours 51 minutes 32 seconds 399 msec
