                         Program Version 3.0.3 - RELEASE   -
|  1> ! NORI PBE0 def2-TZVP UseSym TightOPT Freq TightSCF Grid3 FinalGrid5 XYZFile
|  2> % pal
|  3>     nprocs 8
|  4> end
|  5> %method
|  6>     SymThresh 5.0e-2
|  7> end
|  8> % geom
|  9>     MaxIter 10
| 10> end
| 11> % maxcore 2000
| 12> % output
| 13>     printlevel mini
| 14>     print[ P_Basis ] 0
| 15>     print[ P_SCFInfo ] 1
| 16>     print[ P_SCFIterInfo ] 1
| 17>     print[ P_OrbEn ] 0
| 18>     print[ P_Cartesian ] 0
| 19> end
| 20> % elprop
| 21>     Dipole false
| 22> end
| 23> *xyz 1 1
| 24>  O        2.6541859541     0.9624447290    -0.5483404608
| 25>  C        2.1209862129     0.0163236781    -0.0612895465
| 26>  C        2.8297860243    -0.9523528585     0.8717802510
| 27>  C        2.2275518357    -0.9284159394     2.2799544834
| 28>  C        2.6903092413    -2.2387718170     2.8781605744
| 29>  N        2.5892569267    -3.2079489890     1.7207374527
| 30>  C        2.6503981167    -2.4006428476     0.4323841177
| 31>  H        1.0469495620    -0.2132371321    -0.2433031973
| 32>  H        3.8858266709    -0.6767954082     0.8992889159
| 33>  H        1.1337929554    -0.8862822466     2.2361302964
| 34>  H        2.5701323073    -0.0753091619     2.8647924192
| 35>  H        3.7384492630    -2.2000953363     3.1739541484
| 36>  H        2.0959521836    -2.6117913711     3.7110947165
| 37>  H        3.3331616846    -3.9041929791     1.7582100755
| 38>  H        1.7113814252    -3.7241794721     1.7686418517
| 39>  H        3.4619607768    -2.7808235377    -0.1850695038
| 40>  H        1.7066788597    -2.5577093106    -0.0938265945
| 41> *
| 42>
| 43>                          ****END OF INPUT****
 Total Charge           Charge          ....    1
 Multiplicity           Mult            ....    1
 Number of Electrons    NEL             ....   54
FINAL SINGLE POINT ENERGY      -326.009100674218

CARTESIAN COORDINATES (ANGSTROEM)
---------------------------------
  O     -0.000022   -0.001077    2.768397
  C      0.056583    0.510940    1.695531
  C      0.039987   -0.274862    0.394031
  C     -1.206386    0.034804   -0.440955
  C     -0.813755   -0.415088   -1.831030
  N      0.637504   -0.000251   -1.937239
  C      1.190652    0.119854   -0.524538
  H      0.101504    1.616742    1.571930
  H      0.082247   -1.336756    0.644727
  H     -1.428545    1.107308   -0.427963
  H     -2.089600   -0.492225   -0.081668
  H     -0.845402   -1.500268   -1.928405
  H     -1.376054    0.035106   -2.647862
  H      1.171707   -0.670163   -2.489505
  H      0.714023    0.894319   -2.420043
  H      2.068966   -0.515729   -0.433308
  H      1.493767    1.158763   -0.382254

FINAL SINGLE POINT ENERGY      -326.009101268684
                    ***********************HURRAY********************
 Multiplicity           Mult            ....    1
 Number of Electrons    NEL             ....   54
 Basis Dimension        Dim             ....  277
FINAL SINGLE POINT ENERGY      -326.009101097036

VIBRATIONAL FREQUENCIES
-----------------------

   0:         0.00 cm**-1
   1:         0.00 cm**-1
   2:         0.00 cm**-1
   3:         0.00 cm**-1
   4:         0.00 cm**-1
   5:         0.00 cm**-1
   6:        35.36 cm**-1
   7:        66.26 cm**-1
   8:       167.30 cm**-1
   9:       303.82 cm**-1
  10:       349.50 cm**-1
  11:       422.88 cm**-1
  12:       594.51 cm**-1
  13:       661.95 cm**-1
  14:       804.73 cm**-1
  15:       852.01 cm**-1
  16:       873.71 cm**-1
  17:       896.36 cm**-1
  18:       927.46 cm**-1
  19:       965.58 cm**-1
  20:       986.20 cm**-1
  21:      1032.87 cm**-1
  22:      1047.49 cm**-1
  23:      1091.13 cm**-1
  24:      1123.55 cm**-1
  25:      1211.38 cm**-1
  26:      1235.83 cm**-1
  27:      1265.21 cm**-1
  28:      1298.20 cm**-1
  29:      1318.04 cm**-1
  30:      1334.35 cm**-1
  31:      1359.42 cm**-1
  32:      1366.73 cm**-1
  33:      1395.88 cm**-1
  34:      1398.10 cm**-1
  35:      1408.41 cm**-1
  36:      1484.40 cm**-1
  37:      1494.63 cm**-1
  38:      1503.44 cm**-1
  39:      1656.91 cm**-1
  40:      1872.62 cm**-1
  41:      2887.47 cm**-1
  42:      3063.97 cm**-1
  43:      3101.63 cm**-1
  44:      3107.95 cm**-1
  45:      3109.46 cm**-1
  46:      3154.81 cm**-1
  47:      3173.65 cm**-1
  48:      3177.45 cm**-1
  49:      3475.35 cm**-1
  50:      3528.80 cm**-1

IR SPECTRUM
-----------

 Mode    freq (cm**-1)   T**2         TX         TY         TZ
-------------------------------------------------------------------
   6:        35.36    1.427652  ( -0.607030  -0.996621   0.256735)
   7:        66.26    4.438356  ( -2.045668   0.400572   0.305190)
   8:       167.30    3.002462  ( -0.421772   1.641638   0.359993)
   9:       303.82    1.791299  (  1.207952  -0.518670   0.251264)
  10:       349.50    3.231393  (  0.795555   1.362270   0.861803)
  11:       422.88    2.623887  (  0.022082  -0.016091  -1.619611)
  12:       594.51   13.075134  (  0.391601  -2.952961  -2.049831)
  13:       661.95    5.868739  (  0.586846   1.685672   1.637944)
  14:       804.73    7.821124  (  1.111421  -2.344831  -1.042897)
  15:       852.01    3.994771  (  0.889584  -0.784968   1.608489)
  16:       873.71    9.558859  (  1.169557  -0.485460  -2.820518)
  17:       896.36    3.585796  (  0.370546  -1.411151   1.207122)
  18:       927.46    1.759753  (  0.933126   0.798870  -0.500834)
  19:       965.58    2.717464  ( -1.550087  -0.380321   0.412370)
  20:       986.20    0.664738  (  0.628086   0.190756   0.483590)
  21:      1032.87    8.264359  (  2.294270  -0.670467  -1.597235)
  22:      1047.49   15.078297  (  1.896520   1.055349   3.219899)
  23:      1091.13   46.692496  ( -0.261524  -2.647007  -6.294240)
  24:      1123.55    1.070986  (  0.108924  -0.315469  -0.979592)
  25:      1211.38    5.254496  ( -0.030056   2.110396   0.894327)
  26:      1235.83    1.811397  ( -1.269373  -0.264480   0.360750)
  27:      1265.21    7.429236  (  1.519736   1.994111   1.069185)
  28:      1298.20    7.452060  (  1.481355   1.177162   1.967723)
  29:      1318.04    3.416074  ( -1.557062  -0.159253  -0.982991)
  30:      1334.35    5.050831  (  1.747180   0.473328   1.331974)
  31:      1359.42    2.978558  (  1.621092  -0.381011   0.453264)
  32:      1366.73   34.411331  ( -4.766693  -0.884275  -3.302730)
  33:      1395.88    0.254546  (  0.215129  -0.174774  -0.421568)
  34:      1398.10    8.219467  ( -2.522325  -0.013048  -1.362781)
  35:      1408.41    6.987390  ( -0.177161  -0.847878  -2.497420)
  36:      1484.40   16.195455  ( -3.122782   1.840245   1.748480)
  37:      1494.63   12.685712  (  2.327674   2.534858   0.917682)
  38:      1503.44    3.695033  (  0.422972   0.722045   1.730543)
  39:      1656.91   65.159210  ( -4.037679  -1.843989   6.742111)
  40:      1872.62  205.530958  (  0.085533   3.375269 -13.933097)
  41:      2887.47   59.264477  ( -0.522941  -7.642818   0.760492)
  42:      3063.97    3.740387  (  0.366518  -1.813959   0.561787)
  43:      3101.63    0.509058  ( -0.544677  -0.362020   0.285179)
  44:      3107.95    1.002564  ( -0.323051  -0.641879   0.697276)
  45:      3109.46    1.728015  ( -0.071695  -1.254448  -0.386310)
  46:      3154.81    1.056511  ( -0.747389   0.074458   0.701695)
  47:      3173.65    0.079874  ( -0.169456   0.026052  -0.224677)
  48:      3177.45    0.058172  (  0.151308  -0.180107   0.053287)
  49:      3475.35   73.556939  ( -4.110763  -1.450969   7.386018)
  50:      3528.80   88.299756  ( -2.893925   8.878089   1.050948)

--------------------------
THERMOCHEMISTRY AT 298.15K
--------------------------

Temperature         ... 298.15 K
Pressure            ... 1.00 atm
Total Mass          ... 100.14 AMU

Throughout the following assumptions are being made:
  (1) The electronic state is orbitally nondegenerate
  (2) There are no thermally accessible electronically excited states
  (3) Hindered rotations indicated by low frequency modes) are not
      treated as such but are treated as vibrations and this may
      case some error
  (4) All equations used are the standard statistical mechanics
      equations for an ideal gas
  (5) All vibrations are strinctly harmonic

------------
INNER ENERGY
------------

The inner energy is: U= E(el) + E(ZPE) + E(vib) + E(rot) + E(trans)
    E(el)   - is the total energy from the electronic structure calculation
              = E(kin-el) + E(nuc-el) + E(el-el) + E(nuc-nuc)
    E(ZPE)  - the the zero temperature vibrational energy from the frequency calculation
    E(vib)  - the the finite temperature correction to E(ZPE) due to population
              of excietd vibrational states
    E(rot)  - is the rotational thermal energy
    E(trans)- is the translational thermal energy

Summary of contributions to the inner energy U:
Electronic energy                ...   -326.00910110 Eh
Zero point energy                ...      0.15397395 Eh      96.62 kcal/mol
Thermal vibrational correction   ...      0.00426841 Eh       2.68 kcal/mol
Thermal rotational correction    ...      0.00141627 Eh       0.89 kcal/mol
Thermal translational correction ...      0.00141627 Eh       0.89 kcal/mol
-----------------------------------------------------------------------
Total thermal energy                   -325.84802619 Eh

Summary of corrections to the electronic energy:
(perhaps to be used in another calculation)
Total thermal correction                  0.00710095 Eh       4.46 kcal/mol
Non-thermal (ZPE) correction              0.15397395 Eh      96.62 kcal/mol
-----------------------------------------------------------------------
Total correction                          0.16107490 Eh     101.08 kcal/mol

--------
ENTHALPY
--------

The enthalpy is H = U + kB*T
                kB is Boltzmann's constant
Total free energy                 ...   -325.84802619 Eh
Thermal Enthalpy correction       ...      0.00094421 Eh       0.59 kcal/mol
-----------------------------------------------------------------------
Total Enthalpy                    ...   -325.84708198 Eh

-------
ENTROPY
-------

The entropy contributions are T*S = T*(S(el)+S(vib)+S(rot)+S(trans)
     S(el)   - electronic entropy
     S(vib)  - vibrational entropy
     S(rot)  - rotational entropy
     S(trans)- translational entropy
The entropies will be listed as mutliplied by the temperature to get
units of energy

Electronic entropy                ...      0.00000000 Eh      0.00 kcal/mol
Vibrational entropy               ...      0.00859770 Eh      5.40 kcal/mol
Rotational entropy                ...      0.01201250 Eh      7.54 kcal/mol
Translational entropy             ...      0.01887324 Eh     11.84 kcal/mol
-----------------------------------------------------------------------
Final entropy term                ...      0.03948344 Eh     24.78 kcal/mol

CAUTION: The rotational entropy is not quite correctly treated here
         because it includes a symmetry number that is not yet correctly
         implemented in ORCA!
For a nonlinear molecule the correct rotational entropy is:
    S(rot) = R*(ln(qrot/sn)+1.5)
    R    = 8.31441 J/mol/K = 1.987191683e-3 kcal/mol/K
    qrot = 224422.2349658
    sn is the rotational symmetry number. We have assumed 3 here
       if it is different for your molecule then you should correct
       the printed rotational entropy by manually evaluating the equation
       as given above

For convenience we print out the resulting values for sn=1 - 12:
 sn= 1  qrot/sn=  224422.2350 T*S(rot)=     8.19 kcal/mol T*S(tot)=    25.43 kcal/mol
 sn= 2  qrot/sn=  112211.1175 T*S(rot)=     7.78 kcal/mol T*S(tot)=    25.02 kcal/mol
 sn= 3  qrot/sn=   74807.4117 T*S(rot)=     7.54 kcal/mol T*S(tot)=    24.78 kcal/mol
 sn= 4  qrot/sn=   56105.5587 T*S(rot)=     7.37 kcal/mol T*S(tot)=    24.61 kcal/mol
 sn= 5  qrot/sn=   44884.4470 T*S(rot)=     7.24 kcal/mol T*S(tot)=    24.47 kcal/mol
 sn= 6  qrot/sn=   37403.7058 T*S(rot)=     7.13 kcal/mol T*S(tot)=    24.37 kcal/mol
 sn= 7  qrot/sn=   32060.3193 T*S(rot)=     7.04 kcal/mol T*S(tot)=    24.27 kcal/mol
 sn= 8  qrot/sn=   28052.7794 T*S(rot)=     6.96 kcal/mol T*S(tot)=    24.20 kcal/mol
 sn= 9  qrot/sn=   24935.8039 T*S(rot)=     6.89 kcal/mol T*S(tot)=    24.13 kcal/mol
 sn=10  qrot/sn=   22442.2235 T*S(rot)=     6.82 kcal/mol T*S(tot)=    24.06 kcal/mol
 sn=11  qrot/sn=   20402.0214 T*S(rot)=     6.77 kcal/mol T*S(tot)=    24.01 kcal/mol
 sn=12  qrot/sn=   18701.8529 T*S(rot)=     6.72 kcal/mol T*S(tot)=    23.95 kcal/mol

-------------------
GIBBS FREE ENTHALPY
-------------------

The Gibbs free enthalpy is G = H - T*S

Total enthalpy                    ...   -325.84708198 Eh
Total entropy correction          ...     -0.03948344 Eh    -24.78 kcal/mol
-----------------------------------------------------------------------
Final Gibbs free enthalpy         ...   -325.88656542 Eh

For completeness - the Gibbs free enthalpy minus the electronic energy
G-E(el)                           ...      0.12253568 Eh     76.89 kcal/mol

                             ****ORCA TERMINATED NORMALLY****
TOTAL RUN TIME: 0 days 0 hours 38 minutes 45 seconds 764 msec
