                         Program Version 3.0.3 - RELEASE   -
|  1> ! NORI PBE0 def2-TZVP UseSym TightOPT Freq TightSCF Grid3 FinalGrid5 XYZFile
|  2> % pal
|  3>     nprocs 8
|  4> end
|  5> %method
|  6>     SymThresh 5.0e-2
|  7> end
|  8> % geom
|  9>     MaxIter 10
| 10> end
| 11> % maxcore 2000
| 12> % output
| 13>     printlevel mini
| 14>     print[ P_Basis ] 0
| 15>     print[ P_SCFInfo ] 1
| 16>     print[ P_SCFIterInfo ] 1
| 17>     print[ P_OrbEn ] 0
| 18>     print[ P_Cartesian ] 0
| 19> end
| 20> % elprop
| 21>     Dipole false
| 22> end
| 23> *xyz 1 1
| 24>  O        2.5173589939     1.7803896651     0.7232345845
| 25>  C        2.4825086296     0.7082384991     1.2636245776
| 26>  C        2.1421308910    -0.5063912778     0.4998754696
| 27>  C        2.0937458056    -1.7617152963     0.9364462790
| 28>  C        1.7541888959    -2.7176256703    -0.1551884961
| 29>  N        1.3104244992    -1.7914218353    -1.2676886927
| 30>  C        1.8458705061    -0.4098680314    -0.9635898725
| 31>  H        2.6999855142     0.5718578078     2.3378673971
| 32>  H        2.2997836627    -2.0949773419     1.9456023860
| 33>  H        2.6207086201    -3.2911918245    -0.4969443669
| 34>  H        0.9497909036    -3.4170119820     0.0774621709
| 35>  H        1.6110824342    -2.1240120180    -2.1835788924
| 36>  H        0.2908856081    -1.7568079457    -1.2871800984
| 37>  H        1.1024644482     0.3431743206    -1.2238877627
| 38>  H        2.7419805874    -0.2325970695    -1.5623246829
| 39> *
| 40>
| 41>                          ****END OF INPUT****
 Total Charge           Charge          ....    1
 Multiplicity           Mult            ....    1
 Number of Electrons    NEL             ....   52
FINAL SINGLE POINT ENERGY      -324.786765921729

CARTESIAN COORDINATES (ANGSTROEM)
---------------------------------
  O      0.000320    0.001067    2.570625
  C     -0.787106    0.142192    1.674753
  C     -0.350805    0.044211    0.269585
  C     -1.095338    0.141560   -0.828113
  C     -0.290543   -0.060499   -2.065938
  N      1.128305    0.000190   -1.540870
  C      1.082413   -0.244365   -0.048871
  H     -1.858666    0.347726    1.846233
  H     -2.163599    0.314195   -0.861659
  H     -0.457839   -1.040894   -2.521233
  H     -0.426018    0.702206   -2.834070
  H      1.740108   -0.662143   -2.017462
  H      1.509436    0.930460   -1.714606
  H      1.795836    0.405683    0.457036
  H      1.356359   -1.282201    0.153433

FINAL SINGLE POINT ENERGY      -324.786766118575
                    ***********************HURRAY********************
 Multiplicity           Mult            ....    1
 Number of Electrons    NEL             ....   52
 Basis Dimension        Dim             ....  265
FINAL SINGLE POINT ENERGY      -324.786765826455

VIBRATIONAL FREQUENCIES
-----------------------

   0:         0.00 cm**-1
   1:         0.00 cm**-1
   2:         0.00 cm**-1
   3:         0.00 cm**-1
   4:         0.00 cm**-1
   5:         0.00 cm**-1
   6:       106.86 cm**-1
   7:       125.23 cm**-1
   8:       184.26 cm**-1
   9:       279.89 cm**-1
  10:       437.58 cm**-1
  11:       476.94 cm**-1
  12:       664.44 cm**-1
  13:       721.44 cm**-1
  14:       823.17 cm**-1
  15:       855.34 cm**-1
  16:       880.04 cm**-1
  17:       922.19 cm**-1
  18:       941.57 cm**-1
  19:       984.34 cm**-1
  20:      1023.87 cm**-1
  21:      1043.77 cm**-1
  22:      1065.37 cm**-1
  23:      1179.42 cm**-1
  24:      1197.30 cm**-1
  25:      1273.91 cm**-1
  26:      1283.44 cm**-1
  27:      1313.66 cm**-1
  28:      1377.77 cm**-1
  29:      1385.17 cm**-1
  30:      1396.84 cm**-1
  31:      1421.91 cm**-1
  32:      1485.11 cm**-1
  33:      1493.31 cm**-1
  34:      1649.91 cm**-1
  35:      1723.09 cm**-1
  36:      1809.26 cm**-1
  37:      2992.73 cm**-1
  38:      3080.39 cm**-1
  39:      3095.74 cm**-1
  40:      3140.33 cm**-1
  41:      3157.69 cm**-1
  42:      3236.83 cm**-1
  43:      3467.48 cm**-1
  44:      3521.59 cm**-1

IR SPECTRUM
-----------

 Mode    freq (cm**-1)   T**2         TX         TY         TZ
-------------------------------------------------------------------
   6:       106.86    0.888351  ( -0.346890  -0.795641   0.367388)
   7:       125.23    7.306973  ( -0.385612   2.540664   0.838633)
   8:       184.26   17.540843  ( -2.001379   0.108990   3.677424)
   9:       279.89   11.578469  (  0.508516   3.358648  -0.198406)
  10:       437.58    7.881248  ( -0.583378  -2.730193  -0.294898)
  11:       476.94    0.475482  ( -0.556979  -0.257901   0.314236)
  12:       664.44    2.878678  (  0.138838  -1.678210   0.207399)
  13:       721.44   30.193723  (  2.434653  -1.813555  -4.580088)
  14:       823.17   22.648689  (  0.542383   4.704397  -0.472392)
  15:       855.34    0.730004  ( -0.372545  -0.757143   0.133972)
  16:       880.04    6.124298  (  1.770089   0.493387  -1.657605)
  17:       922.19    0.063471  ( -0.126781  -0.083303   0.201143)
  18:       941.57    0.315302  (  0.489256  -0.141893  -0.236213)
  19:       984.34    3.792979  ( -0.643520   0.190976  -1.828220)
  20:      1023.87    9.198116  (  1.846991   2.229785   0.902662)
  21:      1043.77    9.114930  ( -2.377573   1.092996  -1.505800)
  22:      1065.37    5.907181  ( -0.312861   2.133876  -1.120657)
  23:      1179.42    1.193191  (  0.789011  -0.300301   0.693161)
  24:      1197.30   39.498803  (  1.542832  -0.661739  -6.056449)
  25:      1273.91    4.187031  ( -1.596654   1.118272  -0.622250)
  26:      1283.44    7.604083  (  1.259993   0.759247   2.332390)
  27:      1313.66   52.028224  ( -0.774695   0.214314  -7.168134)
  28:      1377.77    9.460392  (  1.550123  -0.101829   2.654645)
  29:      1385.17   20.785494  (  0.952373  -0.263731   4.450722)
  30:      1396.84    9.585473  (  3.037983  -0.596067   0.028900)
  31:      1421.91    5.912276  (  2.003460  -0.244664   1.355936)
  32:      1485.11   19.053856  ( -2.233468   0.131587  -3.748088)
  33:      1493.31    7.126989  ( -1.857126   1.418245   1.290989)
  34:      1649.91   67.530329  ( -6.744299  -1.953233   4.269619)
  35:      1723.09   16.109582  ( -0.161068  -0.122830   4.008560)
  36:      1809.26  169.452475  ( -5.314698   0.909631 -11.848166)
  37:      2992.73   35.142936  (  5.508997  -1.092515  -1.897446)
  38:      3080.39    0.218207  (  0.146459   0.010458  -0.443450)
  39:      3095.74    0.378431  ( -0.061570   0.017134   0.611838)
  40:      3140.33    0.528122  ( -0.030351  -0.726077  -0.003509)
  41:      3157.69    1.522354  (  0.527979   0.950122   0.583832)
  42:      3236.83    9.949236  ( -3.049269   0.493357  -0.638588)
  43:      3467.48   76.862902  ( -7.027885  -1.954537   4.863283)
  44:      3521.59   92.960391  ( -1.491237   9.354388   1.797784)

--------------------------
THERMOCHEMISTRY AT 298.15K
--------------------------

Temperature         ... 298.15 K
Pressure            ... 1.00 atm
Total Mass          ... 98.12 AMU

Throughout the following assumptions are being made:
  (1) The electronic state is orbitally nondegenerate
  (2) There are no thermally accessible electronically excited states
  (3) Hindered rotations indicated by low frequency modes) are not
      treated as such but are treated as vibrations and this may
      case some error
  (4) All equations used are the standard statistical mechanics
      equations for an ideal gas
  (5) All vibrations are strinctly harmonic

------------
INNER ENERGY
------------

The inner energy is: U= E(el) + E(ZPE) + E(vib) + E(rot) + E(trans)
    E(el)   - is the total energy from the electronic structure calculation
              = E(kin-el) + E(nuc-el) + E(el-el) + E(nuc-nuc)
    E(ZPE)  - the the zero temperature vibrational energy from the frequency calculation
    E(vib)  - the the finite temperature correction to E(ZPE) due to population
              of excietd vibrational states
    E(rot)  - is the rotational thermal energy
    E(trans)- is the translational thermal energy

Summary of contributions to the inner energy U:
Electronic energy                ...   -324.78676583 Eh
Zero point energy                ...      0.13035491 Eh      81.80 kcal/mol
Thermal vibrational correction   ...      0.00372822 Eh       2.34 kcal/mol
Thermal rotational correction    ...      0.00141627 Eh       0.89 kcal/mol
Thermal translational correction ...      0.00141627 Eh       0.89 kcal/mol
-----------------------------------------------------------------------
Total thermal energy                   -324.64985016 Eh

Summary of corrections to the electronic energy:
(perhaps to be used in another calculation)
Total thermal correction                  0.00656076 Eh       4.12 kcal/mol
Non-thermal (ZPE) correction              0.13035491 Eh      81.80 kcal/mol
-----------------------------------------------------------------------
Total correction                          0.13691567 Eh      85.92 kcal/mol

--------
ENTHALPY
--------

The enthalpy is H = U + kB*T
                kB is Boltzmann's constant
Total free energy                 ...   -324.64985016 Eh
Thermal Enthalpy correction       ...      0.00094421 Eh       0.59 kcal/mol
-----------------------------------------------------------------------
Total Enthalpy                    ...   -324.64890595 Eh

-------
ENTROPY
-------

The entropy contributions are T*S = T*(S(el)+S(vib)+S(rot)+S(trans)
     S(el)   - electronic entropy
     S(vib)  - vibrational entropy
     S(rot)  - rotational entropy
     S(trans)- translational entropy
The entropies will be listed as mutliplied by the temperature to get
units of energy

Electronic entropy                ...      0.00000000 Eh      0.00 kcal/mol
Vibrational entropy               ...      0.00651898 Eh      4.09 kcal/mol
Rotational entropy                ...      0.01191043 Eh      7.47 kcal/mol
Translational entropy             ...      0.01884443 Eh     11.83 kcal/mol
-----------------------------------------------------------------------
Final entropy term                ...      0.03727384 Eh     23.39 kcal/mol

CAUTION: The rotational entropy is not quite correctly treated here
         because it includes a symmetry number that is not yet correctly
         implemented in ORCA!
For a nonlinear molecule the correct rotational entropy is:
    S(rot) = R*(ln(qrot/sn)+1.5)
    R    = 8.31441 J/mol/K = 1.987191683e-3 kcal/mol/K
    qrot = 201425.0746695
    sn is the rotational symmetry number. We have assumed 3 here
       if it is different for your molecule then you should correct
       the printed rotational entropy by manually evaluating the equation
       as given above

For convenience we print out the resulting values for sn=1 - 12:
 sn= 1  qrot/sn=  201425.0747 T*S(rot)=     8.12 kcal/mol T*S(tot)=    24.04 kcal/mol
 sn= 2  qrot/sn=  100712.5373 T*S(rot)=     7.71 kcal/mol T*S(tot)=    23.63 kcal/mol
 sn= 3  qrot/sn=   67141.6916 T*S(rot)=     7.47 kcal/mol T*S(tot)=    23.39 kcal/mol
 sn= 4  qrot/sn=   50356.2687 T*S(rot)=     7.30 kcal/mol T*S(tot)=    23.22 kcal/mol
 sn= 5  qrot/sn=   40285.0149 T*S(rot)=     7.17 kcal/mol T*S(tot)=    23.09 kcal/mol
 sn= 6  qrot/sn=   33570.8458 T*S(rot)=     7.06 kcal/mol T*S(tot)=    22.98 kcal/mol
 sn= 7  qrot/sn=   28775.0107 T*S(rot)=     6.97 kcal/mol T*S(tot)=    22.89 kcal/mol
 sn= 8  qrot/sn=   25178.1343 T*S(rot)=     6.89 kcal/mol T*S(tot)=    22.81 kcal/mol
 sn= 9  qrot/sn=   22380.5639 T*S(rot)=     6.82 kcal/mol T*S(tot)=    22.74 kcal/mol
 sn=10  qrot/sn=   20142.5075 T*S(rot)=     6.76 kcal/mol T*S(tot)=    22.68 kcal/mol
 sn=11  qrot/sn=   18311.3704 T*S(rot)=     6.70 kcal/mol T*S(tot)=    22.62 kcal/mol
 sn=12  qrot/sn=   16785.4229 T*S(rot)=     6.65 kcal/mol T*S(tot)=    22.57 kcal/mol

-------------------
GIBBS FREE ENTHALPY
-------------------

The Gibbs free enthalpy is G = H - T*S

Total enthalpy                    ...   -324.64890595 Eh
Total entropy correction          ...     -0.03727384 Eh    -23.39 kcal/mol
-----------------------------------------------------------------------
Final Gibbs free enthalpy         ...   -324.68617979 Eh

For completeness - the Gibbs free enthalpy minus the electronic energy
G-E(el)                           ...      0.10058604 Eh     63.12 kcal/mol

                             ****ORCA TERMINATED NORMALLY****
TOTAL RUN TIME: 0 days 0 hours 29 minutes 33 seconds 760 msec
