                         Program Version 3.0.3 - RELEASE   -
|  1> ! NORI PBE0 def2-TZVP UseSym TightOPT Freq TightSCF Grid3 FinalGrid5 XYZFile
|  2> % pal
|  3>     nprocs 8
|  4> end
|  5> %method
|  6>     SymThresh 5.0e-2
|  7> end
|  8> % geom
|  9>     MaxIter 10
| 10> end
| 11> % maxcore 2000
| 12> % output
| 13>     printlevel mini
| 14>     print[ P_Basis ] 0
| 15>     print[ P_SCFInfo ] 1
| 16>     print[ P_SCFIterInfo ] 1
| 17>     print[ P_OrbEn ] 0
| 18>     print[ P_Cartesian ] 0
| 19> end
| 20> % elprop
| 21>     Dipole false
| 22> end
| 23> *xyz 1 1
| 24>  O        0.9007706149    -0.1258592410     0.1709858515
| 25>  C        2.3048462292    -0.2249981473     0.1961242278
| 26>  C        2.7986391511     0.8643622694     1.0819410733
| 27>  C        3.7740849181     0.8375587442     1.9810214531
| 28>  C        3.9951344207     2.1723693582     2.6112383445
| 29>  N        2.7371404648     2.9097007704     2.2144451354
| 30>  C        2.1876053027     2.2299419656     0.9857753636
| 31>  H        0.5429453847    -0.7755286695    -0.4402033942
| 32>  H        2.7342245986    -0.0881894294    -0.8081172989
| 33>  H        2.6513783296    -1.1923867613     0.5764110856
| 34>  H        4.3838387891    -0.0186473015     2.2360646010
| 35>  H        4.8553748008     2.7088699584     2.2001194536
| 36>  H        4.0793702827     2.1650286707     3.6987393106
| 37>  H        2.0544760200     2.8235436038     2.9678906755
| 38>  H        2.8997538258     3.9055940612     2.0683693980
| 39>  H        1.0985806365     2.2289378883     1.0160497062
| 40>  H        2.5177162307     2.7815222599     0.1004850134
| 41> *
| 42>
| 43>                          ****END OF INPUT****
 Total Charge           Charge          ....    1
 Multiplicity           Mult            ....    1
 Number of Electrons    NEL             ....   54
FINAL SINGLE POINT ENERGY      -326.005332021025

CARTESIAN COORDINATES (ANGSTROEM)
---------------------------------
  O      0.000189   -0.000092    2.461646
  C     -1.031762    0.216208    1.528640
  C     -0.432341    0.051855    0.176189
  C     -0.936356   -0.541140   -0.898566
  C     -0.031171   -0.428455   -2.080001
  N      1.264991   -0.000420   -1.432011
  C      0.916601    0.639453   -0.111804
  H     -0.331012    0.155766    3.350323
  H     -1.442098    1.233753    1.613847
  H     -1.862241   -0.488176    1.649722
  H     -1.897531   -1.032713   -0.964809
  H     -0.337113    0.347180   -2.788305
  H      0.131723   -1.355349   -2.631260
  H      1.832316   -0.829096   -1.253334
  H      1.813508    0.616359   -2.030420
  H      1.672976    0.393629    0.632389
  H      0.887563    1.725102   -0.243086

FINAL SINGLE POINT ENERGY      -326.005332807549
                    ***********************HURRAY********************
 Multiplicity           Mult            ....    1
 Number of Electrons    NEL             ....   54
 Basis Dimension        Dim             ....  277
FINAL SINGLE POINT ENERGY      -326.005333070240

VIBRATIONAL FREQUENCIES
-----------------------

   0:         0.00 cm**-1
   1:         0.00 cm**-1
   2:         0.00 cm**-1
   3:         0.00 cm**-1
   4:         0.00 cm**-1
   5:         0.00 cm**-1
   6:        76.62 cm**-1
   7:       133.73 cm**-1
   8:       195.05 cm**-1
   9:       266.10 cm**-1
  10:       292.09 cm**-1
  11:       391.39 cm**-1
  12:       508.67 cm**-1
  13:       608.08 cm**-1
  14:       690.59 cm**-1
  15:       824.36 cm**-1
  16:       856.87 cm**-1
  17:       885.32 cm**-1
  18:       918.70 cm**-1
  19:       935.36 cm**-1
  20:       991.09 cm**-1
  21:      1012.72 cm**-1
  22:      1048.75 cm**-1
  23:      1069.10 cm**-1
  24:      1108.32 cm**-1
  25:      1171.97 cm**-1
  26:      1186.03 cm**-1
  27:      1232.93 cm**-1
  28:      1247.36 cm**-1
  29:      1277.25 cm**-1
  30:      1285.61 cm**-1
  31:      1318.63 cm**-1
  32:      1381.68 cm**-1
  33:      1385.86 cm**-1
  34:      1410.55 cm**-1
  35:      1452.95 cm**-1
  36:      1492.54 cm**-1
  37:      1500.12 cm**-1
  38:      1502.57 cm**-1
  39:      1644.57 cm**-1
  40:      1750.22 cm**-1
  41:      3000.21 cm**-1
  42:      3065.35 cm**-1
  43:      3074.26 cm**-1
  44:      3079.64 cm**-1
  45:      3138.18 cm**-1
  46:      3159.65 cm**-1
  47:      3244.38 cm**-1
  48:      3468.48 cm**-1
  49:      3526.53 cm**-1
  50:      3867.98 cm**-1

IR SPECTRUM
-----------

 Mode    freq (cm**-1)   T**2         TX         TY         TZ
-------------------------------------------------------------------
   6:        76.62    2.557817  ( -0.727661  -1.342736   0.474749)
   7:       133.73   15.048939  ( -0.282707  -2.775718   2.695257)
   8:       195.05   10.982073  ( -0.599133   1.667599  -2.800397)
   9:       266.10   71.078278  (  1.589884   8.246277   0.741260)
  10:       292.09   60.729284  ( -2.389039  -7.255520   1.542468)
  11:       391.39    3.913739  ( -1.097814  -0.138008  -1.639969)
  12:       508.67    3.506845  ( -0.670634   1.746435   0.084021)
  13:       608.08    5.183650  ( -1.386671  -1.772839  -0.343274)
  14:       690.59    6.342007  ( -0.168012   0.831058  -2.371312)
  15:       824.36   35.955291  (  2.178445  -4.907157   2.670109)
  16:       856.87    0.758601  (  0.150216   0.323196   0.794720)
  17:       885.32    2.553343  ( -1.488705   0.523927   0.250201)
  18:       918.70    1.473850  ( -0.741873  -0.018337   0.960801)
  19:       935.36    3.582644  ( -1.331585   0.656863   1.173907)
  20:       991.09   11.322901  ( -2.574308  -0.030100  -2.166780)
  21:      1012.72    1.154068  (  0.975301  -0.205820   0.400616)
  22:      1048.75    8.025376  (  1.799288   1.076801   1.904846)
  23:      1069.10    7.969986  ( -0.375909  -2.700446  -0.732306)
  24:      1108.32   48.572429  (  4.333399  -1.112169   5.343890)
  25:      1171.97   15.108315  (  2.179027  -1.513055   2.840919)
  26:      1186.03   42.350820  ( -3.703126   1.189816  -5.217472)
  27:      1232.93   35.551937  ( -4.833668   0.585797  -3.441574)
  28:      1247.36   19.111254  (  2.454848  -0.050158   3.616968)
  29:      1277.25   13.096894  (  2.752095   1.566775   1.751594)
  30:      1285.61    4.264084  (  0.038315  -0.146519  -2.059405)
  31:      1318.63    3.614038  ( -0.974661   1.452564   0.744400)
  32:      1381.68    1.341795  ( -0.858149  -0.373387  -0.682611)
  33:      1385.86    8.460276  ( -0.847566  -1.679114  -2.218667)
  34:      1410.55   41.520739  (  2.059933   2.344429   5.637470)
  35:      1452.95   13.596702  (  1.864990  -1.380520  -2.865777)
  36:      1492.54   12.956237  ( -2.081205  -1.624778  -2.446409)
  37:      1500.12    5.982500  ( -1.654078   0.596562   1.700188)
  38:      1502.57    5.923059  ( -1.213435  -1.198444   1.736194)
  39:      1644.57   72.023395  (  7.756750  -1.647503  -3.023568)
  40:      1750.22    2.135784  ( -0.258351   0.367957   1.390556)
  41:      3000.21   20.850787  (  3.376006  -2.741604   1.391755)
  42:      3065.35   13.463611  (  2.889568   2.232810   0.358564)
  43:      3074.26    5.032591  ( -0.474662  -0.395525   2.156582)
  44:      3079.64    2.154072  ( -0.633369  -1.284068  -0.322624)
  45:      3138.18    0.105132  ( -0.017200   0.117315   0.301783)
  46:      3159.65    1.763583  (  0.572094  -0.176935   1.185321)
  47:      3244.38    5.581746  (  1.793439   1.247137   0.899985)
  48:      3468.48   67.043619  ( -7.449187   1.869330   2.838809)
  49:      3526.53   82.511500  (  0.108268   7.952166  -4.388945)
  50:      3867.98   99.375135  ( -0.854505   0.833694   9.896965)

--------------------------
THERMOCHEMISTRY AT 298.15K
--------------------------

Temperature         ... 298.15 K
Pressure            ... 1.00 atm
Total Mass          ... 100.14 AMU

Throughout the following assumptions are being made:
  (1) The electronic state is orbitally nondegenerate
  (2) There are no thermally accessible electronically excited states
  (3) Hindered rotations indicated by low frequency modes) are not
      treated as such but are treated as vibrations and this may
      case some error
  (4) All equations used are the standard statistical mechanics
      equations for an ideal gas
  (5) All vibrations are strinctly harmonic

------------
INNER ENERGY
------------

The inner energy is: U= E(el) + E(ZPE) + E(vib) + E(rot) + E(trans)
    E(el)   - is the total energy from the electronic structure calculation
              = E(kin-el) + E(nuc-el) + E(el-el) + E(nuc-nuc)
    E(ZPE)  - the the zero temperature vibrational energy from the frequency calculation
    E(vib)  - the the finite temperature correction to E(ZPE) due to population
              of excietd vibrational states
    E(rot)  - is the rotational thermal energy
    E(trans)- is the translational thermal energy

Summary of contributions to the inner energy U:
Electronic energy                ...   -326.00533307 Eh
Zero point energy                ...      0.15418283 Eh      96.75 kcal/mol
Thermal vibrational correction   ...      0.00431676 Eh       2.71 kcal/mol
Thermal rotational correction    ...      0.00141627 Eh       0.89 kcal/mol
Thermal translational correction ...      0.00141627 Eh       0.89 kcal/mol
-----------------------------------------------------------------------
Total thermal energy                   -325.84400094 Eh

Summary of corrections to the electronic energy:
(perhaps to be used in another calculation)
Total thermal correction                  0.00714930 Eh       4.49 kcal/mol
Non-thermal (ZPE) correction              0.15418283 Eh      96.75 kcal/mol
-----------------------------------------------------------------------
Total correction                          0.16133213 Eh     101.24 kcal/mol

--------
ENTHALPY
--------

The enthalpy is H = U + kB*T
                kB is Boltzmann's constant
Total free energy                 ...   -325.84400094 Eh
Thermal Enthalpy correction       ...      0.00094421 Eh       0.59 kcal/mol
-----------------------------------------------------------------------
Total Enthalpy                    ...   -325.84305673 Eh

-------
ENTROPY
-------

The entropy contributions are T*S = T*(S(el)+S(vib)+S(rot)+S(trans)
     S(el)   - electronic entropy
     S(vib)  - vibrational entropy
     S(rot)  - rotational entropy
     S(trans)- translational entropy
The entropies will be listed as mutliplied by the temperature to get
units of energy

Electronic entropy                ...      0.00000000 Eh      0.00 kcal/mol
Vibrational entropy               ...      0.00761283 Eh      4.78 kcal/mol
Rotational entropy                ...      0.01198516 Eh      7.52 kcal/mol
Translational entropy             ...      0.01887324 Eh     11.84 kcal/mol
-----------------------------------------------------------------------
Final entropy term                ...      0.03847122 Eh     24.14 kcal/mol

CAUTION: The rotational entropy is not quite correctly treated here
         because it includes a symmetry number that is not yet correctly
         implemented in ORCA!
For a nonlinear molecule the correct rotational entropy is:
    S(rot) = R*(ln(qrot/sn)+1.5)
    R    = 8.31441 J/mol/K = 1.987191683e-3 kcal/mol/K
    qrot = 218014.7444839
    sn is the rotational symmetry number. We have assumed 3 here
       if it is different for your molecule then you should correct
       the printed rotational entropy by manually evaluating the equation
       as given above

For convenience we print out the resulting values for sn=1 - 12:
 sn= 1  qrot/sn=  218014.7445 T*S(rot)=     8.17 kcal/mol T*S(tot)=    24.79 kcal/mol
 sn= 2  qrot/sn=  109007.3722 T*S(rot)=     7.76 kcal/mol T*S(tot)=    24.38 kcal/mol
 sn= 3  qrot/sn=   72671.5815 T*S(rot)=     7.52 kcal/mol T*S(tot)=    24.14 kcal/mol
 sn= 4  qrot/sn=   54503.6861 T*S(rot)=     7.35 kcal/mol T*S(tot)=    23.97 kcal/mol
 sn= 5  qrot/sn=   43602.9489 T*S(rot)=     7.22 kcal/mol T*S(tot)=    23.84 kcal/mol
 sn= 6  qrot/sn=   36335.7907 T*S(rot)=     7.11 kcal/mol T*S(tot)=    23.73 kcal/mol
 sn= 7  qrot/sn=   31144.9635 T*S(rot)=     7.02 kcal/mol T*S(tot)=    23.64 kcal/mol
 sn= 8  qrot/sn=   27251.8431 T*S(rot)=     6.94 kcal/mol T*S(tot)=    23.56 kcal/mol
 sn= 9  qrot/sn=   24223.8605 T*S(rot)=     6.87 kcal/mol T*S(tot)=    23.49 kcal/mol
 sn=10  qrot/sn=   21801.4744 T*S(rot)=     6.81 kcal/mol T*S(tot)=    23.43 kcal/mol
 sn=11  qrot/sn=   19819.5222 T*S(rot)=     6.75 kcal/mol T*S(tot)=    23.37 kcal/mol
 sn=12  qrot/sn=   18167.8954 T*S(rot)=     6.70 kcal/mol T*S(tot)=    23.32 kcal/mol

-------------------
GIBBS FREE ENTHALPY
-------------------

The Gibbs free enthalpy is G = H - T*S

Total enthalpy                    ...   -325.84305673 Eh
Total entropy correction          ...     -0.03847122 Eh    -24.14 kcal/mol
-----------------------------------------------------------------------
Final Gibbs free enthalpy         ...   -325.88152795 Eh

For completeness - the Gibbs free enthalpy minus the electronic energy
G-E(el)                           ...      0.12380512 Eh     77.69 kcal/mol

                             ****ORCA TERMINATED NORMALLY****
TOTAL RUN TIME: 0 days 0 hours 32 minutes 28 seconds 559 msec
