                         Program Version 3.0.3 - RELEASE   -
|  1> ! NORI PBE0 def2-TZVP UseSym TightOPT Freq TightSCF Grid3 FinalGrid5 XYZFile
|  2> % pal
|  3>     nprocs 8
|  4> end
|  5> %method
|  6>     SymThresh 5.0e-2
|  7> end
|  8> % geom
|  9>     MaxIter 10
| 10> end
| 11> % maxcore 2000
| 12> % output
| 13>     printlevel mini
| 14>     print[ P_Basis ] 0
| 15>     print[ P_SCFInfo ] 1
| 16>     print[ P_SCFIterInfo ] 1
| 17>     print[ P_OrbEn ] 0
| 18>     print[ P_Cartesian ] 0
| 19> end
| 20> % elprop
| 21>     Dipole false
| 22> end
| 23> *xyz 1 1
| 24>  O        2.2806784200    -0.8777842302    -1.0517624691
| 25>  C        2.2161643960     0.0990040107    -0.0452283954
| 26>  C        2.7810396583     1.3392176535    -0.6539680026
| 27>  C        2.9970695962     2.6028169832    -0.1999744794
| 28>  N        3.5504167493     3.3024483734    -1.2439995977
| 29>  C        3.6758909519     2.5153237227    -2.3028086295
| 30>  N        3.2122176017     1.3246113262    -1.9544464950
| 31>  H        1.9289430328    -1.7118653061    -0.7298131891
| 32>  H        2.8077185416    -0.1755233475     0.8364867980
| 33>  H        1.1869919112     0.2898411352     0.2815245740
| 34>  H        2.8078559357     3.0551755573     0.7585304696
| 35>  H        3.8261701751     4.2731369521    -1.2170144529
| 36>  H        4.0793445819     2.7925446387    -3.2629023083
| 37>  H        3.1631084483     0.4920225307    -2.5295138226
| 38> *
| 39>
| 40>                          ****END OF INPUT****
 Total Charge           Charge          ....    1
 Multiplicity           Mult            ....    1
 Number of Electrons    NEL             ....   52
FINAL SINGLE POINT ENERGY      -340.879852801571

CARTESIAN COORDINATES (ANGSTROEM)
---------------------------------
  O      0.000319   -0.000670    2.369330
  C     -1.066397    0.029843    1.456855
  C     -0.436370    0.013335    0.103950
  C     -0.921089    0.034876   -1.166555
  N      0.169643   -0.000200   -2.000013
  C      1.285803   -0.041041   -1.286499
  N      0.928152   -0.033297   -0.011354
  H     -0.331991    0.005818    3.270796
  H     -1.676657    0.934944    1.563145
  H     -1.726295   -0.839939    1.561930
  H     -1.929785    0.070961   -1.541403
  H      0.135584    0.005687   -3.008923
  H      2.291748   -0.073762   -1.671994
  H      1.537164   -0.056524    0.797855

FINAL SINGLE POINT ENERGY      -340.879853096907
                    ***********************HURRAY********************
 Multiplicity           Mult            ....    1
 Number of Electrons    NEL             ....   52
 Basis Dimension        Dim             ....  259
FINAL SINGLE POINT ENERGY      -340.879853179213

VIBRATIONAL FREQUENCIES
-----------------------

   0:         0.00 cm**-1
   1:         0.00 cm**-1
   2:         0.00 cm**-1
   3:         0.00 cm**-1
   4:         0.00 cm**-1
   5:         0.00 cm**-1
   6:        44.16 cm**-1
   7:       218.30 cm**-1
   8:       234.88 cm**-1
   9:       258.63 cm**-1
  10:       476.63 cm**-1
  11:       634.64 cm**-1
  12:       653.76 cm**-1
  13:       694.77 cm**-1
  14:       702.22 cm**-1
  15:       770.50 cm**-1
  16:       818.22 cm**-1
  17:       870.87 cm**-1
  18:       955.29 cm**-1
  19:      1007.27 cm**-1
  20:      1040.50 cm**-1
  21:      1112.09 cm**-1
  22:      1119.36 cm**-1
  23:      1149.69 cm**-1
  24:      1200.24 cm**-1
  25:      1212.21 cm**-1
  26:      1253.41 cm**-1
  27:      1302.54 cm**-1
  28:      1332.03 cm**-1
  29:      1435.38 cm**-1
  30:      1479.55 cm**-1
  31:      1502.58 cm**-1
  32:      1529.05 cm**-1
  33:      1582.58 cm**-1
  34:      1678.24 cm**-1
  35:      3029.57 cm**-1
  36:      3065.68 cm**-1
  37:      3302.09 cm**-1
  38:      3306.64 cm**-1
  39:      3597.08 cm**-1
  40:      3641.19 cm**-1
  41:      3876.80 cm**-1

IR SPECTRUM
-----------

 Mode    freq (cm**-1)   T**2         TX         TY         TZ
-------------------------------------------------------------------
   6:        44.16   13.559685  ( -0.092353  -3.681067  -0.030071)
   7:       218.30  143.001053  (  0.339026  11.953245   0.077813)
   8:       234.88   12.646979  (  0.019025   0.150538  -3.553021)
   9:       258.63    3.674872  ( -0.041664  -1.915339  -0.067931)
  10:       476.63    3.192408  ( -0.579243   0.035981  -1.689849)
  11:       634.64   43.022968  (  0.221291   6.555416   0.022839)
  12:       653.76    1.533904  ( -0.022401  -1.238216   0.014953)
  13:       694.77    8.436977  (  2.221220  -0.012586   1.871630)
  14:       702.22   35.822677  ( -0.184293  -5.982351  -0.013585)
  15:       770.50   89.206542  (  0.318132   9.439483   0.038699)
  16:       818.22   69.911783  ( -0.283972  -8.356438  -0.032843)
  17:       870.87    0.040703  (  0.013144   0.201306   0.002534)
  18:       955.29    1.703769  ( -1.121770   0.047985  -0.665656)
  19:      1007.27    6.811444  ( -0.759861   0.022198   2.496710)
  20:      1040.50    0.171446  ( -0.002989   0.413922  -0.010274)
  21:      1112.09   34.014964  (  3.722624  -0.134272   4.487651)
  22:      1119.36   47.699922  ( -6.495140   0.201355  -2.339345)
  23:      1149.69   67.663794  ( -0.626839   0.036009   8.201803)
  24:      1200.24   24.400322  (  2.708444  -0.079617   4.130171)
  25:      1212.21   59.838762  ( -7.213125   0.226158  -2.785398)
  26:      1253.41    0.000350  ( -0.000237   0.016658  -0.008532)
  27:      1302.54    4.118039  ( -2.024656   0.058526   0.124028)
  28:      1332.03    3.236076  ( -1.798267   0.047252  -0.008819)
  29:      1435.38    6.378453  ( -2.433312   0.065094   0.673208)
  30:      1479.55   23.548919  ( -1.900905   0.047885   4.464660)
  31:      1502.58    5.854857  (  1.250146  -0.028532  -2.071516)
  32:      1529.05   21.754187  (  4.657978  -0.154664  -0.183060)
  33:      1582.58    7.311746  ( -0.931350   0.040357  -2.538248)
  34:      1678.24   48.976745  ( -6.081899   0.194163   3.456812)
  35:      3029.57   12.387156  (  3.123826  -0.048708   1.620646)
  36:      3065.68    4.222460  (  0.002216   2.054671  -0.027953)
  37:      3302.09   54.701436  (  7.251053  -0.242101  -1.437028)
  38:      3306.64   11.867660  ( -1.297269   0.055070  -3.190881)
  39:      3597.08  240.272340  ( -7.844545   0.308099 -13.365647)
  40:      3641.19  168.859230  (  0.306604  -0.060755  12.990825)
  41:      3876.80  136.828964  (  1.271537  -0.002644 -11.628076)

--------------------------
THERMOCHEMISTRY AT 298.15K
--------------------------

Temperature         ... 298.15 K
Pressure            ... 1.00 atm
Total Mass          ... 99.11 AMU

Throughout the following assumptions are being made:
  (1) The electronic state is orbitally nondegenerate
  (2) There are no thermally accessible electronically excited states
  (3) Hindered rotations indicated by low frequency modes) are not
      treated as such but are treated as vibrations and this may
      case some error
  (4) All equations used are the standard statistical mechanics
      equations for an ideal gas
  (5) All vibrations are strinctly harmonic

------------
INNER ENERGY
------------

The inner energy is: U= E(el) + E(ZPE) + E(vib) + E(rot) + E(trans)
    E(el)   - is the total energy from the electronic structure calculation
              = E(kin-el) + E(nuc-el) + E(el-el) + E(nuc-nuc)
    E(ZPE)  - the the zero temperature vibrational energy from the frequency calculation
    E(vib)  - the the finite temperature correction to E(ZPE) due to population
              of excietd vibrational states
    E(rot)  - is the rotational thermal energy
    E(trans)- is the translational thermal energy

Summary of contributions to the inner energy U:
Electronic energy                ...   -340.87985318 Eh
Zero point energy                ...      0.11866663 Eh      74.46 kcal/mol
Thermal vibrational correction   ...      0.00359883 Eh       2.26 kcal/mol
Thermal rotational correction    ...      0.00141627 Eh       0.89 kcal/mol
Thermal translational correction ...      0.00141627 Eh       0.89 kcal/mol
-----------------------------------------------------------------------
Total thermal energy                   -340.75475518 Eh

Summary of corrections to the electronic energy:
(perhaps to be used in another calculation)
Total thermal correction                  0.00643138 Eh       4.04 kcal/mol
Non-thermal (ZPE) correction              0.11866663 Eh      74.46 kcal/mol
-----------------------------------------------------------------------
Total correction                          0.12509800 Eh      78.50 kcal/mol

--------
ENTHALPY
--------

The enthalpy is H = U + kB*T
                kB is Boltzmann's constant
Total free energy                 ...   -340.75475518 Eh
Thermal Enthalpy correction       ...      0.00094421 Eh       0.59 kcal/mol
-----------------------------------------------------------------------
Total Enthalpy                    ...   -340.75381097 Eh

-------
ENTROPY
-------

The entropy contributions are T*S = T*(S(el)+S(vib)+S(rot)+S(trans)
     S(el)   - electronic entropy
     S(vib)  - vibrational entropy
     S(rot)  - rotational entropy
     S(trans)- translational entropy
The entropies will be listed as mutliplied by the temperature to get
units of energy

Electronic entropy                ...      0.00000000 Eh      0.00 kcal/mol
Vibrational entropy               ...      0.00660669 Eh      4.15 kcal/mol
Rotational entropy                ...      0.01179150 Eh      7.40 kcal/mol
Translational entropy             ...      0.01885862 Eh     11.83 kcal/mol
-----------------------------------------------------------------------
Final entropy term                ...      0.03725681 Eh     23.38 kcal/mol

CAUTION: The rotational entropy is not quite correctly treated here
         because it includes a symmetry number that is not yet correctly
         implemented in ORCA!
For a nonlinear molecule the correct rotational entropy is:
    S(rot) = R*(ln(qrot/sn)+1.5)
    R    = 8.31441 J/mol/K = 1.987191683e-3 kcal/mol/K
    qrot = 177586.7271716
    sn is the rotational symmetry number. We have assumed 3 here
       if it is different for your molecule then you should correct
       the printed rotational entropy by manually evaluating the equation
       as given above

For convenience we print out the resulting values for sn=1 - 12:
 sn= 1  qrot/sn=  177586.7272 T*S(rot)=     8.05 kcal/mol T*S(tot)=    24.03 kcal/mol
 sn= 2  qrot/sn=   88793.3636 T*S(rot)=     7.64 kcal/mol T*S(tot)=    23.62 kcal/mol
 sn= 3  qrot/sn=   59195.5757 T*S(rot)=     7.40 kcal/mol T*S(tot)=    23.38 kcal/mol
 sn= 4  qrot/sn=   44396.6818 T*S(rot)=     7.23 kcal/mol T*S(tot)=    23.21 kcal/mol
 sn= 5  qrot/sn=   35517.3454 T*S(rot)=     7.10 kcal/mol T*S(tot)=    23.08 kcal/mol
 sn= 6  qrot/sn=   29597.7879 T*S(rot)=     6.99 kcal/mol T*S(tot)=    22.97 kcal/mol
 sn= 7  qrot/sn=   25369.5325 T*S(rot)=     6.90 kcal/mol T*S(tot)=    22.88 kcal/mol
 sn= 8  qrot/sn=   22198.3409 T*S(rot)=     6.82 kcal/mol T*S(tot)=    22.80 kcal/mol
 sn= 9  qrot/sn=   19731.8586 T*S(rot)=     6.75 kcal/mol T*S(tot)=    22.73 kcal/mol
 sn=10  qrot/sn=   17758.6727 T*S(rot)=     6.69 kcal/mol T*S(tot)=    22.67 kcal/mol
 sn=11  qrot/sn=   16144.2479 T*S(rot)=     6.63 kcal/mol T*S(tot)=    22.61 kcal/mol
 sn=12  qrot/sn=   14798.8939 T*S(rot)=     6.58 kcal/mol T*S(tot)=    22.56 kcal/mol

-------------------
GIBBS FREE ENTHALPY
-------------------

The Gibbs free enthalpy is G = H - T*S

Total enthalpy                    ...   -340.75381097 Eh
Total entropy correction          ...     -0.03725681 Eh    -23.38 kcal/mol
-----------------------------------------------------------------------
Final Gibbs free enthalpy         ...   -340.79106778 Eh

For completeness - the Gibbs free enthalpy minus the electronic energy
G-E(el)                           ...      0.08878540 Eh     55.71 kcal/mol

                             ****ORCA TERMINATED NORMALLY****
TOTAL RUN TIME: 0 days 0 hours 25 minutes 6 seconds 288 msec
