                         Program Version 3.0.3 - RELEASE   -
|  1> ! NORI PBE0 def2-TZVP UseSym TightOPT Freq TightSCF Grid3 FinalGrid5 XYZFile
|  2> % pal
|  3>     nprocs 8
|  4> end
|  5> %method
|  6>     SymThresh 5.0e-2
|  7> end
|  8> % geom
|  9>     MaxIter 10
| 10> end
| 11> % maxcore 2000
| 12> % output
| 13>     printlevel mini
| 14>     print[ P_Basis ] 0
| 15>     print[ P_SCFInfo ] 1
| 16>     print[ P_SCFIterInfo ] 1
| 17>     print[ P_OrbEn ] 0
| 18>     print[ P_Cartesian ] 0
| 19> end
| 20> % elprop
| 21>     Dipole false
| 22> end
| 23> *xyz 1 1
| 24>  O        1.1840475910     0.7994951167     1.0221563037
| 25>  C        2.0260804943     0.0381650156     0.1960317167
| 26>  C        2.6437620173     0.9952401452    -0.7923974659
| 27>  C        3.8192784974     0.4980481324    -1.5957333891
| 28>  O        4.3964779225     1.6235410196    -2.2061009812
| 29>  C        1.8398117491     2.1125205572    -1.3112083294
| 30>  N        2.8384214216     2.3670899800    -0.2471041611
| 31>  H        0.7376767599     0.2374500441     1.6614877898
| 32>  H        2.8203747078    -0.4552828464     0.7691207130
| 33>  H        1.4789074609    -0.7274762129    -0.3670564705
| 34>  H        4.5259187303    -0.0100559231    -0.9283186008
| 35>  H        3.4502069568    -0.2304929851    -2.3279189720
| 36>  H        5.1561097201     1.3684679318    -2.7370557014
| 37>  H        0.8181964105     2.2197465210    -0.9728139120
| 38>  H        2.1103291956     2.5477878536    -2.2634069330
| 39>  H        2.4789279588     2.5284094501     0.6903549143
| 40>  H        3.6949924062     2.8374062001    -0.5286265211
| 41> *
| 42>
| 43>                          ****END OF INPUT****
 Total Charge           Charge          ....    1
 Multiplicity           Mult            ....    1
 Number of Electrons    NEL             ....   56
FINAL SINGLE POINT ENERGY      -363.104867411274

CARTESIAN COORDINATES (ANGSTROEM)
---------------------------------
  O      0.135981    0.000998    2.313786
  C      0.151947   -0.958149    1.288240
  C     -0.110962   -0.219230    0.000000
  C      0.151947   -0.958149   -1.288240
  O      0.135981    0.000998   -2.313786
  C     -1.046011    0.916527   -0.000000
  N      0.412823    1.174582    0.000000
  H      0.284226   -0.413994    3.167971
  H      1.120820   -1.468064    1.223100
  H     -0.630407   -1.716509    1.412760
  H      1.120820   -1.468064   -1.223100
  H     -0.630407   -1.716509   -1.412760
  H      0.284226   -0.413994   -3.167971
  H     -1.528489    1.192410    0.927787
  H     -1.528489    1.192410   -0.927787
  H      0.820615    1.495003    0.874777
  H      0.820615    1.495003   -0.874777

FINAL SINGLE POINT ENERGY      -363.104868039594
                    ***********************HURRAY********************
 Multiplicity           Mult            ....    1
 Number of Electrons    NEL             ....   56
 Basis Dimension        Dim             ....  277
FINAL SINGLE POINT ENERGY      -363.104868547849

VIBRATIONAL FREQUENCIES
-----------------------

   0:         0.00 cm**-1
   1:         0.00 cm**-1
   2:         0.00 cm**-1
   3:         0.00 cm**-1
   4:         0.00 cm**-1
   5:         0.00 cm**-1
   6:       107.85 cm**-1
   7:       125.14 cm**-1
   8:       228.09 cm**-1
   9:       258.31 cm**-1
  10:       262.75 cm**-1
  11:       300.35 cm**-1
  12:       328.81 cm**-1
  13:       399.59 cm**-1
  14:       443.83 cm**-1
  15:       593.83 cm**-1
  16:       705.64 cm**-1
  17:       841.44 cm**-1
  18:       894.70 cm**-1
  19:       903.41 cm**-1
  20:       945.26 cm**-1
  21:       987.37 cm**-1
  22:      1048.94 cm**-1
  23:      1052.62 cm**-1
  24:      1106.22 cm**-1
  25:      1112.14 cm**-1
  26:      1139.97 cm**-1
  27:      1183.61 cm**-1
  28:      1210.91 cm**-1
  29:      1211.36 cm**-1
  30:      1255.83 cm**-1
  31:      1265.33 cm**-1
  32:      1285.03 cm**-1
  33:      1312.62 cm**-1
  34:      1402.05 cm**-1
  35:      1456.98 cm**-1
  36:      1468.15 cm**-1
  37:      1477.36 cm**-1
  38:      1507.81 cm**-1
  39:      1520.07 cm**-1
  40:      1565.06 cm**-1
  41:      3027.71 cm**-1
  42:      3034.64 cm**-1
  43:      3072.35 cm**-1
  44:      3079.21 cm**-1
  45:      3182.00 cm**-1
  46:      3289.86 cm**-1
  47:      3469.05 cm**-1
  48:      3585.74 cm**-1
  49:      3871.14 cm**-1
  50:      3871.84 cm**-1

IR SPECTRUM
-----------

 Mode    freq (cm**-1)   T**2         TX         TY         TZ
-------------------------------------------------------------------
   6:       107.85   18.753389  (  4.254324   0.808773  -0.000212)
   7:       125.14    3.032074  ( -0.000577  -0.000103  -1.741285)
   8:       228.09    3.190528  (  0.297352   1.761281   0.000108)
   9:       258.31    1.142251  ( -0.010229  -0.000735  -1.068712)
  10:       262.75  256.152476  ( 15.952139   1.296823  -0.000600)
  11:       300.35   31.656895  (  0.000086   0.000034  -5.626446)
  12:       328.81    0.440221  ( -0.000157  -0.000001   0.663491)
  13:       399.59    0.710556  (  0.760425   0.363744   0.000000)
  14:       443.83    4.085796  (  0.807462   1.853052  -0.000006)
  15:       593.83   26.660151  ( -0.000110  -0.000013   5.163347)
  16:       705.64    4.568828  ( -0.820624  -1.973678  -0.000005)
  17:       841.44   22.700358  ( -2.688767  -3.933305  -0.000010)
  18:       894.70    6.262303  (  0.000023   0.000043   2.502459)
  19:       903.41   11.993172  (  0.000025  -0.000020   3.463116)
  20:       945.26   11.516956  (  0.000004  -0.000029   3.393664)
  21:       987.37    4.221419  (  1.890063  -0.805657  -0.000036)
  22:      1048.94  116.440253  (  4.255979  -9.915992  -0.000008)
  23:      1052.62    1.519293  ( -0.000089   0.000196  -1.232596)
  24:      1106.22  106.523231  (  0.000060  -0.000037 -10.321009)
  25:      1112.14    0.665918  (  0.811219  -0.088548   0.000482)
  26:      1139.97   34.561529  (  0.691381   5.838109  -0.000041)
  27:      1183.61    7.866134  (  0.200084  -2.797517  -0.000026)
  28:      1210.91   33.286436  (  0.000089   0.001458  -5.769440)
  29:      1211.36   67.708587  ( -0.359249  -8.220677  -0.000992)
  30:      1255.83    1.757631  ( -0.000015   0.000056  -1.325757)
  31:      1265.33    3.328653  ( -0.000033   0.000185   1.824460)
  32:      1285.03    0.843997  ( -0.821279   0.411700  -0.000006)
  33:      1312.62    1.381340  (  0.000001  -0.000003  -1.175304)
  34:      1402.05    9.762653  (  0.838066  -3.010033  -0.000009)
  35:      1456.98    8.449712  (  1.347541  -2.575625  -0.000006)
  36:      1468.15   23.740958  (  4.857646   0.379780   0.000000)
  37:      1477.36    0.117553  (  0.000048   0.000003  -0.342861)
  38:      1507.81    4.261593  ( -0.000007  -0.000160   2.064363)
  39:      1520.07    4.653912  (  0.088843  -2.155463  -0.000154)
  40:      1565.06   93.335892  (  5.111262   8.198225   0.000002)
  41:      3027.71    8.801767  (  0.000057  -0.000290  -2.966777)
  42:      3034.64   29.701241  ( -1.615345   5.204988  -0.000164)
  43:      3072.35    0.009508  (  0.000311  -0.000063   0.097506)
  44:      3079.21   14.023195  ( -3.744755   0.001433   0.000036)
  45:      3182.00    2.737078  (  1.392745  -0.892939  -0.000021)
  46:      3289.86   10.258073  (  0.000006  -0.000004   3.202823)
  47:      3469.05   86.786265  (  7.281553   5.810787  -0.000002)
  48:      3585.74  189.854208  (  0.000001   0.000001  13.778759)
  49:      3871.14  263.282302  (  0.000461  -0.000770  16.225976)
  50:      3871.84   15.643238  (  2.052672  -3.380793  -0.003695)

--------------------------
THERMOCHEMISTRY AT 298.15K
--------------------------

Temperature         ... 298.15 K
Pressure            ... 1.00 atm
Total Mass          ... 104.13 AMU

Throughout the following assumptions are being made:
  (1) The electronic state is orbitally nondegenerate
  (2) There are no thermally accessible electronically excited states
  (3) Hindered rotations indicated by low frequency modes) are not
      treated as such but are treated as vibrations and this may
      case some error
  (4) All equations used are the standard statistical mechanics
      equations for an ideal gas
  (5) All vibrations are strinctly harmonic

------------
INNER ENERGY
------------

The inner energy is: U= E(el) + E(ZPE) + E(vib) + E(rot) + E(trans)
    E(el)   - is the total energy from the electronic structure calculation
              = E(kin-el) + E(nuc-el) + E(el-el) + E(nuc-nuc)
    E(ZPE)  - the the zero temperature vibrational energy from the frequency calculation
    E(vib)  - the the finite temperature correction to E(ZPE) due to population
              of excietd vibrational states
    E(rot)  - is the rotational thermal energy
    E(trans)- is the translational thermal energy

Summary of contributions to the inner energy U:
Electronic energy                ...   -363.10486855 Eh
Zero point energy                ...      0.15125208 Eh      94.91 kcal/mol
Thermal vibrational correction   ...      0.00505279 Eh       3.17 kcal/mol
Thermal rotational correction    ...      0.00141627 Eh       0.89 kcal/mol
Thermal translational correction ...      0.00141627 Eh       0.89 kcal/mol
-----------------------------------------------------------------------
Total thermal energy                   -362.94573114 Eh

Summary of corrections to the electronic energy:
(perhaps to be used in another calculation)
Total thermal correction                  0.00788533 Eh       4.95 kcal/mol
Non-thermal (ZPE) correction              0.15125208 Eh      94.91 kcal/mol
-----------------------------------------------------------------------
Total correction                          0.15913741 Eh      99.86 kcal/mol

--------
ENTHALPY
--------

The enthalpy is H = U + kB*T
                kB is Boltzmann's constant
Total free energy                 ...   -362.94573114 Eh
Thermal Enthalpy correction       ...      0.00094421 Eh       0.59 kcal/mol
-----------------------------------------------------------------------
Total Enthalpy                    ...   -362.94478693 Eh

-------
ENTROPY
-------

The entropy contributions are T*S = T*(S(el)+S(vib)+S(rot)+S(trans)
     S(el)   - electronic entropy
     S(vib)  - vibrational entropy
     S(rot)  - rotational entropy
     S(trans)- translational entropy
The entropies will be listed as mutliplied by the temperature to get
units of energy

Electronic entropy                ...      0.00000000 Eh      0.00 kcal/mol
Vibrational entropy               ...      0.00859333 Eh      5.39 kcal/mol
Rotational entropy                ...      0.01197972 Eh      7.52 kcal/mol
Translational entropy             ...      0.01892854 Eh     11.88 kcal/mol
-----------------------------------------------------------------------
Final entropy term                ...      0.03950159 Eh     24.79 kcal/mol

CAUTION: The rotational entropy is not quite correctly treated here
         because it includes a symmetry number that is not yet correctly
         implemented in ORCA!
For a nonlinear molecule the correct rotational entropy is:
    S(rot) = R*(ln(qrot/sn)+1.5)
    R    = 8.31441 J/mol/K = 1.987191683e-3 kcal/mol/K
    qrot = 216762.2979771
    sn is the rotational symmetry number. We have assumed 3 here
       if it is different for your molecule then you should correct
       the printed rotational entropy by manually evaluating the equation
       as given above

For convenience we print out the resulting values for sn=1 - 12:
 sn= 1  qrot/sn=  216762.2980 T*S(rot)=     8.17 kcal/mol T*S(tot)=    25.44 kcal/mol
 sn= 2  qrot/sn=  108381.1490 T*S(rot)=     7.76 kcal/mol T*S(tot)=    25.03 kcal/mol
 sn= 3  qrot/sn=   72254.0993 T*S(rot)=     7.52 kcal/mol T*S(tot)=    24.79 kcal/mol
 sn= 4  qrot/sn=   54190.5745 T*S(rot)=     7.35 kcal/mol T*S(tot)=    24.62 kcal/mol
 sn= 5  qrot/sn=   43352.4596 T*S(rot)=     7.21 kcal/mol T*S(tot)=    24.48 kcal/mol
 sn= 6  qrot/sn=   36127.0497 T*S(rot)=     7.11 kcal/mol T*S(tot)=    24.38 kcal/mol
 sn= 7  qrot/sn=   30966.0426 T*S(rot)=     7.02 kcal/mol T*S(tot)=    24.29 kcal/mol
 sn= 8  qrot/sn=   27095.2872 T*S(rot)=     6.94 kcal/mol T*S(tot)=    24.21 kcal/mol
 sn= 9  qrot/sn=   24084.6998 T*S(rot)=     6.87 kcal/mol T*S(tot)=    24.14 kcal/mol
 sn=10  qrot/sn=   21676.2298 T*S(rot)=     6.80 kcal/mol T*S(tot)=    24.07 kcal/mol
 sn=11  qrot/sn=   19705.6635 T*S(rot)=     6.75 kcal/mol T*S(tot)=    24.02 kcal/mol
 sn=12  qrot/sn=   18063.5248 T*S(rot)=     6.70 kcal/mol T*S(tot)=    23.97 kcal/mol

-------------------
GIBBS FREE ENTHALPY
-------------------

The Gibbs free enthalpy is G = H - T*S

Total enthalpy                    ...   -362.94478693 Eh
Total entropy correction          ...     -0.03950159 Eh    -24.79 kcal/mol
-----------------------------------------------------------------------
Final Gibbs free enthalpy         ...   -362.98428852 Eh

For completeness - the Gibbs free enthalpy minus the electronic energy
G-E(el)                           ...      0.12058003 Eh     75.66 kcal/mol

                             ****ORCA TERMINATED NORMALLY****
TOTAL RUN TIME: 0 days 0 hours 35 minutes 16 seconds 412 msec
