                         Program Version 3.0.3 - RELEASE   -
|  1> ! NORI PBE0 def2-TZVP UseSym TightOPT Freq TightSCF Grid3 FinalGrid5 XYZFile
|  2> % pal
|  3>     nprocs 8
|  4> end
|  5> %method
|  6>     SymThresh 5.0e-2
|  7> end
|  8> % geom
|  9>     MaxIter 10
| 10> end
| 11> % maxcore 2000
| 12> % output
| 13>     printlevel mini
| 14>     print[ P_Basis ] 0
| 15>     print[ P_SCFInfo ] 1
| 16>     print[ P_SCFIterInfo ] 1
| 17>     print[ P_OrbEn ] 0
| 18>     print[ P_Cartesian ] 0
| 19> end
| 20> % elprop
| 21>     Dipole false
| 22> end
| 23> *xyz 1 1
| 24>  O        3.2161666155    -0.1324420439    -0.9765223728
| 25>  C        2.3954513688     0.1052820859    -0.1379261253
| 26>  C        2.8361726133     0.7706088096     1.1443007403
| 27>  N        4.3004053911     0.8563989384     1.1952927136
| 28>  C        3.5029923057     2.1039973806     1.0053328576
| 29>  C        3.5081939825     3.0426623773     2.0739196720
| 30>  C        3.5014136585     3.8492783530     2.9599451296
| 31>  H        1.3225803543    -0.1100113833    -0.2518596338
| 32>  H        2.3399941710     0.5420197316     2.0798263426
| 33>  H        4.7788289907     0.7253068719     2.0815541562
| 34>  H        4.7400440957     0.4617530114     0.3554734159
| 35>  H        3.5990732799     2.4878967973    -0.0072682988
| 36>  H        3.4954331729     4.5701890701     3.7490814029
| 37> *
| 38>
| 39>                          ****END OF INPUT****
 Total Charge           Charge          ....    1
 Multiplicity           Mult            ....    1
 Number of Electrons    NEL             ....   50
FINAL SINGLE POINT ENERGY      -323.483928215120

CARTESIAN COORDINATES (ANGSTROEM)
---------------------------------
  O     -0.000239    0.000797    2.503018
  C     -0.562565    0.733252    1.741013
  C     -0.101287    0.783096    0.303796
  N      1.128828   -0.000147    0.136755
  C     -0.145173   -0.508339   -0.452551
  C     -0.236714   -0.530649   -1.871848
  C     -0.334393   -0.561898   -3.065703
  H     -1.420074    1.364395    2.017800
  H     -0.157160    1.707340   -0.258619
  H      1.850328    0.330180   -0.497114
  H      1.432085   -0.435486    1.015890
  H     -0.520611   -1.370158    0.093194
  H     -0.422523   -0.591598   -4.130472

FINAL SINGLE POINT ENERGY      -323.483928430861
                    ***********************HURRAY********************
 Multiplicity           Mult            ....    1
 Number of Electrons    NEL             ....   50
 Basis Dimension        Dim             ....  253
FINAL SINGLE POINT ENERGY      -323.483928356811

VIBRATIONAL FREQUENCIES
-----------------------

   0:         0.00 cm**-1
   1:         0.00 cm**-1
   2:         0.00 cm**-1
   3:         0.00 cm**-1
   4:         0.00 cm**-1
   5:         0.00 cm**-1
   6:       107.46 cm**-1
   7:       141.24 cm**-1
   8:       199.00 cm**-1
   9:       284.31 cm**-1
  10:       320.44 cm**-1
  11:       469.80 cm**-1
  12:       515.17 cm**-1
  13:       706.94 cm**-1
  14:       746.88 cm**-1
  15:       779.16 cm**-1
  16:       789.10 cm**-1
  17:       849.42 cm**-1
  18:       880.71 cm**-1
  19:       960.00 cm**-1
  20:      1012.89 cm**-1
  21:      1040.61 cm**-1
  22:      1072.82 cm**-1
  23:      1113.40 cm**-1
  24:      1149.33 cm**-1
  25:      1179.22 cm**-1
  26:      1236.10 cm**-1
  27:      1339.44 cm**-1
  28:      1385.75 cm**-1
  29:      1426.41 cm**-1
  30:      1564.49 cm**-1
  31:      1831.40 cm**-1
  32:      2259.97 cm**-1
  33:      3052.69 cm**-1
  34:      3175.68 cm**-1
  35:      3220.57 cm**-1
  36:      3372.07 cm**-1
  37:      3447.12 cm**-1
  38:      3572.36 cm**-1

IR SPECTRUM
-----------

 Mode    freq (cm**-1)   T**2         TX         TY         TZ
-------------------------------------------------------------------
   6:       107.46    9.954527  ( -2.074588  -2.309444  -0.563101)
   7:       141.24    1.522304  (  0.411730  -0.629861  -0.977782)
   8:       199.00   12.235648  ( -1.598695  -3.107092  -0.160626)
   9:       284.31   32.101620  ( -4.323846   0.742143   3.585414)
  10:       320.44   16.261626  (  2.095689  -1.522541  -3.090563)
  11:       469.80   13.493328  (  0.535379  -3.620207  -0.317492)
  12:       515.17   16.442288  (  2.746337   2.163337   2.054239)
  13:       706.94   13.555433  (  0.086069  -0.434968  -3.654973)
  14:       746.88   34.552450  (  1.458303  -5.692356   0.151291)
  15:       779.16   23.136785  (  4.289736   1.273709  -1.764261)
  16:       789.10   21.314510  ( -3.444458  -0.460683  -3.039406)
  17:       849.42    5.872981  (  0.242634  -2.317461   0.665945)
  18:       880.71   47.881324  (  5.122201  -0.268160  -4.644618)
  19:       960.00    8.872001  ( -2.433927  -0.420594   1.664663)
  20:      1012.89   18.872749  (  0.756990   3.234808   2.799238)
  21:      1040.61   11.749462  ( -0.849973   2.896477  -1.624016)
  22:      1072.82   88.640173  ( -2.137925   7.828463   4.773323)
  23:      1113.40    2.693669  (  1.351889  -0.851046  -0.376545)
  24:      1149.33    6.251753  ( -1.501306  -0.326411  -1.972635)
  25:      1179.22    8.355795  ( -0.926704  -0.456912   2.699675)
  26:      1236.10   32.946647  (  0.878639  -2.233719  -5.213937)
  27:      1339.44    1.451813  ( -0.773261   0.611762  -0.692552)
  28:      1385.75   13.148030  ( -2.135951   2.648089   1.254341)
  29:      1426.41   95.069078  (  0.219563  -1.817216  -9.576983)
  30:      1564.49  108.602354  (  9.862332  -1.246501   3.127778)
  31:      1831.40  111.696481  ( -2.145767   3.362595  -9.786987)
  32:      2259.97   75.361497  ( -1.134296  -0.950322  -8.554049)
  33:      3052.69    8.749145  (  1.900058  -1.989524  -1.086610)
  34:      3175.68    9.515332  (  1.473171   2.661842  -0.509602)
  35:      3220.57   10.371381  ( -0.044107   3.034745  -1.076920)
  36:      3372.07  154.847934  (  6.058730  -1.954094  10.692111)
  37:      3447.12   99.708111  (  0.860646   0.703681   9.923318)
  38:      3572.36  165.929343  ( -8.556504  -3.818034   8.839582)

--------------------------
THERMOCHEMISTRY AT 298.15K
--------------------------

Temperature         ... 298.15 K
Pressure            ... 1.00 atm
Total Mass          ... 96.11 AMU

Throughout the following assumptions are being made:
  (1) The electronic state is orbitally nondegenerate
  (2) There are no thermally accessible electronically excited states
  (3) Hindered rotations indicated by low frequency modes) are not
      treated as such but are treated as vibrations and this may
      case some error
  (4) All equations used are the standard statistical mechanics
      equations for an ideal gas
  (5) All vibrations are strinctly harmonic

------------
INNER ENERGY
------------

The inner energy is: U= E(el) + E(ZPE) + E(vib) + E(rot) + E(trans)
    E(el)   - is the total energy from the electronic structure calculation
              = E(kin-el) + E(nuc-el) + E(el-el) + E(nuc-nuc)
    E(ZPE)  - the the zero temperature vibrational energy from the frequency calculation
    E(vib)  - the the finite temperature correction to E(ZPE) due to population
              of excietd vibrational states
    E(rot)  - is the rotational thermal energy
    E(trans)- is the translational thermal energy

Summary of contributions to the inner energy U:
Electronic energy                ...   -323.48392836 Eh
Zero point energy                ...      0.10297758 Eh      64.62 kcal/mol
Thermal vibrational correction   ...      0.00397559 Eh       2.49 kcal/mol
Thermal rotational correction    ...      0.00141627 Eh       0.89 kcal/mol
Thermal translational correction ...      0.00141627 Eh       0.89 kcal/mol
-----------------------------------------------------------------------
Total thermal energy                   -323.37414265 Eh

Summary of corrections to the electronic energy:
(perhaps to be used in another calculation)
Total thermal correction                  0.00680813 Eh       4.27 kcal/mol
Non-thermal (ZPE) correction              0.10297758 Eh      64.62 kcal/mol
-----------------------------------------------------------------------
Total correction                          0.10978570 Eh      68.89 kcal/mol

--------
ENTHALPY
--------

The enthalpy is H = U + kB*T
                kB is Boltzmann's constant
Total free energy                 ...   -323.37414265 Eh
Thermal Enthalpy correction       ...      0.00094421 Eh       0.59 kcal/mol
-----------------------------------------------------------------------
Total Enthalpy                    ...   -323.37319844 Eh

-------
ENTROPY
-------

The entropy contributions are T*S = T*(S(el)+S(vib)+S(rot)+S(trans)
     S(el)   - electronic entropy
     S(vib)  - vibrational entropy
     S(rot)  - rotational entropy
     S(trans)- translational entropy
The entropies will be listed as mutliplied by the temperature to get
units of energy

Electronic entropy                ...      0.00000000 Eh      0.00 kcal/mol
Vibrational entropy               ...      0.00681511 Eh      4.28 kcal/mol
Rotational entropy                ...      0.01188598 Eh      7.46 kcal/mol
Translational entropy             ...      0.01881503 Eh     11.81 kcal/mol
-----------------------------------------------------------------------
Final entropy term                ...      0.03751613 Eh     23.54 kcal/mol

CAUTION: The rotational entropy is not quite correctly treated here
         because it includes a symmetry number that is not yet correctly
         implemented in ORCA!
For a nonlinear molecule the correct rotational entropy is:
    S(rot) = R*(ln(qrot/sn)+1.5)
    R    = 8.31441 J/mol/K = 1.987191683e-3 kcal/mol/K
    qrot = 196277.4674981
    sn is the rotational symmetry number. We have assumed 3 here
       if it is different for your molecule then you should correct
       the printed rotational entropy by manually evaluating the equation
       as given above

For convenience we print out the resulting values for sn=1 - 12:
 sn= 1  qrot/sn=  196277.4675 T*S(rot)=     8.11 kcal/mol T*S(tot)=    24.19 kcal/mol
 sn= 2  qrot/sn=   98138.7337 T*S(rot)=     7.70 kcal/mol T*S(tot)=    23.78 kcal/mol
 sn= 3  qrot/sn=   65425.8225 T*S(rot)=     7.46 kcal/mol T*S(tot)=    23.54 kcal/mol
 sn= 4  qrot/sn=   49069.3669 T*S(rot)=     7.29 kcal/mol T*S(tot)=    23.37 kcal/mol
 sn= 5  qrot/sn=   39255.4935 T*S(rot)=     7.16 kcal/mol T*S(tot)=    23.24 kcal/mol
 sn= 6  qrot/sn=   32712.9112 T*S(rot)=     7.05 kcal/mol T*S(tot)=    23.13 kcal/mol
 sn= 7  qrot/sn=   28039.6382 T*S(rot)=     6.96 kcal/mol T*S(tot)=    23.04 kcal/mol
 sn= 8  qrot/sn=   24534.6834 T*S(rot)=     6.88 kcal/mol T*S(tot)=    22.96 kcal/mol
 sn= 9  qrot/sn=   21808.6075 T*S(rot)=     6.81 kcal/mol T*S(tot)=    22.89 kcal/mol
 sn=10  qrot/sn=   19627.7467 T*S(rot)=     6.75 kcal/mol T*S(tot)=    22.83 kcal/mol
 sn=11  qrot/sn=   17843.4061 T*S(rot)=     6.69 kcal/mol T*S(tot)=    22.77 kcal/mol
 sn=12  qrot/sn=   16356.4556 T*S(rot)=     6.64 kcal/mol T*S(tot)=    22.72 kcal/mol

-------------------
GIBBS FREE ENTHALPY
-------------------

The Gibbs free enthalpy is G = H - T*S

Total enthalpy                    ...   -323.37319844 Eh
Total entropy correction          ...     -0.03751613 Eh    -23.54 kcal/mol
-----------------------------------------------------------------------
Final Gibbs free enthalpy         ...   -323.41071457 Eh

For completeness - the Gibbs free enthalpy minus the electronic energy
G-E(el)                           ...      0.07321379 Eh     45.94 kcal/mol

                             ****ORCA TERMINATED NORMALLY****
TOTAL RUN TIME: 0 days 0 hours 23 minutes 14 seconds 106 msec
