                         Program Version 3.0.3 - RELEASE   -
|  1> ! NORI PBE0 def2-TZVP UseSym TightOPT Freq TightSCF Grid3 FinalGrid5 XYZFile
|  2> % pal
|  3>     nprocs 8
|  4> end
|  5> %method
|  6>     SymThresh 5.0e-2
|  7> end
|  8> % geom
|  9>     MaxIter 10
| 10> end
| 11> % maxcore 2000
| 12> % output
| 13>     printlevel mini
| 14>     print[ P_Basis ] 0
| 15>     print[ P_SCFInfo ] 1
| 16>     print[ P_SCFIterInfo ] 1
| 17>     print[ P_OrbEn ] 0
| 18>     print[ P_Cartesian ] 0
| 19> end
| 20> % elprop
| 21>     Dipole false
| 22> end
| 23> *xyz 1 1
| 24>  O        2.1891748402     0.7562417042     1.4335940936
| 25>  C        2.1044267219     0.1033323133     0.1918992056
| 26>  C        2.5569221873     1.0997060925    -0.8385506239
| 27>  N        2.2177297189     2.5035508209    -0.5064682524
| 28>  C        3.6573926333     2.0451267968    -0.5662947928
| 29>  C        4.4920198055     2.6033800234    -1.6372014139
| 30>  C        5.7084624804     3.0761743073    -1.4035320057
| 31>  H        1.8930707718     0.1783390227     2.1422002053
| 32>  H        2.7610225408    -0.7723317079     0.1299993420
| 33>  H        1.0805337847    -0.2152649102    -0.0349778382
| 34>  H        2.3679459839     0.8429213031    -1.8751209722
| 35>  H        1.8316501542     2.6290838967     0.4278577004
| 36>  H        1.8767788141     3.1287695182    -1.2275897118
| 37>  H        4.0817094490     2.0122679693     0.4310726764
| 38>  H        4.0904953393     2.5787949963    -2.6478885529
| 39>  H        6.1353012081     3.0937405880    -0.4061682305
| 40>  H        6.3263935664     3.4521472652    -2.2094008291
| 41> *
| 42>
| 43>                          ****END OF INPUT****
 Total Charge           Charge          ....    1
 Multiplicity           Mult            ....    1
 Number of Electrons    NEL             ....   54
FINAL SINGLE POINT ENERGY      -325.974398526575

CARTESIAN COORDINATES (ANGSTROEM)
---------------------------------
  O      0.000929    0.000377    2.309545
  C     -0.226169    1.208424    1.628029
  C      0.155654    0.961211    0.195350
  N      1.270872   -0.000144    0.028384
  C     -0.120299   -0.329910   -0.464494
  C     -0.304636   -0.442446   -1.916581
  C     -0.963717   -1.454697   -2.463175
  H     -0.205690    0.093241    3.243639
  H     -1.278508    1.514979    1.651961
  H      0.381948    2.026890    2.030850
  H      0.240097    1.835868   -0.440329
  H      1.555709   -0.462148    0.890586
  H      1.998422    0.178278   -0.654221
  H     -0.564715   -1.100109    0.156068
  H      0.087317    0.362863   -2.533828
  H     -1.378153   -2.259200   -1.864717
  H     -1.122142   -1.505984   -3.533169

FINAL SINGLE POINT ENERGY      -325.974399023013
                    ***********************HURRAY********************
 Multiplicity           Mult            ....    1
 Number of Electrons    NEL             ....   54
 Basis Dimension        Dim             ....  277
FINAL SINGLE POINT ENERGY      -325.974399259859

VIBRATIONAL FREQUENCIES
-----------------------

   0:         0.00 cm**-1
   1:         0.00 cm**-1
   2:         0.00 cm**-1
   3:         0.00 cm**-1
   4:         0.00 cm**-1
   5:         0.00 cm**-1
   6:       101.63 cm**-1
   7:       109.00 cm**-1
   8:       199.96 cm**-1
   9:       232.09 cm**-1
  10:       278.66 cm**-1
  11:       305.79 cm**-1
  12:       395.71 cm**-1
  13:       439.16 cm**-1
  14:       609.90 cm**-1
  15:       656.56 cm**-1
  16:       773.95 cm**-1
  17:       846.41 cm**-1
  18:       882.18 cm**-1
  19:       935.38 cm**-1
  20:       981.28 cm**-1
  21:      1006.28 cm**-1
  22:      1015.42 cm**-1
  23:      1027.44 cm**-1
  24:      1029.92 cm**-1
  25:      1077.22 cm**-1
  26:      1127.87 cm**-1
  27:      1160.30 cm**-1
  28:      1165.07 cm**-1
  29:      1224.55 cm**-1
  30:      1235.54 cm**-1
  31:      1253.58 cm**-1
  32:      1287.09 cm**-1
  33:      1321.67 cm**-1
  34:      1341.65 cm**-1
  35:      1431.53 cm**-1
  36:      1457.89 cm**-1
  37:      1488.58 cm**-1
  38:      1511.87 cm**-1
  39:      1585.44 cm**-1
  40:      1720.83 cm**-1
  41:      3036.18 cm**-1
  42:      3080.86 cm**-1
  43:      3162.51 cm**-1
  44:      3169.43 cm**-1
  45:      3200.40 cm**-1
  46:      3207.91 cm**-1
  47:      3263.90 cm**-1
  48:      3468.35 cm**-1
  49:      3606.46 cm**-1
  50:      3871.87 cm**-1

IR SPECTRUM
-----------

 Mode    freq (cm**-1)   T**2         TX         TY         TZ
-------------------------------------------------------------------
   6:       101.63    1.761433  ( -0.106667   1.242873   0.453126)
   7:       109.00    6.048505  (  2.338947   0.710638  -0.269864)
   8:       199.96   14.035905  (  3.020448   1.246152  -1.833003)
   9:       232.09   27.198691  ( -4.313087  -2.193719  -1.945140)
  10:       278.66   95.963229  ( -9.171848  -2.946292  -1.777581)
  11:       305.79    8.427996  ( -0.223300  -0.120046   2.892010)
  12:       395.71    8.156845  (  2.007115  -0.378769  -1.996214)
  13:       439.16    2.589686  ( -0.897804  -0.577261  -1.204328)
  14:       609.90   24.798753  (  2.554686  -2.589078   3.401324)
  15:       656.56    7.665208  (  1.508871  -1.706285  -1.573883)
  16:       773.95   21.796230  ( -3.041951  -0.899749  -3.425378)
  17:       846.41    3.423472  ( -1.157664   1.075745  -0.962319)
  18:       882.18   25.847397  ( -4.795242  -1.264719  -1.119614)
  19:       935.38   16.886209  (  3.801262   1.551798  -0.168941)
  20:       981.28   25.982987  (  1.947056   4.645678   0.780794)
  21:      1006.28   22.163023  ( -3.836936   2.193354  -1.621771)
  22:      1015.42   15.365115  ( -3.857288   0.226270   0.659730)
  23:      1027.44    6.452418  (  2.395184  -0.790624   0.300708)
  24:      1029.92   82.324016  (  2.418555  -7.572672  -4.373700)
  25:      1077.22   37.854917  (  1.310799  -2.584816   5.427288)
  26:      1127.87   28.366996  ( -1.095706   4.846305  -1.918269)
  27:      1160.30   14.241664  ( -0.075374   2.299536  -2.991341)
  28:      1165.07    3.801628  ( -0.205207   1.938227   0.052849)
  29:      1224.55   46.820174  ( -2.267160   5.768913  -2.898241)
  30:      1235.54    9.306501  (  0.437337   2.102264   2.166962)
  31:      1253.58   11.939507  (  0.683673  -3.386484   0.061862)
  32:      1287.09    3.668823  (  1.370231  -1.215796  -0.559580)
  33:      1321.67    6.396217  ( -1.575652  -0.794385  -1.811764)
  34:      1341.65   10.566116  ( -0.519625  -2.687179   1.753618)
  35:      1431.53    8.787384  (  1.552272   1.724341   1.845124)
  36:      1457.89    1.030396  ( -0.809819   0.523824  -0.316539)
  37:      1488.58   15.578436  (  1.076136   3.458755   1.567605)
  38:      1511.87    9.743580  ( -0.332619   1.829926   2.506853)
  39:      1585.44   85.528908  (  8.940757  -2.318403  -0.465594)
  40:      1720.83    3.046458  (  0.715471   0.164148   1.583545)
  41:      3036.18   16.495229  ( -0.244468   4.036894  -0.372763)
  42:      3080.86    5.974456  (  2.071450   0.843562   0.985878)
  43:      3162.51    1.220215  ( -0.402166  -0.649125   0.798194)
  44:      3169.43    0.989441  (  0.387164   0.391205   0.828556)
  45:      3200.40    0.290566  ( -0.374536   0.381275  -0.070128)
  46:      3207.91    4.285976  (  0.823695   1.596561  -1.028833)
  47:      3263.90    0.585571  (  0.229121   0.220683   0.695969)
  48:      3468.35  117.819371  ( -7.949119   2.429445  -6.980592)
  49:      3606.46  142.183074  ( -5.504293  -2.692616  10.229157)
  50:      3871.87  144.637952  ( -1.639330  -1.134124  11.860199)

--------------------------
THERMOCHEMISTRY AT 298.15K
--------------------------

Temperature         ... 298.15 K
Pressure            ... 1.00 atm
Total Mass          ... 100.14 AMU

Throughout the following assumptions are being made:
  (1) The electronic state is orbitally nondegenerate
  (2) There are no thermally accessible electronically excited states
  (3) Hindered rotations indicated by low frequency modes) are not
      treated as such but are treated as vibrations and this may
      case some error
  (4) All equations used are the standard statistical mechanics
      equations for an ideal gas
  (5) All vibrations are strinctly harmonic

------------
INNER ENERGY
------------

The inner energy is: U= E(el) + E(ZPE) + E(vib) + E(rot) + E(trans)
    E(el)   - is the total energy from the electronic structure calculation
              = E(kin-el) + E(nuc-el) + E(el-el) + E(nuc-nuc)
    E(ZPE)  - the the zero temperature vibrational energy from the frequency calculation
    E(vib)  - the the finite temperature correction to E(ZPE) due to population
              of excietd vibrational states
    E(rot)  - is the rotational thermal energy
    E(trans)- is the translational thermal energy

Summary of contributions to the inner energy U:
Electronic energy                ...   -325.97439926 Eh
Zero point energy                ...      0.15100893 Eh      94.76 kcal/mol
Thermal vibrational correction   ...      0.00487970 Eh       3.06 kcal/mol
Thermal rotational correction    ...      0.00141627 Eh       0.89 kcal/mol
Thermal translational correction ...      0.00141627 Eh       0.89 kcal/mol
-----------------------------------------------------------------------
Total thermal energy                   -325.81567809 Eh

Summary of corrections to the electronic energy:
(perhaps to be used in another calculation)
Total thermal correction                  0.00771224 Eh       4.84 kcal/mol
Non-thermal (ZPE) correction              0.15100893 Eh      94.76 kcal/mol
-----------------------------------------------------------------------
Total correction                          0.15872117 Eh      99.60 kcal/mol

--------
ENTHALPY
--------

The enthalpy is H = U + kB*T
                kB is Boltzmann's constant
Total free energy                 ...   -325.81567809 Eh
Thermal Enthalpy correction       ...      0.00094421 Eh       0.59 kcal/mol
-----------------------------------------------------------------------
Total Enthalpy                    ...   -325.81473388 Eh

-------
ENTROPY
-------

The entropy contributions are T*S = T*(S(el)+S(vib)+S(rot)+S(trans)
     S(el)   - electronic entropy
     S(vib)  - vibrational entropy
     S(rot)  - rotational entropy
     S(trans)- translational entropy
The entropies will be listed as mutliplied by the temperature to get
units of energy

Electronic entropy                ...      0.00000000 Eh      0.00 kcal/mol
Vibrational entropy               ...      0.00846937 Eh      5.31 kcal/mol
Rotational entropy                ...      0.01210815 Eh      7.60 kcal/mol
Translational entropy             ...      0.01887324 Eh     11.84 kcal/mol
-----------------------------------------------------------------------
Final entropy term                ...      0.03945076 Eh     24.76 kcal/mol

CAUTION: The rotational entropy is not quite correctly treated here
         because it includes a symmetry number that is not yet correctly
         implemented in ORCA!
For a nonlinear molecule the correct rotational entropy is:
    S(rot) = R*(ln(qrot/sn)+1.5)
    R    = 8.31441 J/mol/K = 1.987191683e-3 kcal/mol/K
    qrot = 248347.8703331
    sn is the rotational symmetry number. We have assumed 3 here
       if it is different for your molecule then you should correct
       the printed rotational entropy by manually evaluating the equation
       as given above

For convenience we print out the resulting values for sn=1 - 12:
 sn= 1  qrot/sn=  248347.8703 T*S(rot)=     8.25 kcal/mol T*S(tot)=    25.41 kcal/mol
 sn= 2  qrot/sn=  124173.9352 T*S(rot)=     7.84 kcal/mol T*S(tot)=    25.00 kcal/mol
 sn= 3  qrot/sn=   82782.6234 T*S(rot)=     7.60 kcal/mol T*S(tot)=    24.76 kcal/mol
 sn= 4  qrot/sn=   62086.9676 T*S(rot)=     7.43 kcal/mol T*S(tot)=    24.59 kcal/mol
 sn= 5  qrot/sn=   49669.5741 T*S(rot)=     7.30 kcal/mol T*S(tot)=    24.45 kcal/mol
 sn= 6  qrot/sn=   41391.3117 T*S(rot)=     7.19 kcal/mol T*S(tot)=    24.34 kcal/mol
 sn= 7  qrot/sn=   35478.2672 T*S(rot)=     7.10 kcal/mol T*S(tot)=    24.25 kcal/mol
 sn= 8  qrot/sn=   31043.4838 T*S(rot)=     7.02 kcal/mol T*S(tot)=    24.17 kcal/mol
 sn= 9  qrot/sn=   27594.2078 T*S(rot)=     6.95 kcal/mol T*S(tot)=    24.10 kcal/mol
 sn=10  qrot/sn=   24834.7870 T*S(rot)=     6.88 kcal/mol T*S(tot)=    24.04 kcal/mol
 sn=11  qrot/sn=   22577.0791 T*S(rot)=     6.83 kcal/mol T*S(tot)=    23.99 kcal/mol
 sn=12  qrot/sn=   20695.6559 T*S(rot)=     6.78 kcal/mol T*S(tot)=    23.93 kcal/mol

-------------------
GIBBS FREE ENTHALPY
-------------------

The Gibbs free enthalpy is G = H - T*S

Total enthalpy                    ...   -325.81473388 Eh
Total entropy correction          ...     -0.03945076 Eh    -24.76 kcal/mol
-----------------------------------------------------------------------
Final Gibbs free enthalpy         ...   -325.85418464 Eh

For completeness - the Gibbs free enthalpy minus the electronic energy
G-E(el)                           ...      0.12021462 Eh     75.44 kcal/mol

                             ****ORCA TERMINATED NORMALLY****
TOTAL RUN TIME: 0 days 0 hours 29 minutes 45 seconds 515 msec
