                         Program Version 3.0.3 - RELEASE   -
|  1> ! NORI PBE0 def2-TZVP UseSym TightOPT Freq TightSCF Grid3 FinalGrid5 XYZFile
|  2> % pal
|  3>     nprocs 8
|  4> end
|  5> %method
|  6>     SymThresh 5.0e-2
|  7> end
|  8> % geom
|  9>     MaxIter 10
| 10> end
| 11> % maxcore 2000
| 12> % output
| 13>     printlevel mini
| 14>     print[ P_Basis ] 0
| 15>     print[ P_SCFInfo ] 1
| 16>     print[ P_SCFIterInfo ] 1
| 17>     print[ P_OrbEn ] 0
| 18>     print[ P_Cartesian ] 0
| 19> end
| 20> % elprop
| 21>     Dipole false
| 22> end
| 23> *xyz 1 1
| 24>  O        3.0910736359     1.0627930685     0.1107120789
| 25>  C        2.3695341385    -0.1239724855     0.0005493250
| 26>  C        2.9821920271    -1.0383878925     1.0257444322
| 27>  N        2.9375663019    -2.4921634769     0.7366263263
| 28>  C        4.2497913096    -1.7411064920     0.7321236697
| 29>  C        5.1743251565    -2.0938824824     1.7565197306
| 30>  C        5.9626879660    -2.3776296199     2.6129454177
| 31>  H        2.6163044986     1.7829167776    -0.3146168846
| 32>  H        2.4619802370    -0.5764948737    -1.0011796346
| 33>  H        1.3017547354     0.0004066006     0.2177476278
| 34>  H        2.7839568263    -0.8120658514     2.0673854582
| 35>  H        2.7828352954    -3.1336345332     1.5082357923
| 36>  H        2.5617587731    -2.7990517915    -0.1551706864
| 37>  H        4.6421297784    -1.6307095092    -0.2751930955
| 38>  H        6.6708393201    -2.6247174384     3.3737504422
| 39> *
| 40>
| 41>                          ****END OF INPUT****
 Total Charge           Charge          ....    1
 Multiplicity           Mult            ....    1
 Number of Electrons    NEL             ....   52
FINAL SINGLE POINT ENERGY      -324.700957509699
                    ***********************HURRAY********************
 Multiplicity           Mult            ....    1
 Number of Electrons    NEL             ....   52
 Basis Dimension        Dim             ....  265
FINAL SINGLE POINT ENERGY      -324.700957938190

VIBRATIONAL FREQUENCIES
-----------------------

   0:         0.00 cm**-1
   1:         0.00 cm**-1
   2:         0.00 cm**-1
   3:         0.00 cm**-1
   4:         0.00 cm**-1
   5:         0.00 cm**-1
   6:        78.63 cm**-1
   7:       118.14 cm**-1
   8:       161.75 cm**-1
   9:       232.19 cm**-1
  10:       248.91 cm**-1
  11:       350.47 cm**-1
  12:       462.50 cm**-1
  13:       503.81 cm**-1
  14:       511.16 cm**-1
  15:       738.17 cm**-1
  16:       761.72 cm**-1
  17:       779.15 cm**-1
  18:       832.88 cm**-1
  19:       894.73 cm**-1
  20:       936.35 cm**-1
  21:       984.76 cm**-1
  22:      1010.92 cm**-1
  23:      1082.50 cm**-1
  24:      1128.53 cm**-1
  25:      1142.89 cm**-1
  26:      1163.87 cm**-1
  27:      1199.17 cm**-1
  28:      1220.08 cm**-1
  29:      1267.17 cm**-1
  30:      1299.45 cm**-1
  31:      1347.14 cm**-1
  32:      1435.54 cm**-1
  33:      1490.15 cm**-1
  34:      1513.58 cm**-1
  35:      1613.77 cm**-1
  36:      2261.38 cm**-1
  37:      2972.18 cm**-1
  38:      3057.93 cm**-1
  39:      3176.74 cm**-1
  40:      3208.74 cm**-1
  41:      3451.09 cm**-1
  42:      3498.41 cm**-1
  43:      3608.84 cm**-1
  44:      3862.13 cm**-1

IR SPECTRUM
-----------

 Mode    freq (cm**-1)   T**2         TX         TY         TZ
-------------------------------------------------------------------
   6:        78.63    3.116646  (  0.113637  -1.174365  -1.313240)
   7:       118.14    1.501250  (  0.333473  -0.876968   0.788018)
   8:       161.75   10.465643  (  0.052719   3.234270  -0.048613)
   9:       232.19   81.302208  ( -0.254796   8.957729   0.998191)
  10:       248.91   42.379086  (  0.104815   6.502591  -0.290525)
  11:       350.47   12.528015  ( -0.359425   3.032911   1.788932)
  12:       462.50   16.370915  ( -2.441646  -1.485602   2.863960)
  13:       503.81   20.943922  (  1.732856  -1.400023  -3.997633)
  14:       511.16    9.052582  (  1.632883   2.493196   0.412615)
  15:       738.17   37.171705  ( -0.775793   5.145562   3.176955)
  16:       761.72   19.617155  ( -3.237674   0.770510  -2.922488)
  17:       779.15   31.197873  ( -3.996323  -2.631910   2.881028)
  18:       832.88    2.670171  ( -0.287568   1.044440  -1.223364)
  19:       894.73   40.785804  ( -5.117049  -1.089802   3.662505)
  20:       936.35    7.920887  ( -1.815479  -1.920575  -0.967633)
  21:       984.76   25.475117  ( -4.726627  -0.224742   1.756019)
  22:      1010.92   76.237916  (  1.577367   6.454174   5.665109)
  23:      1082.50   27.630022  (  4.965999   1.685057   0.359810)
  24:      1128.53   10.126671  (  1.207319  -0.660003   2.869399)
  25:      1142.89   65.457288  ( -5.214556  -0.256710   6.180598)
  26:      1163.87    1.175820  ( -1.027445   0.265450  -0.222966)
  27:      1199.17    9.625387  ( -0.380155   0.650028   3.009706)
  28:      1220.08   10.730033  ( -2.927019  -0.005105   1.470568)
  29:      1267.17   25.072502  (  4.270216   0.212938  -2.606226)
  30:      1299.45   15.033843  (  2.564474  -0.492454  -2.866148)
  31:      1347.14   23.053428  ( -3.544758   1.677540  -2.770195)
  32:      1435.54    1.146812  (  0.516755  -0.936699   0.048693)
  33:      1490.15   16.904041  ( -2.658476  -0.936254  -2.993322)
  34:      1513.58    3.159581  ( -0.554279   1.244499  -1.141743)
  35:      1613.77   80.923627  (  7.451318  -0.312630  -5.030283)
  36:      2261.38   50.322563  ( -5.660083   1.247841  -4.090099)
  37:      2972.18   41.452161  ( -4.326183   3.556195   3.176442)
  38:      3057.93   12.443205  ( -2.250041  -2.688739  -0.388850)
  39:      3176.74    7.080284  ( -1.536603  -2.165905  -0.167305)
  40:      3208.74    4.875327  (  0.212673  -2.154513  -0.433789)
  41:      3451.09  103.462999  (  7.814569  -2.000611   6.196213)
  42:      3498.41  110.291859  (  8.828036   0.245488  -5.683078)
  43:      3608.84  124.155074  (  4.105177  -8.000806   6.579490)
  44:      3862.13  129.893096  (  0.449403  -0.057634  11.388056)

--------------------------
THERMOCHEMISTRY AT 298.15K
--------------------------

Temperature         ... 298.15 K
Pressure            ... 1.00 atm
Total Mass          ... 98.12 AMU

Throughout the following assumptions are being made:
  (1) The electronic state is orbitally nondegenerate
  (2) There are no thermally accessible electronically excited states
  (3) Hindered rotations indicated by low frequency modes) are not
      treated as such but are treated as vibrations and this may
      case some error
  (4) All equations used are the standard statistical mechanics
      equations for an ideal gas
  (5) All vibrations are strinctly harmonic

------------
INNER ENERGY
------------

The inner energy is: U= E(el) + E(ZPE) + E(vib) + E(rot) + E(trans)
    E(el)   - is the total energy from the electronic structure calculation
              = E(kin-el) + E(nuc-el) + E(el-el) + E(nuc-nuc)
    E(ZPE)  - the the zero temperature vibrational energy from the frequency calculation
    E(vib)  - the the finite temperature correction to E(ZPE) due to population
              of excietd vibrational states
    E(rot)  - is the rotational thermal energy
    E(trans)- is the translational thermal energy

Summary of contributions to the inner energy U:
Electronic energy                ...   -324.70095794 Eh
Zero point energy                ...      0.12668323 Eh      79.49 kcal/mol
Thermal vibrational correction   ...      0.00484499 Eh       3.04 kcal/mol
Thermal rotational correction    ...      0.00141627 Eh       0.89 kcal/mol
Thermal translational correction ...      0.00141627 Eh       0.89 kcal/mol
-----------------------------------------------------------------------
Total thermal energy                   -324.56659717 Eh

Summary of corrections to the electronic energy:
(perhaps to be used in another calculation)
Total thermal correction                  0.00767753 Eh       4.82 kcal/mol
Non-thermal (ZPE) correction              0.12668323 Eh      79.49 kcal/mol
-----------------------------------------------------------------------
Total correction                          0.13436077 Eh      84.31 kcal/mol

--------
ENTHALPY
--------

The enthalpy is H = U + kB*T
                kB is Boltzmann's constant
Total free energy                 ...   -324.56659717 Eh
Thermal Enthalpy correction       ...      0.00094421 Eh       0.59 kcal/mol
-----------------------------------------------------------------------
Total Enthalpy                    ...   -324.56565296 Eh

-------
ENTROPY
-------

The entropy contributions are T*S = T*(S(el)+S(vib)+S(rot)+S(trans)
     S(el)   - electronic entropy
     S(vib)  - vibrational entropy
     S(rot)  - rotational entropy
     S(trans)- translational entropy
The entropies will be listed as mutliplied by the temperature to get
units of energy

Electronic entropy                ...      0.00000000 Eh      0.00 kcal/mol
Vibrational entropy               ...      0.00863874 Eh      5.42 kcal/mol
Rotational entropy                ...      0.01215315 Eh      7.63 kcal/mol
Translational entropy             ...      0.01884443 Eh     11.83 kcal/mol
-----------------------------------------------------------------------
Final entropy term                ...      0.03963632 Eh     24.87 kcal/mol

CAUTION: The rotational entropy is not quite correctly treated here
         because it includes a symmetry number that is not yet correctly
         implemented in ORCA!
For a nonlinear molecule the correct rotational entropy is:
    S(rot) = R*(ln(qrot/sn)+1.5)
    R    = 8.31441 J/mol/K = 1.987191683e-3 kcal/mol/K
    qrot = 260469.8641091
    sn is the rotational symmetry number. We have assumed 3 here
       if it is different for your molecule then you should correct
       the printed rotational entropy by manually evaluating the equation
       as given above

For convenience we print out the resulting values for sn=1 - 12:
 sn= 1  qrot/sn=  260469.8641 T*S(rot)=     8.28 kcal/mol T*S(tot)=    25.52 kcal/mol
 sn= 2  qrot/sn=  130234.9321 T*S(rot)=     7.87 kcal/mol T*S(tot)=    25.11 kcal/mol
 sn= 3  qrot/sn=   86823.2880 T*S(rot)=     7.63 kcal/mol T*S(tot)=    24.87 kcal/mol
 sn= 4  qrot/sn=   65117.4660 T*S(rot)=     7.46 kcal/mol T*S(tot)=    24.70 kcal/mol
 sn= 5  qrot/sn=   52093.9728 T*S(rot)=     7.32 kcal/mol T*S(tot)=    24.57 kcal/mol
 sn= 6  qrot/sn=   43411.6440 T*S(rot)=     7.22 kcal/mol T*S(tot)=    24.46 kcal/mol
 sn= 7  qrot/sn=   37209.9806 T*S(rot)=     7.12 kcal/mol T*S(tot)=    24.37 kcal/mol
 sn= 8  qrot/sn=   32558.7330 T*S(rot)=     7.05 kcal/mol T*S(tot)=    24.29 kcal/mol
 sn= 9  qrot/sn=   28941.0960 T*S(rot)=     6.98 kcal/mol T*S(tot)=    24.22 kcal/mol
 sn=10  qrot/sn=   26046.9864 T*S(rot)=     6.91 kcal/mol T*S(tot)=    24.16 kcal/mol
 sn=11  qrot/sn=   23679.0786 T*S(rot)=     6.86 kcal/mol T*S(tot)=    24.10 kcal/mol
 sn=12  qrot/sn=   21705.8220 T*S(rot)=     6.80 kcal/mol T*S(tot)=    24.05 kcal/mol

-------------------
GIBBS FREE ENTHALPY
-------------------

The Gibbs free enthalpy is G = H - T*S

Total enthalpy                    ...   -324.56565296 Eh
Total entropy correction          ...     -0.03963632 Eh    -24.87 kcal/mol
-----------------------------------------------------------------------
Final Gibbs free enthalpy         ...   -324.60528929 Eh

For completeness - the Gibbs free enthalpy minus the electronic energy
G-E(el)                           ...      0.09566865 Eh     60.03 kcal/mol

                             ****ORCA TERMINATED NORMALLY****
TOTAL RUN TIME: 0 days 0 hours 25 minutes 43 seconds 424 msec
