                         Program Version 3.0.3 - RELEASE   -
|  1> ! NORI PBE0 def2-TZVP UseSym TightOPT Freq TightSCF Grid3 FinalGrid5 XYZFile
|  2> % pal
|  3>     nprocs 8
|  4> end
|  5> %method
|  6>     SymThresh 5.0e-2
|  7> end
|  8> % geom
|  9>     MaxIter 10
| 10> end
| 11> % maxcore 2000
| 12> % output
| 13>     printlevel mini
| 14>     print[ P_Basis ] 0
| 15>     print[ P_SCFInfo ] 1
| 16>     print[ P_SCFIterInfo ] 1
| 17>     print[ P_OrbEn ] 0
| 18>     print[ P_Cartesian ] 0
| 19> end
| 20> % elprop
| 21>     Dipole false
| 22> end
| 23> *xyz 1 1
| 24>  O        1.4002677850    -1.0352762407     0.5081932610
| 25>  C        1.9880699147    -0.1839285795    -0.0908625317
| 26>  C        2.9295643871    -0.6064530828    -1.2040839758
| 27>  N        3.0697378934    -2.0686720120    -1.2179499409
| 28>  C        2.3166707823    -1.4054722940    -2.3074104999
| 29>  C        2.9260441138    -1.4315335110    -3.6042582004
| 30>  N        3.4355179374    -1.4414063898    -4.6335776742
| 31>  H        1.8783489991     0.8940394356     0.0969861967
| 32>  H        3.8292433227    -0.0388677733    -1.4130876058
| 33>  H        3.9716651572    -2.4897980140    -1.4282350699
| 34>  H        2.4980003225    -2.5171173201    -0.4893369487
| 35>  H        1.2470993847    -1.5930542184    -2.2618370105
| 36> *
| 37>
| 38>                          ****END OF INPUT****
 Total Charge           Charge          ....    1
 Multiplicity           Mult            ....    1
 Number of Electrons    NEL             ....   50
FINAL SINGLE POINT ENERGY      -339.549791598350

CARTESIAN COORDINATES (ANGSTROEM)
---------------------------------
  O     -0.000522   -0.000737    2.508852
  C     -0.570805    0.733976    1.757619
  C     -0.111931    0.783022    0.311606
  N      1.120164    0.000107    0.146854
  C     -0.144804   -0.515242   -0.426404
  C     -0.230980   -0.530409   -1.856873
  N     -0.294770   -0.517372   -3.003523
  H     -1.425297    1.366439    2.038810
  H     -0.171660    1.704080   -0.257080
  H      1.848905    0.327337   -0.483288
  H      1.420251   -0.435536    1.029543
  H     -0.527521   -1.385904    0.099444

FINAL SINGLE POINT ENERGY      -339.549791739013
                    ***********************HURRAY********************
 Multiplicity           Mult            ....    1
 Number of Electrons    NEL             ....   50
 Basis Dimension        Dim             ....  247
FINAL SINGLE POINT ENERGY      -339.549791603147

VIBRATIONAL FREQUENCIES
-----------------------

   0:         0.00 cm**-1
   1:         0.00 cm**-1
   2:         0.00 cm**-1
   3:         0.00 cm**-1
   4:         0.00 cm**-1
   5:         0.00 cm**-1
   6:       107.76 cm**-1
   7:       144.39 cm**-1
   8:       201.18 cm**-1
   9:       284.62 cm**-1
  10:       328.28 cm**-1
  11:       499.48 cm**-1
  12:       547.21 cm**-1
  13:       705.82 cm**-1
  14:       808.45 cm**-1
  15:       847.54 cm**-1
  16:       891.96 cm**-1
  17:       971.09 cm**-1
  18:      1004.48 cm**-1
  19:      1036.95 cm**-1
  20:      1087.91 cm**-1
  21:      1116.24 cm**-1
  22:      1147.59 cm**-1
  23:      1182.51 cm**-1
  24:      1241.19 cm**-1
  25:      1337.31 cm**-1
  26:      1380.45 cm**-1
  27:      1434.38 cm**-1
  28:      1567.80 cm**-1
  29:      1835.05 cm**-1
  30:      2402.96 cm**-1
  31:      3061.39 cm**-1
  32:      3182.06 cm**-1
  33:      3214.77 cm**-1
  34:      3345.85 cm**-1
  35:      3547.90 cm**-1

IR SPECTRUM
-----------

 Mode    freq (cm**-1)   T**2         TX         TY         TZ
-------------------------------------------------------------------
   6:       107.76   31.564326  ( -3.636649  -4.257159  -0.464443)
   7:       144.39   21.688797  (  3.684819  -2.581111  -1.203649)
   8:       201.18    0.041456  ( -0.044324   0.028721   0.196638)
   9:       284.62   21.713810  (  3.265345  -0.189313  -3.318960)
  10:       328.28   16.529213  ( -0.153652   1.763283   3.660114)
  11:       499.48    0.867791  (  0.306925   0.658174   0.583434)
  12:       547.21    6.694195  (  0.259886   1.269064   2.239672)
  13:       705.82    8.336037  ( -0.119025   0.039860   2.884490)
  14:       808.45   16.617477  (  0.536607  -0.249547  -4.033269)
  15:       847.54    8.414030  (  0.378438   1.613577  -2.380585)
  16:       891.96   30.899322  (  4.737334  -0.383671  -2.882671)
  17:       971.09   11.518226  (  2.423928   0.382277  -2.344497)
  18:      1004.48   14.279834  ( -1.142356  -2.550223  -2.543859)
  19:      1036.95    8.479810  (  0.563794  -1.762342   2.248577)
  20:      1087.91  103.739698  ( -2.263729   8.598104   4.968685)
  21:      1116.24    8.988183  ( -2.017868   1.826441   1.257182)
  22:      1147.59    4.636481  (  1.606773   0.263213   1.409071)
  23:      1182.51   12.740082  ( -0.821496  -0.202642   3.467587)
  24:      1241.19   14.242119  (  0.932694  -1.634025  -3.271416)
  25:      1337.31    1.421700  ( -0.713137   0.929348   0.222371)
  26:      1380.45   16.523131  (  2.205702  -2.884258  -1.827311)
  27:      1434.38   42.910542  (  0.635866  -0.928845  -6.453175)
  28:      1567.80  105.019828  ( -9.881126   1.432561  -2.308885)
  29:      1835.05   98.213013  ( -2.125795   3.407812  -9.059847)
  30:      2402.96   17.202931  (  0.467466   0.132423   4.119086)
  31:      3061.39    4.026416  (  1.237628  -1.425710  -0.679739)
  32:      3182.06   18.693986  (  1.916454   3.590800  -1.458543)
  33:      3214.77   16.831126  ( -0.213311   3.734348  -1.685310)
  34:      3345.85  162.057411  (  6.256657  -2.135357  10.878966)
  35:      3547.90  193.791160  ( -9.465720  -3.976917   9.400821)

--------------------------
THERMOCHEMISTRY AT 298.15K
--------------------------

Temperature         ... 298.15 K
Pressure            ... 1.00 atm
Total Mass          ... 97.10 AMU

Throughout the following assumptions are being made:
  (1) The electronic state is orbitally nondegenerate
  (2) There are no thermally accessible electronically excited states
  (3) Hindered rotations indicated by low frequency modes) are not
      treated as such but are treated as vibrations and this may
      case some error
  (4) All equations used are the standard statistical mechanics
      equations for an ideal gas
  (5) All vibrations are strinctly harmonic

------------
INNER ENERGY
------------

The inner energy is: U= E(el) + E(ZPE) + E(vib) + E(rot) + E(trans)
    E(el)   - is the total energy from the electronic structure calculation
              = E(kin-el) + E(nuc-el) + E(el-el) + E(nuc-nuc)
    E(ZPE)  - the the zero temperature vibrational energy from the frequency calculation
    E(vib)  - the the finite temperature correction to E(ZPE) due to population
              of excietd vibrational states
    E(rot)  - is the rotational thermal energy
    E(trans)- is the translational thermal energy

Summary of contributions to the inner energy U:
Electronic energy                ...   -339.54979160 Eh
Zero point energy                ...      0.09218507 Eh      57.85 kcal/mol
Thermal vibrational correction   ...      0.00372231 Eh       2.34 kcal/mol
Thermal rotational correction    ...      0.00141627 Eh       0.89 kcal/mol
Thermal translational correction ...      0.00141627 Eh       0.89 kcal/mol
-----------------------------------------------------------------------
Total thermal energy                   -339.45105169 Eh

Summary of corrections to the electronic energy:
(perhaps to be used in another calculation)
Total thermal correction                  0.00655485 Eh       4.11 kcal/mol
Non-thermal (ZPE) correction              0.09218507 Eh      57.85 kcal/mol
-----------------------------------------------------------------------
Total correction                          0.09873992 Eh      61.96 kcal/mol

--------
ENTHALPY
--------

The enthalpy is H = U + kB*T
                kB is Boltzmann's constant
Total free energy                 ...   -339.45105169 Eh
Thermal Enthalpy correction       ...      0.00094421 Eh       0.59 kcal/mol
-----------------------------------------------------------------------
Total Enthalpy                    ...   -339.45010748 Eh

-------
ENTROPY
-------

The entropy contributions are T*S = T*(S(el)+S(vib)+S(rot)+S(trans)
     S(el)   - electronic entropy
     S(vib)  - vibrational entropy
     S(rot)  - rotational entropy
     S(trans)- translational entropy
The entropies will be listed as mutliplied by the temperature to get
units of energy

Electronic entropy                ...      0.00000000 Eh      0.00 kcal/mol
Vibrational entropy               ...      0.00645148 Eh      4.05 kcal/mol
Rotational entropy                ...      0.01187281 Eh      7.45 kcal/mol
Translational entropy             ...      0.01882952 Eh     11.82 kcal/mol
-----------------------------------------------------------------------
Final entropy term                ...      0.03715381 Eh     23.31 kcal/mol

CAUTION: The rotational entropy is not quite correctly treated here
         because it includes a symmetry number that is not yet correctly
         implemented in ORCA!
For a nonlinear molecule the correct rotational entropy is:
    S(rot) = R*(ln(qrot/sn)+1.5)
    R    = 8.31441 J/mol/K = 1.987191683e-3 kcal/mol/K
    qrot = 193557.6045486
    sn is the rotational symmetry number. We have assumed 3 here
       if it is different for your molecule then you should correct
       the printed rotational entropy by manually evaluating the equation
       as given above

For convenience we print out the resulting values for sn=1 - 12:
 sn= 1  qrot/sn=  193557.6045 T*S(rot)=     8.10 kcal/mol T*S(tot)=    23.97 kcal/mol
 sn= 2  qrot/sn=   96778.8023 T*S(rot)=     7.69 kcal/mol T*S(tot)=    23.55 kcal/mol
 sn= 3  qrot/sn=   64519.2015 T*S(rot)=     7.45 kcal/mol T*S(tot)=    23.31 kcal/mol
 sn= 4  qrot/sn=   48389.4011 T*S(rot)=     7.28 kcal/mol T*S(tot)=    23.14 kcal/mol
 sn= 5  qrot/sn=   38711.5209 T*S(rot)=     7.15 kcal/mol T*S(tot)=    23.01 kcal/mol
 sn= 6  qrot/sn=   32259.6008 T*S(rot)=     7.04 kcal/mol T*S(tot)=    22.90 kcal/mol
 sn= 7  qrot/sn=   27651.0864 T*S(rot)=     6.95 kcal/mol T*S(tot)=    22.81 kcal/mol
 sn= 8  qrot/sn=   24194.7006 T*S(rot)=     6.87 kcal/mol T*S(tot)=    22.73 kcal/mol
 sn= 9  qrot/sn=   21506.4005 T*S(rot)=     6.80 kcal/mol T*S(tot)=    22.66 kcal/mol
 sn=10  qrot/sn=   19355.7605 T*S(rot)=     6.74 kcal/mol T*S(tot)=    22.60 kcal/mol
 sn=11  qrot/sn=   17596.1459 T*S(rot)=     6.68 kcal/mol T*S(tot)=    22.54 kcal/mol
 sn=12  qrot/sn=   16129.8004 T*S(rot)=     6.63 kcal/mol T*S(tot)=    22.49 kcal/mol

-------------------
GIBBS FREE ENTHALPY
-------------------

The Gibbs free enthalpy is G = H - T*S

Total enthalpy                    ...   -339.45010748 Eh
Total entropy correction          ...     -0.03715381 Eh    -23.31 kcal/mol
-----------------------------------------------------------------------
Final Gibbs free enthalpy         ...   -339.48726129 Eh

For completeness - the Gibbs free enthalpy minus the electronic energy
G-E(el)                           ...      0.06253032 Eh     39.24 kcal/mol

                             ****ORCA TERMINATED NORMALLY****
TOTAL RUN TIME: 0 days 0 hours 21 minutes 56 seconds 676 msec
