                         Program Version 3.0.3 - RELEASE   -
|  1> ! NORI PBE0 def2-TZVP UseSym TightOPT Freq TightSCF Grid3 FinalGrid5 XYZFile
|  2> % pal
|  3>     nprocs 8
|  4> end
|  5> %method
|  6>     SymThresh 5.0e-2
|  7> end
|  8> % geom
|  9>     MaxIter 10
| 10> end
| 11> % maxcore 2000
| 12> % output
| 13>     printlevel mini
| 14>     print[ P_Basis ] 0
| 15>     print[ P_SCFInfo ] 1
| 16>     print[ P_SCFIterInfo ] 1
| 17>     print[ P_OrbEn ] 0
| 18>     print[ P_Cartesian ] 0
| 19> end
| 20> % elprop
| 21>     Dipole false
| 22> end
| 23> *xyz 1 1
| 24>  O        1.1825816083    -0.0119124461     0.0960904231
| 25>  C        2.5704409121     0.0254601429    -0.0044382795
| 26>  C        3.0043197156     0.8827339123     1.1559410229
| 27>  N        4.1766779731     1.7709954016     0.9482844532
| 28>  C        2.8017579350     2.3461196968     1.0859542966
| 29>  C        2.5789815114     3.1192707157     2.2728213481
| 30>  N        2.4175407053     3.7181635433     3.2393108688
| 31>  H        0.8299052461    -0.7804527864    -0.3627010192
| 32>  H        2.9078948057     0.4813763004    -0.9503889535
| 33>  H        3.0398261913    -0.9609160567     0.0800364732
| 34>  H        2.9887439858     0.4350818309     2.1437639375
| 35>  H        4.8234701113     1.9130540031     1.7203998837
| 36>  H        4.6071440148     1.8039354065     0.0276876521
| 37>  H        2.4145352840     2.7590603357     0.1594478930
| 38> *
| 39>
| 40>                          ****END OF INPUT****
 Total Charge           Charge          ....    1
 Multiplicity           Mult            ....    1
 Number of Electrons    NEL             ....   52
FINAL SINGLE POINT ENERGY      -340.769358486360

CARTESIAN COORDINATES (ANGSTROEM)
---------------------------------
  O      0.000111    0.000766    2.450671
  C      1.111046    0.161099    1.627342
  C      0.530449    0.519380    0.284253
  N      1.226363    0.000172   -0.920819
  C     -0.114346   -0.536169   -0.526570
  C     -1.185634   -0.225632   -1.427703
  N     -2.031605    0.051053   -2.153343
  H      0.244815    0.107719    3.374987
  H      1.703382   -0.765494    1.541224
  H      1.783743    0.961587    1.954943
  H      0.161160    1.530350    0.150760
  H      1.270590    0.588477   -1.749329
  H      2.029339   -0.610817   -0.795452
  H     -0.076097   -1.555057   -0.152768

FINAL SINGLE POINT ENERGY      -340.769359061671
                    ***********************HURRAY********************
 Multiplicity           Mult            ....    1
 Number of Electrons    NEL             ....   52
 Basis Dimension        Dim             ....  259
FINAL SINGLE POINT ENERGY      -340.769359836354

VIBRATIONAL FREQUENCIES
-----------------------

   0:         0.00 cm**-1
   1:         0.00 cm**-1
   2:         0.00 cm**-1
   3:         0.00 cm**-1
   4:         0.00 cm**-1
   5:         0.00 cm**-1
   6:        78.98 cm**-1
   7:       118.75 cm**-1
   8:       165.85 cm**-1
   9:       226.17 cm**-1
  10:       250.20 cm**-1
  11:       357.67 cm**-1
  12:       473.38 cm**-1
  13:       524.34 cm**-1
  14:       546.54 cm**-1
  15:       796.48 cm**-1
  16:       835.28 cm**-1
  17:       896.62 cm**-1
  18:       946.63 cm**-1
  19:       976.37 cm**-1
  20:      1034.65 cm**-1
  21:      1076.86 cm**-1
  22:      1131.77 cm**-1
  23:      1141.92 cm**-1
  24:      1164.36 cm**-1
  25:      1193.69 cm**-1
  26:      1222.88 cm**-1
  27:      1267.99 cm**-1
  28:      1302.90 cm**-1
  29:      1350.47 cm**-1
  30:      1436.23 cm**-1
  31:      1485.91 cm**-1
  32:      1511.78 cm**-1
  33:      1618.64 cm**-1
  34:      2403.36 cm**-1
  35:      2970.97 cm**-1
  36:      3069.95 cm**-1
  37:      3187.51 cm**-1
  38:      3208.09 cm**-1
  39:      3483.70 cm**-1
  40:      3588.42 cm**-1
  41:      3858.26 cm**-1

IR SPECTRUM
-----------

 Mode    freq (cm**-1)   T**2         TX         TY         TZ
-------------------------------------------------------------------
   6:        78.98    2.223301  (  0.358010  -0.944314  -1.096996)
   7:       118.75    8.470537  ( -2.428203   0.685748   1.450557)
   8:       165.85    2.291919  (  0.885044  -0.090145   1.224945)
   9:       226.17  121.196070  ( -0.909018  10.967875  -0.274726)
  10:       250.20   21.299626  ( -2.698720   3.575005   1.111700)
  11:       357.67    2.562041  ( -0.000267  -1.420262  -0.738171)
  12:       473.38   14.194852  (  1.571921  -0.345970  -3.406497)
  13:       524.34    4.057432  (  0.070439   0.308725   1.989261)
  14:       546.54    1.679103  (  1.060948   0.718784   0.191942)
  15:       796.48    8.402683  ( -0.914498   0.638859  -2.675488)
  16:       835.28    3.056956  (  0.209826  -0.971857   1.438201)
  17:       896.62   35.464092  (  4.661837   0.983846  -3.572592)
  18:       946.63    5.961550  (  0.502738   2.142210   1.058179)
  19:       976.37   23.822827  (  4.595096   0.732108  -1.473750)
  20:      1034.65   66.707490  ( -0.707235  -6.039854  -5.452291)
  21:      1076.86   39.445868  ( -5.135789  -3.520213  -0.823191)
  22:      1131.77    8.076439  ( -1.282582   0.235646  -2.525053)
  23:      1141.92   64.036406  (  5.298258   0.581662  -5.968797)
  24:      1164.36    3.544823  (  1.862903  -0.234945  -0.138619)
  25:      1193.69   11.691338  (  1.335477  -0.315063  -3.131864)
  26:      1222.88   11.284990  ( -3.282438  -0.691145   0.181404)
  27:      1267.99   20.992962  ( -3.765583  -0.491487   2.563550)
  28:      1302.90   17.094033  (  3.239473  -0.161053  -2.563964)
  29:      1350.47   11.841921  (  2.309821  -1.405388   2.128740)
  30:      1436.23    3.237978  (  0.664508   1.310884   1.038263)
  31:      1485.91    8.967060  ( -1.794892  -1.175311  -2.089035)
  32:      1511.78    3.491747  ( -0.816774   1.221441  -1.154431)
  33:      1618.64   82.258581  ( -7.042254   0.483776   5.694840)
  34:      2403.36    9.854563  (  2.470147  -0.771263   1.777102)
  35:      2970.97   40.338971  (  4.419050  -3.187964  -3.263106)
  36:      3069.95    7.291906  (  1.496896   2.247405   0.019483)
  37:      3187.51   13.561477  (  1.107842   3.420784  -0.795235)
  38:      3208.09   10.264982  ( -0.535138   3.151572   0.214950)
  39:      3483.70  131.301439  (  9.291538   0.404633  -6.693656)
  40:      3588.42  142.598573  (  4.856984  -8.171218   7.227688)
  41:      3858.26  145.080265  ( -0.035414   0.793668  12.018698)

--------------------------
THERMOCHEMISTRY AT 298.15K
--------------------------

Temperature         ... 298.15 K
Pressure            ... 1.00 atm
Total Mass          ... 99.11 AMU

Throughout the following assumptions are being made:
  (1) The electronic state is orbitally nondegenerate
  (2) There are no thermally accessible electronically excited states
  (3) Hindered rotations indicated by low frequency modes) are not
      treated as such but are treated as vibrations and this may
      case some error
  (4) All equations used are the standard statistical mechanics
      equations for an ideal gas
  (5) All vibrations are strinctly harmonic

------------
INNER ENERGY
------------

The inner energy is: U= E(el) + E(ZPE) + E(vib) + E(rot) + E(trans)
    E(el)   - is the total energy from the electronic structure calculation
              = E(kin-el) + E(nuc-el) + E(el-el) + E(nuc-nuc)
    E(ZPE)  - the the zero temperature vibrational energy from the frequency calculation
    E(vib)  - the the finite temperature correction to E(ZPE) due to population
              of excietd vibrational states
    E(rot)  - is the rotational thermal energy
    E(trans)- is the translational thermal energy

Summary of contributions to the inner energy U:
Electronic energy                ...   -340.76935984 Eh
Zero point energy                ...      0.11596692 Eh      72.77 kcal/mol
Thermal vibrational correction   ...      0.00458979 Eh       2.88 kcal/mol
Thermal rotational correction    ...      0.00141627 Eh       0.89 kcal/mol
Thermal translational correction ...      0.00141627 Eh       0.89 kcal/mol
-----------------------------------------------------------------------
Total thermal energy                   -340.64597058 Eh

Summary of corrections to the electronic energy:
(perhaps to be used in another calculation)
Total thermal correction                  0.00742234 Eh       4.66 kcal/mol
Non-thermal (ZPE) correction              0.11596692 Eh      72.77 kcal/mol
-----------------------------------------------------------------------
Total correction                          0.12338926 Eh      77.43 kcal/mol

--------
ENTHALPY
--------

The enthalpy is H = U + kB*T
                kB is Boltzmann's constant
Total free energy                 ...   -340.64597058 Eh
Thermal Enthalpy correction       ...      0.00094421 Eh       0.59 kcal/mol
-----------------------------------------------------------------------
Total Enthalpy                    ...   -340.64502637 Eh

-------
ENTROPY
-------

The entropy contributions are T*S = T*(S(el)+S(vib)+S(rot)+S(trans)
     S(el)   - electronic entropy
     S(vib)  - vibrational entropy
     S(rot)  - rotational entropy
     S(trans)- translational entropy
The entropies will be listed as mutliplied by the temperature to get
units of energy

Electronic entropy                ...      0.00000000 Eh      0.00 kcal/mol
Vibrational entropy               ...      0.00828240 Eh      5.20 kcal/mol
Rotational entropy                ...      0.01213153 Eh      7.61 kcal/mol
Translational entropy             ...      0.01885862 Eh     11.83 kcal/mol
-----------------------------------------------------------------------
Final entropy term                ...      0.03927255 Eh     24.64 kcal/mol

CAUTION: The rotational entropy is not quite correctly treated here
         because it includes a symmetry number that is not yet correctly
         implemented in ORCA!
For a nonlinear molecule the correct rotational entropy is:
    S(rot) = R*(ln(qrot/sn)+1.5)
    R    = 8.31441 J/mol/K = 1.987191683e-3 kcal/mol/K
    qrot = 254574.1245348
    sn is the rotational symmetry number. We have assumed 3 here
       if it is different for your molecule then you should correct
       the printed rotational entropy by manually evaluating the equation
       as given above

For convenience we print out the resulting values for sn=1 - 12:
 sn= 1  qrot/sn=  254574.1245 T*S(rot)=     8.26 kcal/mol T*S(tot)=    25.29 kcal/mol
 sn= 2  qrot/sn=  127287.0623 T*S(rot)=     7.85 kcal/mol T*S(tot)=    24.88 kcal/mol
 sn= 3  qrot/sn=   84858.0415 T*S(rot)=     7.61 kcal/mol T*S(tot)=    24.64 kcal/mol
 sn= 4  qrot/sn=   63643.5311 T*S(rot)=     7.44 kcal/mol T*S(tot)=    24.47 kcal/mol
 sn= 5  qrot/sn=   50914.8249 T*S(rot)=     7.31 kcal/mol T*S(tot)=    24.34 kcal/mol
 sn= 6  qrot/sn=   42429.0208 T*S(rot)=     7.20 kcal/mol T*S(tot)=    24.23 kcal/mol
 sn= 7  qrot/sn=   36367.7321 T*S(rot)=     7.11 kcal/mol T*S(tot)=    24.14 kcal/mol
 sn= 8  qrot/sn=   31821.7656 T*S(rot)=     7.03 kcal/mol T*S(tot)=    24.06 kcal/mol
 sn= 9  qrot/sn=   28286.0138 T*S(rot)=     6.96 kcal/mol T*S(tot)=    23.99 kcal/mol
 sn=10  qrot/sn=   25457.4125 T*S(rot)=     6.90 kcal/mol T*S(tot)=    23.93 kcal/mol
 sn=11  qrot/sn=   23143.1022 T*S(rot)=     6.84 kcal/mol T*S(tot)=    23.87 kcal/mol
 sn=12  qrot/sn=   21214.5104 T*S(rot)=     6.79 kcal/mol T*S(tot)=    23.82 kcal/mol

-------------------
GIBBS FREE ENTHALPY
-------------------

The Gibbs free enthalpy is G = H - T*S

Total enthalpy                    ...   -340.64502637 Eh
Total entropy correction          ...     -0.03927255 Eh    -24.64 kcal/mol
-----------------------------------------------------------------------
Final Gibbs free enthalpy         ...   -340.68429892 Eh

For completeness - the Gibbs free enthalpy minus the electronic energy
G-E(el)                           ...      0.08506091 Eh     53.38 kcal/mol

                             ****ORCA TERMINATED NORMALLY****
TOTAL RUN TIME: 0 days 0 hours 23 minutes 41 seconds 109 msec
