                         Program Version 3.0.3 - RELEASE   -
|  1> ! NORI PBE0 def2-TZVP UseSym TightOPT Freq TightSCF Grid3 FinalGrid5 XYZFile
|  2> % pal
|  3>     nprocs 8
|  4> end
|  5> %method
|  6>     SymThresh 5.0e-2
|  7> end
|  8> % geom
|  9>     MaxIter 10
| 10> end
| 11> % maxcore 2000
| 12> % output
| 13>     printlevel mini
| 14>     print[ P_Basis ] 0
| 15>     print[ P_SCFInfo ] 1
| 16>     print[ P_SCFIterInfo ] 1
| 17>     print[ P_OrbEn ] 0
| 18>     print[ P_Cartesian ] 0
| 19> end
| 20> % elprop
| 21>     Dipole false
| 22> end
| 23> *xyz 1 1
| 24>  O        0.9724645410    -0.5143159905     0.2920154849
| 25>  C        2.2620109444    -0.0405895954    -0.0011047484
| 26>  C        2.8190932974    -0.9562391978    -1.0553791513
| 27>  N        2.3474279799    -2.3600396508    -0.9461072286
| 28>  C        1.9639849623    -1.5200962724    -2.1126329239
| 29>  C        2.5206687526    -1.9815435399    -3.4252538474
| 30>  O        1.9296867200    -3.2248869188    -3.6799131628
| 31>  H        0.5654033843     0.0127814194     0.9851797274
| 32>  H        2.2555920512     0.9788334813    -0.4051575637
| 33>  H        2.9163617517    -0.0589838703     0.8783496611
| 34>  H        3.8813107722    -0.8717349408    -1.2568143557
| 35>  H        2.9802908219    -3.1360984101    -1.1063633211
| 36>  H        1.6191350758    -2.5056951992    -0.2491572575
| 37>  H        0.9083653882    -1.2750209602    -2.0855131599
| 38>  H        2.2713939276    -1.2243932870    -4.1783238152
| 39>  H        3.6178948531    -2.0495577453    -3.3710317252
| 40>  H        2.0987547763    -3.4946993223    -4.5873926127
| 41> *
| 42>
| 43>                          ****END OF INPUT****
 Total Charge           Charge          ....    1
 Multiplicity           Mult            ....    1
 Number of Electrons    NEL             ....   56
FINAL SINGLE POINT ENERGY      -363.099185693443

CARTESIAN COORDINATES (ANGSTROEM)
---------------------------------
  O     -0.000123    0.000786    2.392061
  C     -1.243767   -0.190396    1.767716
  C     -1.018841    0.040231    0.299343
  N      0.025638    1.052233    0.000756
  C      0.229150   -0.376180   -0.361358
  C      0.298927   -0.644441   -1.834078
  O      1.455088    0.000243   -2.289662
  H     -0.077244   -0.105727    3.344216
  H     -1.628771   -1.209011    1.896773
  H     -2.000219    0.513368    2.134021
  H     -1.906145    0.140765   -0.315670
  H     -0.097160    1.720791   -0.751948
  H      0.540353    1.378107    0.817021
  H      0.995546   -0.829127    0.257248
  H      0.328698   -1.731556   -1.974351
  H     -0.606878   -0.268557   -2.333031
  H      1.662437   -0.280885   -3.185695

FINAL SINGLE POINT ENERGY      -363.099186456809
                    ***********************HURRAY********************
 Multiplicity           Mult            ....    1
 Number of Electrons    NEL             ....   56
 Basis Dimension        Dim             ....  277
FINAL SINGLE POINT ENERGY      -363.099186959362

VIBRATIONAL FREQUENCIES
-----------------------

   0:         0.00 cm**-1
   1:         0.00 cm**-1
   2:         0.00 cm**-1
   3:         0.00 cm**-1
   4:         0.00 cm**-1
   5:         0.00 cm**-1
   6:        66.67 cm**-1
   7:       123.09 cm**-1
   8:       152.60 cm**-1
   9:       247.28 cm**-1
  10:       278.30 cm**-1
  11:       285.20 cm**-1
  12:       318.67 cm**-1
  13:       367.86 cm**-1
  14:       519.45 cm**-1
  15:       613.55 cm**-1
  16:       770.81 cm**-1
  17:       849.70 cm**-1
  18:       900.63 cm**-1
  19:       947.82 cm**-1
  20:       972.30 cm**-1
  21:      1011.66 cm**-1
  22:      1036.28 cm**-1
  23:      1075.32 cm**-1
  24:      1112.14 cm**-1
  25:      1141.13 cm**-1
  26:      1157.59 cm**-1
  27:      1161.30 cm**-1
  28:      1194.30 cm**-1
  29:      1234.75 cm**-1
  30:      1237.64 cm**-1
  31:      1251.42 cm**-1
  32:      1283.07 cm**-1
  33:      1306.56 cm**-1
  34:      1346.51 cm**-1
  35:      1438.42 cm**-1
  36:      1459.34 cm**-1
  37:      1496.89 cm**-1
  38:      1509.82 cm**-1
  39:      1513.44 cm**-1
  40:      1596.46 cm**-1
  41:      3001.18 cm**-1
  42:      3036.95 cm**-1
  43:      3066.49 cm**-1
  44:      3080.83 cm**-1
  45:      3204.26 cm**-1
  46:      3211.16 cm**-1
  47:      3473.45 cm**-1
  48:      3600.24 cm**-1
  49:      3861.72 cm**-1
  50:      3871.79 cm**-1

IR SPECTRUM
-----------

 Mode    freq (cm**-1)   T**2         TX         TY         TZ
-------------------------------------------------------------------
   6:        66.67    7.072207  (  2.372281  -1.074880  -0.537701)
   7:       123.09    4.467933  (  0.216216  -2.076307   0.331866)
   8:       152.60    1.626842  (  0.774503  -0.900308  -0.465224)
   9:       247.28   88.715671  (  3.361913  -8.769218   0.716958)
  10:       278.30   65.902866  ( -5.410216   4.441016  -4.112153)
  11:       285.20   95.006268  ( -3.388811   8.859712   2.242259)
  12:       318.67   48.328417  (  1.270725  -5.184353   4.453780)
  13:       367.86   12.470192  (  2.172509  -1.482962  -2.356103)
  14:       519.45    3.816322  (  1.412440   0.541226  -1.236289)
  15:       613.55   17.803760  ( -3.182890  -1.819858  -2.088322)
  16:       770.81    6.048553  ( -0.615080  -0.982994   2.168860)
  17:       849.70    8.908823  (  2.906544   0.649047   0.198897)
  18:       900.63   21.441455  (  1.608910  -4.019654  -1.641722)
  19:       947.82    5.169049  ( -1.624760   1.086031   1.161783)
  20:       972.30   27.619018  ( -0.462768  -4.046947   3.320706)
  21:      1011.66   22.446767  ( -4.467910  -0.926998   1.274841)
  22:      1036.28   62.534593  (  6.927703  -1.576102  -3.472381)
  23:      1075.32   38.447221  (  2.046378   1.430850   5.675582)
  24:      1112.14   72.408108  ( -8.255336  -1.793789   1.019737)
  25:      1141.13   27.523003  (  2.712905   2.045947  -3.997155)
  26:      1157.59   24.809331  ( -4.407304  -0.638244  -2.231065)
  27:      1161.30    5.338603  (  2.237518   0.532926  -0.219333)
  28:      1194.30    5.517235  (  0.326880   1.529020   1.752850)
  29:      1234.75   91.997123  ( -8.672821  -4.034928   0.706163)
  30:      1237.64    9.961603  ( -2.512512   0.344409  -1.878901)
  31:      1251.42   10.199236  ( -3.143630  -0.270073   0.493846)
  32:      1283.07    3.277137  (  1.318697   0.911575  -0.840956)
  33:      1306.56    2.816952  ( -1.469100  -0.327716   0.742496)
  34:      1346.51   17.641646  ( -3.429288  -1.362677  -2.006176)
  35:      1438.42    0.422784  (  0.383673   0.419505  -0.315587)
  36:      1459.34   11.624029  (  2.710889  -1.340690  -1.574059)
  37:      1496.89    6.216046  (  0.009710   1.568240   1.938188)
  38:      1509.82    5.104526  ( -1.284400  -0.824878  -1.665659)
  39:      1513.44    4.500440  (  0.939396   0.924287  -1.662429)
  40:      1596.46   85.596445  (  3.231937   8.494291  -1.731488)
  41:      3001.18   32.873072  ( -5.700689  -0.132422  -0.598063)
  42:      3036.95   15.871576  (  3.956577   0.212253   0.414760)
  43:      3066.49    7.972916  (  0.318843  -2.657537   0.899307)
  44:      3080.83    6.309625  ( -0.827089   2.242071   0.773737)
  45:      3204.26    0.224665  (  0.349288   0.318736  -0.032721)
  46:      3211.16    5.609123  (  1.687892  -0.929450   1.377050)
  47:      3473.45  110.007173  (  4.164556   8.200939   5.040660)
  48:      3600.24  154.475906  (  2.585059  -4.689275  11.216242)
  49:      3861.72  120.785237  (  4.721679  -1.303686  -9.838261)
  50:      3871.79  136.156537  ( -1.717024   0.835479 -11.511314)

--------------------------
THERMOCHEMISTRY AT 298.15K
--------------------------

Temperature         ... 298.15 K
Pressure            ... 1.00 atm
Total Mass          ... 104.13 AMU

Throughout the following assumptions are being made:
  (1) The electronic state is orbitally nondegenerate
  (2) There are no thermally accessible electronically excited states
  (3) Hindered rotations indicated by low frequency modes) are not
      treated as such but are treated as vibrations and this may
      case some error
  (4) All equations used are the standard statistical mechanics
      equations for an ideal gas
  (5) All vibrations are strinctly harmonic

------------
INNER ENERGY
------------

The inner energy is: U= E(el) + E(ZPE) + E(vib) + E(rot) + E(trans)
    E(el)   - is the total energy from the electronic structure calculation
              = E(kin-el) + E(nuc-el) + E(el-el) + E(nuc-nuc)
    E(ZPE)  - the the zero temperature vibrational energy from the frequency calculation
    E(vib)  - the the finite temperature correction to E(ZPE) due to population
              of excietd vibrational states
    E(rot)  - is the rotational thermal energy
    E(trans)- is the translational thermal energy

Summary of contributions to the inner energy U:
Electronic energy                ...   -363.09918696 Eh
Zero point energy                ...      0.15123855 Eh      94.90 kcal/mol
Thermal vibrational correction   ...      0.00520334 Eh       3.27 kcal/mol
Thermal rotational correction    ...      0.00141627 Eh       0.89 kcal/mol
Thermal translational correction ...      0.00141627 Eh       0.89 kcal/mol
-----------------------------------------------------------------------
Total thermal energy                   -362.93991253 Eh

Summary of corrections to the electronic energy:
(perhaps to be used in another calculation)
Total thermal correction                  0.00803588 Eh       5.04 kcal/mol
Non-thermal (ZPE) correction              0.15123855 Eh      94.90 kcal/mol
-----------------------------------------------------------------------
Total correction                          0.15927443 Eh      99.95 kcal/mol

--------
ENTHALPY
--------

The enthalpy is H = U + kB*T
                kB is Boltzmann's constant
Total free energy                 ...   -362.93991253 Eh
Thermal Enthalpy correction       ...      0.00094421 Eh       0.59 kcal/mol
-----------------------------------------------------------------------
Total Enthalpy                    ...   -362.93896832 Eh

-------
ENTROPY
-------

The entropy contributions are T*S = T*(S(el)+S(vib)+S(rot)+S(trans)
     S(el)   - electronic entropy
     S(vib)  - vibrational entropy
     S(rot)  - rotational entropy
     S(trans)- translational entropy
The entropies will be listed as mutliplied by the temperature to get
units of energy

Electronic entropy                ...      0.00000000 Eh      0.00 kcal/mol
Vibrational entropy               ...      0.00935444 Eh      5.87 kcal/mol
Rotational entropy                ...      0.01209648 Eh      7.59 kcal/mol
Translational entropy             ...      0.01892854 Eh     11.88 kcal/mol
-----------------------------------------------------------------------
Final entropy term                ...      0.04037946 Eh     25.34 kcal/mol

CAUTION: The rotational entropy is not quite correctly treated here
         because it includes a symmetry number that is not yet correctly
         implemented in ORCA!
For a nonlinear molecule the correct rotational entropy is:
    S(rot) = R*(ln(qrot/sn)+1.5)
    R    = 8.31441 J/mol/K = 1.987191683e-3 kcal/mol/K
    qrot = 245296.7453556
    sn is the rotational symmetry number. We have assumed 3 here
       if it is different for your molecule then you should correct
       the printed rotational entropy by manually evaluating the equation
       as given above

For convenience we print out the resulting values for sn=1 - 12:
 sn= 1  qrot/sn=  245296.7454 T*S(rot)=     8.24 kcal/mol T*S(tot)=    25.99 kcal/mol
 sn= 2  qrot/sn=  122648.3727 T*S(rot)=     7.83 kcal/mol T*S(tot)=    25.58 kcal/mol
 sn= 3  qrot/sn=   81765.5818 T*S(rot)=     7.59 kcal/mol T*S(tot)=    25.34 kcal/mol
 sn= 4  qrot/sn=   61324.1863 T*S(rot)=     7.42 kcal/mol T*S(tot)=    25.17 kcal/mol
 sn= 5  qrot/sn=   49059.3491 T*S(rot)=     7.29 kcal/mol T*S(tot)=    25.04 kcal/mol
 sn= 6  qrot/sn=   40882.7909 T*S(rot)=     7.18 kcal/mol T*S(tot)=    24.93 kcal/mol
 sn= 7  qrot/sn=   35042.3922 T*S(rot)=     7.09 kcal/mol T*S(tot)=    24.84 kcal/mol
 sn= 8  qrot/sn=   30662.0932 T*S(rot)=     7.01 kcal/mol T*S(tot)=    24.76 kcal/mol
 sn= 9  qrot/sn=   27255.1939 T*S(rot)=     6.94 kcal/mol T*S(tot)=    24.69 kcal/mol
 sn=10  qrot/sn=   24529.6745 T*S(rot)=     6.88 kcal/mol T*S(tot)=    24.63 kcal/mol
 sn=11  qrot/sn=   22299.7041 T*S(rot)=     6.82 kcal/mol T*S(tot)=    24.57 kcal/mol
 sn=12  qrot/sn=   20441.3954 T*S(rot)=     6.77 kcal/mol T*S(tot)=    24.52 kcal/mol

-------------------
GIBBS FREE ENTHALPY
-------------------

The Gibbs free enthalpy is G = H - T*S

Total enthalpy                    ...   -362.93896832 Eh
Total entropy correction          ...     -0.04037946 Eh    -25.34 kcal/mol
-----------------------------------------------------------------------
Final Gibbs free enthalpy         ...   -362.97934778 Eh

For completeness - the Gibbs free enthalpy minus the electronic energy
G-E(el)                           ...      0.11983918 Eh     75.20 kcal/mol

                             ****ORCA TERMINATED NORMALLY****
TOTAL RUN TIME: 0 days 0 hours 31 minutes 20 seconds 798 msec
