                         Program Version 3.0.3 - RELEASE   -
|  1> ! NORI PBE0 def2-TZVP UseSym TightOPT Freq TightSCF Grid3 FinalGrid5 XYZFile
|  2> % pal
|  3>     nprocs 8
|  4> end
|  5> %method
|  6>     SymThresh 5.0e-2
|  7> end
|  8> % geom
|  9>     MaxIter 10
| 10> end
| 11> % maxcore 2000
| 12> % output
| 13>     printlevel mini
| 14>     print[ P_Basis ] 0
| 15>     print[ P_SCFInfo ] 1
| 16>     print[ P_SCFIterInfo ] 1
| 17>     print[ P_OrbEn ] 0
| 18>     print[ P_Cartesian ] 0
| 19> end
| 20> % elprop
| 21>     Dipole false
| 22> end
| 23> *xyz 1 1
| 24>  O        0.9755694690    -0.4835137837    -0.3811658652
| 25>  C        1.9015770950     0.1798781190    -0.0176445983
| 26>  C        2.9920422008     0.5193311363    -1.0123629952
| 27>  N        2.7911842823    -0.1985561820    -2.2704957479
| 28>  C        2.5714261669     1.2474244872    -2.2494557085
| 29>  C        3.6592957486     1.9700983823    -3.0162126772
| 30>  O        4.5974821184     1.3447002546    -3.4139085543
| 31>  H        2.0094632105     0.5794994322     1.0017285742
| 32>  H        4.0225402665     0.6126768717    -0.6858946237
| 33>  H        3.6228093178    -0.4787398782    -2.8001029913
| 34>  H        1.9662247124    -0.8071375538    -2.2650710976
| 35>  H        1.5373224231     1.5643972763    -2.3339897595
| 36>  H        3.5384429886     3.0549114383    -3.1566439555
| 37> *
| 38>
| 39>                          ****END OF INPUT****
 Total Charge           Charge          ....    1
 Multiplicity           Mult            ....    1
 Number of Electrons    NEL             ....   52
FINAL SINGLE POINT ENERGY      -360.648565184860
                    ***********************HURRAY********************
 Multiplicity           Mult            ....    1
 Number of Electrons    NEL             ....   52
 Basis Dimension        Dim             ....  253
FINAL SINGLE POINT ENERGY      -360.648564994356

VIBRATIONAL FREQUENCIES
-----------------------

   0:         0.00 cm**-1
   1:         0.00 cm**-1
   2:         0.00 cm**-1
   3:         0.00 cm**-1
   4:         0.00 cm**-1
   5:         0.00 cm**-1
   6:       112.72 cm**-1
   7:       125.90 cm**-1
   8:       209.66 cm**-1
   9:       283.61 cm**-1
  10:       294.58 cm**-1
  11:       361.65 cm**-1
  12:       693.27 cm**-1
  13:       718.86 cm**-1
  14:       824.59 cm**-1
  15:       831.87 cm**-1
  16:       906.05 cm**-1
  17:       937.69 cm**-1
  18:       998.88 cm**-1
  19:      1051.52 cm**-1
  20:      1055.13 cm**-1
  21:      1086.99 cm**-1
  22:      1099.14 cm**-1
  23:      1149.45 cm**-1
  24:      1173.68 cm**-1
  25:      1249.74 cm**-1
  26:      1333.23 cm**-1
  27:      1383.73 cm**-1
  28:      1385.50 cm**-1
  29:      1423.80 cm**-1
  30:      1526.45 cm**-1
  31:      1832.68 cm**-1
  32:      1841.20 cm**-1
  33:      3049.47 cm**-1
  34:      3050.13 cm**-1
  35:      3202.79 cm**-1
  36:      3203.89 cm**-1
  37:      3365.27 cm**-1
  38:      3473.82 cm**-1

IR SPECTRUM
-----------

 Mode    freq (cm**-1)   T**2         TX         TY         TZ
-------------------------------------------------------------------
   6:       112.72   28.850177  (  1.553075  -5.141803  -0.000014)
   7:       125.90   25.363090  ( -0.000004   0.000018  -5.036178)
   8:       209.66    4.317914  (  0.000002  -0.000007  -2.077959)
   9:       283.61   16.976658  (  4.101910   0.388574  -0.000024)
  10:       294.58    3.992479  ( -0.000045  -0.000008  -1.998119)
  11:       361.65   47.858225  ( -6.320078   2.813331  -0.000001)
  12:       693.27   11.995842  ( -3.280764  -1.110150   0.000000)
  13:       718.86    0.022584  ( -0.000016  -0.000004  -0.150278)
  14:       824.59   45.254877  ( -6.654998   0.982788  -0.000002)
  15:       831.87    1.631743  ( -0.000004   0.000004   1.277397)
  16:       906.05   20.715821  (  0.000000   0.000002  -4.551464)
  17:       937.69    4.959942  (  1.028049   1.975616   0.000000)
  18:       998.88   52.280581  ( -7.186837   0.793695  -0.000000)
  19:      1051.52    0.153676  (  0.000009  -0.000002   0.392016)
  20:      1055.13   22.880755  ( -4.782087   0.111365   0.000001)
  21:      1086.99    7.895619  (  0.000001   0.000002   2.809914)
  22:      1099.14  126.746610  ( -5.903124   9.586435  -0.000001)
  23:      1149.45    1.824253  (  0.000000  -0.000000  -1.350649)
  24:      1173.68   35.293113  (  5.926408  -0.413280  -0.000000)
  25:      1249.74    7.145290  ( -0.000000   0.000004  -2.673068)
  26:      1333.23    7.966590  ( -2.614811   1.062711   0.000000)
  27:      1383.73   25.321465  ( -3.326862   3.775375   0.000000)
  28:      1385.50    3.514822  ( -0.000001  -0.000000  -1.874786)
  29:      1423.80    6.511898  (  0.000000  -0.000002   2.551842)
  30:      1526.45  125.800303  (  0.000000  -0.000001 -11.216073)
  31:      1832.68  177.282777  ( 12.687029   4.040060  -0.000027)
  32:      1841.20   30.395306  ( -0.000064  -0.000020  -5.513194)
  33:      3049.47    8.859754  ( -1.621513   2.496086  -0.000001)
  34:      3050.13    8.111220  (  0.000000  -0.000001  -2.848020)
  35:      3202.79    0.939695  ( -0.000000  -0.000002   0.969379)
  36:      3203.89   20.593363  (  2.853017   3.528974  -0.000000)
  37:      3365.27   80.241134  (  0.000000   0.000000   8.957742)
  38:      3473.82  254.943528  (-15.622549  -3.298408  -0.000000)

--------------------------
THERMOCHEMISTRY AT 298.15K
--------------------------

Temperature         ... 298.15 K
Pressure            ... 1.00 atm
Total Mass          ... 100.10 AMU

Throughout the following assumptions are being made:
  (1) The electronic state is orbitally nondegenerate
  (2) There are no thermally accessible electronically excited states
  (3) Hindered rotations indicated by low frequency modes) are not
      treated as such but are treated as vibrations and this may
      case some error
  (4) All equations used are the standard statistical mechanics
      equations for an ideal gas
  (5) All vibrations are strinctly harmonic

------------
INNER ENERGY
------------

The inner energy is: U= E(el) + E(ZPE) + E(vib) + E(rot) + E(trans)
    E(el)   - is the total energy from the electronic structure calculation
              = E(kin-el) + E(nuc-el) + E(el-el) + E(nuc-nuc)
    E(ZPE)  - the the zero temperature vibrational energy from the frequency calculation
    E(vib)  - the the finite temperature correction to E(ZPE) due to population
              of excietd vibrational states
    E(rot)  - is the rotational thermal energy
    E(trans)- is the translational thermal energy

Summary of contributions to the inner energy U:
Electronic energy                ...   -360.64856499 Eh
Zero point energy                ...      0.10305734 Eh      64.67 kcal/mol
Thermal vibrational correction   ...      0.00386105 Eh       2.42 kcal/mol
Thermal rotational correction    ...      0.00141627 Eh       0.89 kcal/mol
Thermal translational correction ...      0.00141627 Eh       0.89 kcal/mol
-----------------------------------------------------------------------
Total thermal energy                   -360.53881406 Eh

Summary of corrections to the electronic energy:
(perhaps to be used in another calculation)
Total thermal correction                  0.00669359 Eh       4.20 kcal/mol
Non-thermal (ZPE) correction              0.10305734 Eh      64.67 kcal/mol
-----------------------------------------------------------------------
Total correction                          0.10975093 Eh      68.87 kcal/mol

--------
ENTHALPY
--------

The enthalpy is H = U + kB*T
                kB is Boltzmann's constant
Total free energy                 ...   -360.53881406 Eh
Thermal Enthalpy correction       ...      0.00094421 Eh       0.59 kcal/mol
-----------------------------------------------------------------------
Total Enthalpy                    ...   -360.53786985 Eh

-------
ENTROPY
-------

The entropy contributions are T*S = T*(S(el)+S(vib)+S(rot)+S(trans)
     S(el)   - electronic entropy
     S(vib)  - vibrational entropy
     S(rot)  - rotational entropy
     S(trans)- translational entropy
The entropies will be listed as mutliplied by the temperature to get
units of energy

Electronic entropy                ...      0.00000000 Eh      0.00 kcal/mol
Vibrational entropy               ...      0.00673501 Eh      4.23 kcal/mol
Rotational entropy                ...      0.01185261 Eh      7.44 kcal/mol
Translational entropy             ...      0.01887262 Eh     11.84 kcal/mol
-----------------------------------------------------------------------
Final entropy term                ...      0.03746024 Eh     23.51 kcal/mol

CAUTION: The rotational entropy is not quite correctly treated here
         because it includes a symmetry number that is not yet correctly
         implemented in ORCA!
For a nonlinear molecule the correct rotational entropy is:
    S(rot) = R*(ln(qrot/sn)+1.5)
    R    = 8.31441 J/mol/K = 1.987191683e-3 kcal/mol/K
    qrot = 189461.2292008
    sn is the rotational symmetry number. We have assumed 3 here
       if it is different for your molecule then you should correct
       the printed rotational entropy by manually evaluating the equation
       as given above

For convenience we print out the resulting values for sn=1 - 12:
 sn= 1  qrot/sn=  189461.2292 T*S(rot)=     8.09 kcal/mol T*S(tot)=    24.16 kcal/mol
 sn= 2  qrot/sn=   94730.6146 T*S(rot)=     7.68 kcal/mol T*S(tot)=    23.75 kcal/mol
 sn= 3  qrot/sn=   63153.7431 T*S(rot)=     7.44 kcal/mol T*S(tot)=    23.51 kcal/mol
 sn= 4  qrot/sn=   47365.3073 T*S(rot)=     7.27 kcal/mol T*S(tot)=    23.34 kcal/mol
 sn= 5  qrot/sn=   37892.2458 T*S(rot)=     7.13 kcal/mol T*S(tot)=    23.20 kcal/mol
 sn= 6  qrot/sn=   31576.8715 T*S(rot)=     7.03 kcal/mol T*S(tot)=    23.10 kcal/mol
 sn= 7  qrot/sn=   27065.8899 T*S(rot)=     6.94 kcal/mol T*S(tot)=    23.00 kcal/mol
 sn= 8  qrot/sn=   23682.6537 T*S(rot)=     6.86 kcal/mol T*S(tot)=    22.93 kcal/mol
 sn= 9  qrot/sn=   21051.2477 T*S(rot)=     6.79 kcal/mol T*S(tot)=    22.86 kcal/mol
 sn=10  qrot/sn=   18946.1229 T*S(rot)=     6.72 kcal/mol T*S(tot)=    22.79 kcal/mol
 sn=11  qrot/sn=   17223.7481 T*S(rot)=     6.67 kcal/mol T*S(tot)=    22.74 kcal/mol
 sn=12  qrot/sn=   15788.4358 T*S(rot)=     6.62 kcal/mol T*S(tot)=    22.69 kcal/mol

-------------------
GIBBS FREE ENTHALPY
-------------------

The Gibbs free enthalpy is G = H - T*S

Total enthalpy                    ...   -360.53786985 Eh
Total entropy correction          ...     -0.03746024 Eh    -23.51 kcal/mol
-----------------------------------------------------------------------
Final Gibbs free enthalpy         ...   -360.57533009 Eh

For completeness - the Gibbs free enthalpy minus the electronic energy
G-E(el)                           ...      0.07323490 Eh     45.96 kcal/mol

                             ****ORCA TERMINATED NORMALLY****
TOTAL RUN TIME: 0 days 0 hours 23 minutes 17 seconds 823 msec
