                         Program Version 3.0.3 - RELEASE   -
|  1> ! NORI PBE0 def2-TZVP UseSym TightOPT Freq TightSCF Grid3 FinalGrid5 XYZFile
|  2> % pal
|  3>     nprocs 8
|  4> end
|  5> %method
|  6>     SymThresh 5.0e-2
|  7> end
|  8> % geom
|  9>     MaxIter 10
| 10> end
| 11> % maxcore 2000
| 12> % output
| 13>     printlevel mini
| 14>     print[ P_Basis ] 0
| 15>     print[ P_SCFInfo ] 1
| 16>     print[ P_SCFIterInfo ] 1
| 17>     print[ P_OrbEn ] 0
| 18>     print[ P_Cartesian ] 0
| 19> end
| 20> % elprop
| 21>     Dipole false
| 22> end
| 23> *xyz 1 1
| 24>  O        2.9841063160    -0.6008615583    -1.1402213033
| 25>  C        2.3946736516    -0.0201680675    -0.0065047611
| 26>  C        2.8710395585    -0.8336616467     1.1661552468
| 27>  N        3.1417502564    -2.2508088982     0.8464661400
| 28>  C        4.2602166376    -1.3421376055     1.2140224181
| 29>  C        4.9100690263    -1.5862347405     2.5496444758
| 30>  O        6.0080163452    -1.1941013437     2.7773477770
| 31>  H        2.7350933393    -0.1272768012    -1.9392101875
| 32>  H        1.2994355287    -0.0517521285    -0.0473496715
| 33>  H        2.7074448090     1.0185088364     0.1514414099
| 34>  H        2.3538896249    -0.6913348290     2.1095883162
| 35>  H        3.0739220498    -2.4696694393    -0.1485507892
| 36>  H        2.8626017215    -2.9832483277     1.4923315334
| 37>  H        4.9198678584    -1.1151912879     0.3845516051
| 38>  H        4.2900232767    -2.1200221624     3.3034777903
| 39> *
| 40>
| 41>                          ****END OF INPUT****
 Total Charge           Charge          ....    1
 Multiplicity           Mult            ....    1
 Number of Electrons    NEL             ....   54
FINAL SINGLE POINT ENERGY      -361.868013644949

CARTESIAN COORDINATES (ANGSTROEM)
---------------------------------
  O     -0.001094    0.000274    2.344715
  C     -0.675017   -1.005787    1.634959
  C     -0.790744   -0.503784    0.221205
  N     -0.872185    0.967536    0.109265
  C      0.321752    0.245363   -0.404844
  C      0.487582    0.204988   -1.900382
  O      1.548313   -0.000975   -2.393810
  H      0.124379   -0.251196    3.264326
  H     -1.678294   -1.193236    2.035073
  H     -0.125470   -1.954032    1.614917
  H     -1.476877   -1.028956   -0.435425
  H     -0.731095    1.457367    0.994065
  H     -1.516870    1.395491   -0.548847
  H      1.216357    0.422597    0.180788
  H     -0.440857    0.342640   -2.497787

FINAL SINGLE POINT ENERGY      -361.868013886789
                    ***********************HURRAY********************
 Multiplicity           Mult            ....    1
 Number of Electrons    NEL             ....   54
 Basis Dimension        Dim             ....  265
FINAL SINGLE POINT ENERGY      -361.868014401448

VIBRATIONAL FREQUENCIES
-----------------------

   0:         0.00 cm**-1
   1:         0.00 cm**-1
   2:         0.00 cm**-1
   3:         0.00 cm**-1
   4:         0.00 cm**-1
   5:         0.00 cm**-1
   6:        85.54 cm**-1
   7:       107.69 cm**-1
   8:       213.27 cm**-1
   9:       221.46 cm**-1
  10:       268.86 cm**-1
  11:       299.75 cm**-1
  12:       387.61 cm**-1
  13:       493.07 cm**-1
  14:       617.48 cm**-1
  15:       797.57 cm**-1
  16:       861.66 cm**-1
  17:       905.42 cm**-1
  18:       913.58 cm**-1
  19:       987.32 cm**-1
  20:      1030.55 cm**-1
  21:      1048.50 cm**-1
  22:      1077.44 cm**-1
  23:      1121.24 cm**-1
  24:      1149.90 cm**-1
  25:      1158.28 cm**-1
  26:      1182.68 cm**-1
  27:      1222.57 cm**-1
  28:      1250.15 cm**-1
  29:      1281.83 cm**-1
  30:      1323.58 cm**-1
  31:      1406.47 cm**-1
  32:      1438.30 cm**-1
  33:      1467.03 cm**-1
  34:      1510.27 cm**-1
  35:      1581.44 cm**-1
  36:      1877.46 cm**-1
  37:      2904.75 cm**-1
  38:      3040.99 cm**-1
  39:      3086.94 cm**-1
  40:      3196.17 cm**-1
  41:      3218.70 cm**-1
  42:      3441.58 cm**-1
  43:      3570.38 cm**-1
  44:      3867.49 cm**-1

IR SPECTRUM
-----------

 Mode    freq (cm**-1)   T**2         TX         TY         TZ
-------------------------------------------------------------------
   6:        85.54    6.407394  ( -0.160858  -2.461831   0.566485)
   7:       107.69   13.249131  (  3.354325  -0.725848   1.212756)
   8:       213.27   23.691894  ( -4.408871   2.059636   0.107927)
   9:       221.46   11.748173  (  1.650932  -1.151523  -2.774273)
  10:       268.86  102.862498  (  9.077678  -3.644538  -2.678730)
  11:       299.75   20.553280  ( -2.615505   1.413258  -3.422735)
  12:       387.61    1.653782  ( -0.183511  -1.000144   0.787285)
  13:       493.07   16.607361  ( -0.654455   0.268577   4.013342)
  14:       617.48   15.476539  (  1.250173   3.370823   1.597235)
  15:       797.57    8.301027  ( -0.152710   0.174579   2.871799)
  16:       861.66   13.065187  ( -2.010360   3.001571  -0.119221)
  17:       905.42   23.268927  (  3.713669  -0.826186  -2.965637)
  18:       913.58   36.704249  ( -0.394320   0.654784   6.009993)
  19:       987.32    4.897570  ( -0.493280  -1.273457   1.741422)
  20:      1030.55   27.634370  ( -4.368884  -2.022884  -2.110727)
  21:      1048.50   50.431435  (  4.256193   5.672136  -0.378322)
  22:      1077.44   64.646723  ( -1.990483  -0.317088   7.783582)
  23:      1121.24   31.483760  ( -1.519538  -2.862579  -4.580437)
  24:      1149.90    9.529265  ( -1.877128  -2.422611  -0.369609)
  25:      1158.28   11.335592  (  1.514573   2.565974  -1.567622)
  26:      1182.68    2.107855  ( -0.229097  -1.268676   0.667705)
  27:      1222.57   58.213077  ( -4.049647  -6.240987  -1.692192)
  28:      1250.15   10.561249  (  1.546987   2.857567  -0.048918)
  29:      1281.83    4.494005  (  0.467587  -2.039884  -0.337997)
  30:      1323.58    5.239334  (  1.138577   1.882210   0.632662)
  31:      1406.47    1.040159  ( -0.598663  -0.720462   0.403355)
  32:      1438.30   17.396595  (  2.349865   0.870404  -3.334235)
  33:      1467.03    5.552835  ( -0.507506  -1.247976  -1.933347)
  34:      1510.27    3.886704  (  0.193532   1.345048  -1.428319)
  35:      1581.44   96.993773  (  4.287866  -8.793923   1.129113)
  36:      1877.46  169.494044  ( 10.461364  -1.018174  -7.682267)
  37:      2904.75   45.908154  ( -5.781297   1.240472  -3.308472)
  38:      3040.99   12.368526  ( -2.299042  -2.458519  -1.019126)
  39:      3086.94    3.160060  (  1.554055  -0.393356  -0.768273)
  40:      3196.17    2.511285  (  0.619497   1.015302   1.047220)
  41:      3218.70   14.653629  (  3.012642   0.540204   2.299086)
  42:      3441.58  124.145281  ( -2.935683   7.828556   7.364833)
  43:      3570.38  157.859115  (  5.593354  -2.285739  11.015848)
  44:      3867.49  160.367864  ( -2.678770   0.839635 -12.348565)

--------------------------
THERMOCHEMISTRY AT 298.15K
--------------------------

Temperature         ... 298.15 K
Pressure            ... 1.00 atm
Total Mass          ... 102.11 AMU

Throughout the following assumptions are being made:
  (1) The electronic state is orbitally nondegenerate
  (2) There are no thermally accessible electronically excited states
  (3) Hindered rotations indicated by low frequency modes) are not
      treated as such but are treated as vibrations and this may
      case some error
  (4) All equations used are the standard statistical mechanics
      equations for an ideal gas
  (5) All vibrations are strinctly harmonic

------------
INNER ENERGY
------------

The inner energy is: U= E(el) + E(ZPE) + E(vib) + E(rot) + E(trans)
    E(el)   - is the total energy from the electronic structure calculation
              = E(kin-el) + E(nuc-el) + E(el-el) + E(nuc-nuc)
    E(ZPE)  - the the zero temperature vibrational energy from the frequency calculation
    E(vib)  - the the finite temperature correction to E(ZPE) due to population
              of excietd vibrational states
    E(rot)  - is the rotational thermal energy
    E(trans)- is the translational thermal energy

Summary of contributions to the inner energy U:
Electronic energy                ...   -361.86801440 Eh
Zero point energy                ...      0.12670022 Eh      79.51 kcal/mol
Thermal vibrational correction   ...      0.00466915 Eh       2.93 kcal/mol
Thermal rotational correction    ...      0.00141627 Eh       0.89 kcal/mol
Thermal translational correction ...      0.00141627 Eh       0.89 kcal/mol
-----------------------------------------------------------------------
Total thermal energy                   -361.73381248 Eh

Summary of corrections to the electronic energy:
(perhaps to be used in another calculation)
Total thermal correction                  0.00750170 Eh       4.71 kcal/mol
Non-thermal (ZPE) correction              0.12670022 Eh      79.51 kcal/mol
-----------------------------------------------------------------------
Total correction                          0.13420192 Eh      84.21 kcal/mol

--------
ENTHALPY
--------

The enthalpy is H = U + kB*T
                kB is Boltzmann's constant
Total free energy                 ...   -361.73381248 Eh
Thermal Enthalpy correction       ...      0.00094421 Eh       0.59 kcal/mol
-----------------------------------------------------------------------
Total Enthalpy                    ...   -361.73286827 Eh

-------
ENTROPY
-------

The entropy contributions are T*S = T*(S(el)+S(vib)+S(rot)+S(trans)
     S(el)   - electronic entropy
     S(vib)  - vibrational entropy
     S(rot)  - rotational entropy
     S(trans)- translational entropy
The entropies will be listed as mutliplied by the temperature to get
units of energy

Electronic entropy                ...      0.00000000 Eh      0.00 kcal/mol
Vibrational entropy               ...      0.00832548 Eh      5.22 kcal/mol
Rotational entropy                ...      0.01209278 Eh      7.59 kcal/mol
Translational entropy             ...      0.01890086 Eh     11.86 kcal/mol
-----------------------------------------------------------------------
Final entropy term                ...      0.03931911 Eh     24.67 kcal/mol

CAUTION: The rotational entropy is not quite correctly treated here
         because it includes a symmetry number that is not yet correctly
         implemented in ORCA!
For a nonlinear molecule the correct rotational entropy is:
    S(rot) = R*(ln(qrot/sn)+1.5)
    R    = 8.31441 J/mol/K = 1.987191683e-3 kcal/mol/K
    qrot = 244337.0955007
    sn is the rotational symmetry number. We have assumed 3 here
       if it is different for your molecule then you should correct
       the printed rotational entropy by manually evaluating the equation
       as given above

For convenience we print out the resulting values for sn=1 - 12:
 sn= 1  qrot/sn=  244337.0955 T*S(rot)=     8.24 kcal/mol T*S(tot)=    25.32 kcal/mol
 sn= 2  qrot/sn=  122168.5478 T*S(rot)=     7.83 kcal/mol T*S(tot)=    24.91 kcal/mol
 sn= 3  qrot/sn=   81445.6985 T*S(rot)=     7.59 kcal/mol T*S(tot)=    24.67 kcal/mol
 sn= 4  qrot/sn=   61084.2739 T*S(rot)=     7.42 kcal/mol T*S(tot)=    24.50 kcal/mol
 sn= 5  qrot/sn=   48867.4191 T*S(rot)=     7.29 kcal/mol T*S(tot)=    24.37 kcal/mol
 sn= 6  qrot/sn=   40722.8493 T*S(rot)=     7.18 kcal/mol T*S(tot)=    24.26 kcal/mol
 sn= 7  qrot/sn=   34905.2994 T*S(rot)=     7.09 kcal/mol T*S(tot)=    24.17 kcal/mol
 sn= 8  qrot/sn=   30542.1369 T*S(rot)=     7.01 kcal/mol T*S(tot)=    24.09 kcal/mol
 sn= 9  qrot/sn=   27148.5662 T*S(rot)=     6.94 kcal/mol T*S(tot)=    24.02 kcal/mol
 sn=10  qrot/sn=   24433.7096 T*S(rot)=     6.87 kcal/mol T*S(tot)=    23.96 kcal/mol
 sn=11  qrot/sn=   22212.4632 T*S(rot)=     6.82 kcal/mol T*S(tot)=    23.90 kcal/mol
 sn=12  qrot/sn=   20361.4246 T*S(rot)=     6.77 kcal/mol T*S(tot)=    23.85 kcal/mol

-------------------
GIBBS FREE ENTHALPY
-------------------

The Gibbs free enthalpy is G = H - T*S

Total enthalpy                    ...   -361.73286827 Eh
Total entropy correction          ...     -0.03931911 Eh    -24.67 kcal/mol
-----------------------------------------------------------------------
Final Gibbs free enthalpy         ...   -361.77218739 Eh

For completeness - the Gibbs free enthalpy minus the electronic energy
G-E(el)                           ...      0.09582702 Eh     60.13 kcal/mol

                             ****ORCA TERMINATED NORMALLY****
TOTAL RUN TIME: 0 days 0 hours 25 minutes 3 seconds 290 msec
