                         Program Version 3.0.3 - RELEASE   -
|  1> ! NORI PBE0 def2-TZVP UseSym TightOPT Freq TightSCF Grid3 FinalGrid5 XYZFile
|  2> % pal
|  3>     nprocs 8
|  4> end
|  5> %method
|  6>     SymThresh 5.0e-2
|  7> end
|  8> % geom
|  9>     MaxIter 10
| 10> end
| 11> % maxcore 2000
| 12> % output
| 13>     printlevel mini
| 14>     print[ P_Basis ] 0
| 15>     print[ P_SCFInfo ] 1
| 16>     print[ P_SCFIterInfo ] 1
| 17>     print[ P_OrbEn ] 0
| 18>     print[ P_Cartesian ] 0
| 19> end
| 20> % elprop
| 21>     Dipole false
| 22> end
| 23> *xyz 1 1
| 24>  O        1.0429610457     0.1767170169    -0.1206806914
| 25>  C        2.3952936667    -0.0465160828     0.1293878349
| 26>  C        2.8019601127    -1.0769349955    -0.8958100711
| 27>  N        4.2480805544    -1.5408079314    -0.8045738792
| 28>  C        3.8077350136    -2.9572194072    -1.1200119968
| 29>  C        2.3570649183    -2.5548772138    -0.7661310964
| 30>  O        1.3195948654    -3.0405313525    -1.5114082976
| 31>  H        0.6894676008     0.8208268140     0.4997160010
| 32>  H        3.0045450928     0.8616526591     0.0064772135
| 33>  H        2.5753816565    -0.4429569863     1.1415898617
| 34>  H        2.6367936897    -0.6996639129    -1.9082851328
| 35>  H        4.9129965937    -1.1100392714    -1.4447431070
| 36>  H        4.6174988786    -1.4541898518     0.1424226134
| 37>  H        4.3236849152    -3.7103081023    -0.5291301034
| 38>  H        3.9515905303    -3.1390261478    -2.1843709328
| 39>  H        2.1312011147    -2.7928733944     0.2766032312
| 40>  H        1.3874097509    -2.7816418399    -2.4364214474
| 41> *
| 42>
| 43>                          ****END OF INPUT****
 Total Charge           Charge          ....    1
 Multiplicity           Mult            ....    1
 Number of Electrons    NEL             ....   56
FINAL SINGLE POINT ENERGY      -363.090535201081
FINAL SINGLE POINT ENERGY      -363.090536209877
FINAL SINGLE POINT ENERGY      -363.090537278819

CARTESIAN COORDINATES (ANGSTROEM)
---------------------------------
  O     -0.002497   -0.002331    2.366167
  C     -0.998692    0.188073    1.411127
  C     -0.411237   -0.372759    0.138587
  N     -1.296386   -0.239361   -1.091933
  C     -0.074977    0.086386   -1.929377
  C      0.704010    0.383017   -0.626757
  O      2.011421   -0.000184   -0.519393
  H     -0.282539    0.348229    3.216652
  H     -1.930055   -0.344344    1.657751
  H     -1.243965    1.252616    1.265695
  H     -0.166495   -1.430829    0.259900
  H     -1.837324   -1.058771   -1.363206
  H     -1.935569    0.552469   -1.018853
  H     -0.247807    0.879535   -2.653651
  H      0.259593   -0.822404   -2.429108
  H      0.670388    1.449467   -0.387640
  H      2.118474   -0.951890   -0.619646

FINAL SINGLE POINT ENERGY      -363.090537759297
                    ***********************HURRAY********************
 Multiplicity           Mult            ....    1
 Number of Electrons    NEL             ....   56
 Basis Dimension        Dim             ....  277
FINAL SINGLE POINT ENERGY      -363.090538160189

VIBRATIONAL FREQUENCIES
-----------------------

   0:         0.00 cm**-1
   1:         0.00 cm**-1
   2:         0.00 cm**-1
   3:         0.00 cm**-1
   4:         0.00 cm**-1
   5:         0.00 cm**-1
   6:        60.44 cm**-1
   7:       104.48 cm**-1
   8:       186.04 cm**-1
   9:       246.38 cm**-1
  10:       281.28 cm**-1
  11:       328.82 cm**-1
  12:       370.73 cm**-1
  13:       431.67 cm**-1
  14:       505.52 cm**-1
  15:       658.21 cm**-1
  16:       797.54 cm**-1
  17:       866.35 cm**-1
  18:       889.97 cm**-1
  19:       929.10 cm**-1
  20:       936.05 cm**-1
  21:      1017.87 cm**-1
  22:      1080.63 cm**-1
  23:      1099.40 cm**-1
  24:      1120.80 cm**-1
  25:      1152.55 cm**-1
  26:      1205.40 cm**-1
  27:      1223.49 cm**-1
  28:      1237.35 cm**-1
  29:      1261.15 cm**-1
  30:      1281.97 cm**-1
  31:      1303.79 cm**-1
  32:      1308.14 cm**-1
  33:      1319.45 cm**-1
  34:      1359.29 cm**-1
  35:      1388.59 cm**-1
  36:      1447.89 cm**-1
  37:      1472.93 cm**-1
  38:      1489.11 cm**-1
  39:      1517.49 cm**-1
  40:      1646.10 cm**-1
  41:      2976.76 cm**-1
  42:      3014.92 cm**-1
  43:      3093.53 cm**-1
  44:      3111.63 cm**-1
  45:      3118.84 cm**-1
  46:      3193.96 cm**-1
  47:      3464.61 cm**-1
  48:      3533.64 cm**-1
  49:      3835.07 cm**-1
  50:      3863.49 cm**-1

IR SPECTRUM
-----------

 Mode    freq (cm**-1)   T**2         TX         TY         TZ
-------------------------------------------------------------------
   6:        60.44    6.570838  (  1.336805   2.175854   0.222376)
   7:       104.48    1.505519  ( -0.080035  -0.529866   1.103791)
   8:       186.04   20.763030  ( -2.143518  -3.942868   0.788767)
   9:       246.38  112.408493  (  4.416993   8.776162  -3.984676)
  10:       281.28   42.382233  ( -0.841820   2.486429   5.957453)
  11:       328.82   60.550525  ( -0.988878  -2.264638   7.378622)
  12:       370.73   40.181994  (  0.113281   1.079238  -6.245351)
  13:       431.67    4.160605  (  0.582894   0.271195   1.935793)
  14:       505.52    2.013820  ( -0.891538   0.974545   0.518884)
  15:       658.21   12.883912  (  2.653071   1.511755   1.886722)
  16:       797.54    6.196904  (  1.456076  -0.819219  -1.845434)
  17:       866.35   11.306896  ( -1.338067   2.802689  -1.288956)
  18:       889.97   18.654552  ( -0.737411  -0.183286  -4.251727)
  19:       929.10    3.552842  ( -1.723044  -0.293897   0.705396)
  20:       936.05    8.228160  (  2.550507   0.733495   1.088605)
  21:      1017.87   26.900989  ( -1.393158   0.729984  -4.942390)
  22:      1080.63   54.545996  ( -6.221623   1.973335  -3.455915)
  23:      1099.40    6.225469  (  2.226717  -0.436415   1.037661)
  24:      1120.80   11.996351  ( -0.457057   0.150496  -3.429985)
  25:      1152.55   22.531887  ( -2.469335   0.041354  -4.053709)
  26:      1205.40  138.421313  (-11.675833   1.354420   0.511650)
  27:      1223.49   14.040520  ( -3.576256   1.057757  -0.363410)
  28:      1237.35    8.980649  ( -1.336763   0.186121   2.675644)
  29:      1261.15   72.255682  (  4.956883  -1.112831   6.815174)
  30:      1281.97    8.337188  ( -2.256745  -0.366329   1.763545)
  31:      1303.79   17.333409  (  3.320082  -0.857311   2.361247)
  32:      1308.14   39.530711  ( -0.509709   3.159728  -5.411749)
  33:      1319.45    0.512230  (  0.258857  -0.633043   0.210902)
  34:      1359.29    8.270364  (  1.561976  -0.026601  -2.414516)
  35:      1388.59    2.467617  (  0.488729  -0.805459  -1.256980)
  36:      1447.89   54.035962  ( -7.229192   1.103393  -0.746504)
  37:      1472.93    5.303885  ( -0.289886   0.063100   2.283828)
  38:      1489.11    9.732493  ( -0.748699  -1.344521  -2.713707)
  39:      1517.49    3.159036  ( -0.979546   1.002527   1.092916)
  40:      1646.10   64.391009  (  7.763138  -0.405495   1.990042)
  41:      2976.76   40.042676  (  4.873231  -2.835920   2.872604)
  42:      3014.92   23.845378  ( -2.967962  -3.760015   0.948084)
  43:      3093.53    2.642908  ( -1.254277   1.034095   0.018558)
  44:      3111.63    2.218597  ( -0.854607   1.065387   0.594301)
  45:      3118.84    2.454941  (  1.034760  -1.032624  -0.563827)
  46:      3193.96    0.536644  (  0.132994   0.245616   0.677221)
  47:      3464.61   62.309830  ( -7.723441   0.178191  -1.620658)
  48:      3533.64   86.847044  ( -0.679611  -8.934860  -2.559969)
  49:      3835.07   60.080847  ( -4.655816   6.187987   0.336202)
  50:      3863.49  118.988079  ( -0.317647   2.672692  10.570899)

--------------------------
THERMOCHEMISTRY AT 298.15K
--------------------------

Temperature         ... 298.15 K
Pressure            ... 1.00 atm
Total Mass          ... 104.13 AMU

Throughout the following assumptions are being made:
  (1) The electronic state is orbitally nondegenerate
  (2) There are no thermally accessible electronically excited states
  (3) Hindered rotations indicated by low frequency modes) are not
      treated as such but are treated as vibrations and this may
      case some error
  (4) All equations used are the standard statistical mechanics
      equations for an ideal gas
  (5) All vibrations are strinctly harmonic

------------
INNER ENERGY
------------

The inner energy is: U= E(el) + E(ZPE) + E(vib) + E(rot) + E(trans)
    E(el)   - is the total energy from the electronic structure calculation
              = E(kin-el) + E(nuc-el) + E(el-el) + E(nuc-nuc)
    E(ZPE)  - the the zero temperature vibrational energy from the frequency calculation
    E(vib)  - the the finite temperature correction to E(ZPE) due to population
              of excietd vibrational states
    E(rot)  - is the rotational thermal energy
    E(trans)- is the translational thermal energy

Summary of contributions to the inner energy U:
Electronic energy                ...   -363.09053816 Eh
Zero point energy                ...      0.15202763 Eh      95.40 kcal/mol
Thermal vibrational correction   ...      0.00497830 Eh       3.12 kcal/mol
Thermal rotational correction    ...      0.00141627 Eh       0.89 kcal/mol
Thermal translational correction ...      0.00141627 Eh       0.89 kcal/mol
-----------------------------------------------------------------------
Total thermal energy                   -362.93069968 Eh

Summary of corrections to the electronic energy:
(perhaps to be used in another calculation)
Total thermal correction                  0.00781085 Eh       4.90 kcal/mol
Non-thermal (ZPE) correction              0.15202763 Eh      95.40 kcal/mol
-----------------------------------------------------------------------
Total correction                          0.15983848 Eh     100.30 kcal/mol

--------
ENTHALPY
--------

The enthalpy is H = U + kB*T
                kB is Boltzmann's constant
Total free energy                 ...   -362.93069968 Eh
Thermal Enthalpy correction       ...      0.00094421 Eh       0.59 kcal/mol
-----------------------------------------------------------------------
Total Enthalpy                    ...   -362.92975547 Eh

-------
ENTROPY
-------

The entropy contributions are T*S = T*(S(el)+S(vib)+S(rot)+S(trans)
     S(el)   - electronic entropy
     S(vib)  - vibrational entropy
     S(rot)  - rotational entropy
     S(trans)- translational entropy
The entropies will be listed as mutliplied by the temperature to get
units of energy

Electronic entropy                ...      0.00000000 Eh      0.00 kcal/mol
Vibrational entropy               ...      0.00902583 Eh      5.66 kcal/mol
Rotational entropy                ...      0.01212236 Eh      7.61 kcal/mol
Translational entropy             ...      0.01892854 Eh     11.88 kcal/mol
-----------------------------------------------------------------------
Final entropy term                ...      0.04007674 Eh     25.15 kcal/mol

CAUTION: The rotational entropy is not quite correctly treated here
         because it includes a symmetry number that is not yet correctly
         implemented in ORCA!
For a nonlinear molecule the correct rotational entropy is:
    S(rot) = R*(ln(qrot/sn)+1.5)
    R    = 8.31441 J/mol/K = 1.987191683e-3 kcal/mol/K
    qrot = 252113.6861133
    sn is the rotational symmetry number. We have assumed 3 here
       if it is different for your molecule then you should correct
       the printed rotational entropy by manually evaluating the equation
       as given above

For convenience we print out the resulting values for sn=1 - 12:
 sn= 1  qrot/sn=  252113.6861 T*S(rot)=     8.26 kcal/mol T*S(tot)=    25.80 kcal/mol
 sn= 2  qrot/sn=  126056.8431 T*S(rot)=     7.85 kcal/mol T*S(tot)=    25.39 kcal/mol
 sn= 3  qrot/sn=   84037.8954 T*S(rot)=     7.61 kcal/mol T*S(tot)=    25.15 kcal/mol
 sn= 4  qrot/sn=   63028.4215 T*S(rot)=     7.44 kcal/mol T*S(tot)=    24.98 kcal/mol
 sn= 5  qrot/sn=   50422.7372 T*S(rot)=     7.30 kcal/mol T*S(tot)=    24.85 kcal/mol
 sn= 6  qrot/sn=   42018.9477 T*S(rot)=     7.20 kcal/mol T*S(tot)=    24.74 kcal/mol
 sn= 7  qrot/sn=   36016.2409 T*S(rot)=     7.10 kcal/mol T*S(tot)=    24.65 kcal/mol
 sn= 8  qrot/sn=   31514.2108 T*S(rot)=     7.03 kcal/mol T*S(tot)=    24.57 kcal/mol
 sn= 9  qrot/sn=   28012.6318 T*S(rot)=     6.96 kcal/mol T*S(tot)=    24.50 kcal/mol
 sn=10  qrot/sn=   25211.3686 T*S(rot)=     6.89 kcal/mol T*S(tot)=    24.44 kcal/mol
 sn=11  qrot/sn=   22919.4260 T*S(rot)=     6.84 kcal/mol T*S(tot)=    24.38 kcal/mol
 sn=12  qrot/sn=   21009.4738 T*S(rot)=     6.79 kcal/mol T*S(tot)=    24.33 kcal/mol

-------------------
GIBBS FREE ENTHALPY
-------------------

The Gibbs free enthalpy is G = H - T*S

Total enthalpy                    ...   -362.92975547 Eh
Total entropy correction          ...     -0.04007674 Eh    -25.15 kcal/mol
-----------------------------------------------------------------------
Final Gibbs free enthalpy         ...   -362.96983221 Eh

For completeness - the Gibbs free enthalpy minus the electronic energy
G-E(el)                           ...      0.12070595 Eh     75.74 kcal/mol

                             ****ORCA TERMINATED NORMALLY****
TOTAL RUN TIME: 0 days 0 hours 36 minutes 41 seconds 10 msec
