                         Program Version 3.0.3 - RELEASE   -
|  1> ! NORI PBE0 def2-TZVP UseSym TightOPT Freq TightSCF Grid3 FinalGrid5 XYZFile
|  2> % pal
|  3>     nprocs 8
|  4> end
|  5> %method
|  6>     SymThresh 5.0e-2
|  7> end
|  8> % geom
|  9>     MaxIter 10
| 10> end
| 11> % maxcore 2000
| 12> % output
| 13>     printlevel mini
| 14>     print[ P_Basis ] 0
| 15>     print[ P_SCFInfo ] 1
| 16>     print[ P_SCFIterInfo ] 1
| 17>     print[ P_OrbEn ] 0
| 18>     print[ P_Cartesian ] 0
| 19> end
| 20> % elprop
| 21>     Dipole false
| 22> end
| 23> *xyz 1 1
| 24>  O        1.9419578445     0.1618289889     1.4013731571
| 25>  C        2.0595688699    -0.1894049541     0.2630147182
| 26>  C        3.0877701123    -1.2582481475    -0.0773960258
| 27>  N        3.7595636503    -1.6791172112     1.1995866365
| 28>  C        3.1968779788    -3.0853674051     1.1230259915
| 29>  C        2.5229975132    -2.7025234756    -0.1945172063
| 30>  O        1.8549252275    -3.2542330510    -0.9852816507
| 31>  H        1.4460963458     0.1911022666    -0.5667153720
| 32>  H        3.7715825076    -0.9548737210    -0.8727749974
| 33>  H        3.3597374039    -1.0963691030     1.9570071712
| 34>  H        4.7761593365    -1.6152777075     1.2103489603
| 35>  H        3.9762738351    -3.8438181130     1.0452559008
| 36>  H        2.5274793748    -3.3057083666     1.9555227165
| 37> *
| 38>
| 39>                          ****END OF INPUT****
 Total Charge           Charge          ....    1
 Multiplicity           Mult            ....    1
 Number of Electrons    NEL             ....   52
FINAL SINGLE POINT ENERGY      -360.661353926509
FINAL SINGLE POINT ENERGY      -360.661352636764

CARTESIAN COORDINATES (ANGSTROEM)
---------------------------------
  O     -0.000281   -0.000695    2.222177
  C      0.437602   -0.735735    1.384988
  C     -0.223476   -0.771577    0.015028
  N     -1.351279    0.221804    0.018012
  C     -0.682613    1.100866   -1.021223
  C      0.469117    0.097138   -1.073205
  O      1.469498    0.000195   -1.678010
  H      1.317657   -1.379704    1.528452
  H     -0.505294   -1.779234   -0.296803
  H     -1.389348    0.632469    0.968189
  H     -2.266323   -0.142299   -0.241388
  H     -1.268958    1.185912   -1.936375
  H     -0.438108    2.088459   -0.627908

FINAL SINGLE POINT ENERGY      -360.661354296682
                    ***********************HURRAY********************
 Multiplicity           Mult            ....    1
 Number of Electrons    NEL             ....   52
 Basis Dimension        Dim             ....  253
FINAL SINGLE POINT ENERGY      -360.661354337154

VIBRATIONAL FREQUENCIES
-----------------------

   0:         0.00 cm**-1
   1:         0.00 cm**-1
   2:         0.00 cm**-1
   3:         0.00 cm**-1
   4:         0.00 cm**-1
   5:         0.00 cm**-1
   6:       111.69 cm**-1
   7:       127.13 cm**-1
   8:       243.79 cm**-1
   9:       313.23 cm**-1
  10:       432.71 cm**-1
  11:       517.99 cm**-1
  12:       648.75 cm**-1
  13:       723.98 cm**-1
  14:       792.85 cm**-1
  15:       826.87 cm**-1
  16:       884.23 cm**-1
  17:       924.27 cm**-1
  18:       935.13 cm**-1
  19:      1020.00 cm**-1
  20:      1049.12 cm**-1
  21:      1080.85 cm**-1
  22:      1128.06 cm**-1
  23:      1168.30 cm**-1
  24:      1261.18 cm**-1
  25:      1280.96 cm**-1
  26:      1309.36 cm**-1
  27:      1321.71 cm**-1
  28:      1371.06 cm**-1
  29:      1440.04 cm**-1
  30:      1623.42 cm**-1
  31:      1824.36 cm**-1
  32:      1987.64 cm**-1
  33:      3057.72 cm**-1
  34:      3106.83 cm**-1
  35:      3130.47 cm**-1
  36:      3179.22 cm**-1
  37:      3259.55 cm**-1
  38:      3522.49 cm**-1

IR SPECTRUM
-----------

 Mode    freq (cm**-1)   T**2         TX         TY         TZ
-------------------------------------------------------------------
   6:       111.69   10.400972  (  2.594856   0.166215   1.907896)
   7:       127.13    8.455870  ( -1.948845  -2.157425   0.058222)
   8:       243.79   18.080984  ( -1.068378   3.151329  -2.647391)
   9:       313.23   35.161850  (  4.197710  -0.793744   4.112305)
  10:       432.71    0.941486  ( -0.412158  -0.876878  -0.051936)
  11:       517.99    1.177475  (  0.268015   0.112900  -1.045417)
  12:       648.75   12.913243  ( -1.918852   1.112404  -2.827332)
  13:       723.98    7.837561  (  2.372301   0.003126   1.486520)
  14:       792.85    8.605630  ( -0.746380   0.944836  -2.675039)
  15:       826.87   13.467846  (  2.895982   1.809874   1.343686)
  16:       884.23   38.503571  ( -0.363641   2.126327  -5.818081)
  17:       924.27   28.836177  ( -0.003540  -2.206483   4.895671)
  18:       935.13    5.220191  (  1.854616   0.919467   0.967042)
  19:      1020.00  102.618712  (  0.352143   4.382062  -9.126458)
  20:      1049.12   47.616430  (  1.238832  -5.745347   3.615621)
  21:      1080.85    1.727262  (  1.040599  -0.664840   0.449894)
  22:      1128.06    3.619709  (  1.562288   0.984851   0.457200)
  23:      1168.30   75.725730  ( -1.743539   2.101452  -8.262548)
  24:      1261.18   45.298760  ( -4.073556   5.283457  -0.888815)
  25:      1280.96   32.499210  (  3.464980  -4.525980   0.092890)
  26:      1309.36   21.675459  ( -2.243429   3.930882  -1.091170)
  27:      1321.71   12.312592  ( -0.558574   1.994979  -2.832074)
  28:      1371.06   15.248636  ( -1.938469   3.039743  -1.500314)
  29:      1440.04   25.228387  ( -2.280929   4.401648  -0.806998)
  30:      1623.42   81.459952  ( -7.781849   1.620475   4.275142)
  31:      1824.36  154.739401  ( -2.676196   3.494921  11.634556)
  32:      1987.64  248.636377  (-12.290689   0.230108   9.875342)
  33:      3057.72    3.486292  ( -0.941925   1.535348  -0.491708)
  34:      3106.83   12.270363  (  1.538479  -3.064387   0.716225)
  35:      3130.47   14.265744  ( -1.694959  -3.304195  -0.689317)
  36:      3179.22    8.855574  (  1.523268   1.317330   2.190861)
  37:      3259.55  156.460390  ( -0.798126  -1.035113 -12.439933)
  38:      3522.49  131.263746  ( 10.380513   3.178834   3.661107)

--------------------------
THERMOCHEMISTRY AT 298.15K
--------------------------

Temperature         ... 298.15 K
Pressure            ... 1.00 atm
Total Mass          ... 100.10 AMU

Throughout the following assumptions are being made:
  (1) The electronic state is orbitally nondegenerate
  (2) There are no thermally accessible electronically excited states
  (3) Hindered rotations indicated by low frequency modes) are not
      treated as such but are treated as vibrations and this may
      case some error
  (4) All equations used are the standard statistical mechanics
      equations for an ideal gas
  (5) All vibrations are strinctly harmonic

------------
INNER ENERGY
------------

The inner energy is: U= E(el) + E(ZPE) + E(vib) + E(rot) + E(trans)
    E(el)   - is the total energy from the electronic structure calculation
              = E(kin-el) + E(nuc-el) + E(el-el) + E(nuc-nuc)
    E(ZPE)  - the the zero temperature vibrational energy from the frequency calculation
    E(vib)  - the the finite temperature correction to E(ZPE) due to population
              of excietd vibrational states
    E(rot)  - is the rotational thermal energy
    E(trans)- is the translational thermal energy

Summary of contributions to the inner energy U:
Electronic energy                ...   -360.66135434 Eh
Zero point energy                ...      0.10389575 Eh      65.20 kcal/mol
Thermal vibrational correction   ...      0.00352800 Eh       2.21 kcal/mol
Thermal rotational correction    ...      0.00141627 Eh       0.89 kcal/mol
Thermal translational correction ...      0.00141627 Eh       0.89 kcal/mol
-----------------------------------------------------------------------
Total thermal energy                   -360.55109805 Eh

Summary of corrections to the electronic energy:
(perhaps to be used in another calculation)
Total thermal correction                  0.00636054 Eh       3.99 kcal/mol
Non-thermal (ZPE) correction              0.10389575 Eh      65.20 kcal/mol
-----------------------------------------------------------------------
Total correction                          0.11025629 Eh      69.19 kcal/mol

--------
ENTHALPY
--------

The enthalpy is H = U + kB*T
                kB is Boltzmann's constant
Total free energy                 ...   -360.55109805 Eh
Thermal Enthalpy correction       ...      0.00094421 Eh       0.59 kcal/mol
-----------------------------------------------------------------------
Total Enthalpy                    ...   -360.55015384 Eh

-------
ENTROPY
-------

The entropy contributions are T*S = T*(S(el)+S(vib)+S(rot)+S(trans)
     S(el)   - electronic entropy
     S(vib)  - vibrational entropy
     S(rot)  - rotational entropy
     S(trans)- translational entropy
The entropies will be listed as mutliplied by the temperature to get
units of energy

Electronic entropy                ...      0.00000000 Eh      0.00 kcal/mol
Vibrational entropy               ...      0.00606016 Eh      3.80 kcal/mol
Rotational entropy                ...      0.01189531 Eh      7.46 kcal/mol
Translational entropy             ...      0.01887262 Eh     11.84 kcal/mol
-----------------------------------------------------------------------
Final entropy term                ...      0.03682809 Eh     23.11 kcal/mol

CAUTION: The rotational entropy is not quite correctly treated here
         because it includes a symmetry number that is not yet correctly
         implemented in ORCA!
For a nonlinear molecule the correct rotational entropy is:
    S(rot) = R*(ln(qrot/sn)+1.5)
    R    = 8.31441 J/mol/K = 1.987191683e-3 kcal/mol/K
    qrot = 198225.9219754
    sn is the rotational symmetry number. We have assumed 3 here
       if it is different for your molecule then you should correct
       the printed rotational entropy by manually evaluating the equation
       as given above

For convenience we print out the resulting values for sn=1 - 12:
 sn= 1  qrot/sn=  198225.9220 T*S(rot)=     8.12 kcal/mol T*S(tot)=    23.76 kcal/mol
 sn= 2  qrot/sn=   99112.9610 T*S(rot)=     7.70 kcal/mol T*S(tot)=    23.35 kcal/mol
 sn= 3  qrot/sn=   66075.3073 T*S(rot)=     7.46 kcal/mol T*S(tot)=    23.11 kcal/mol
 sn= 4  qrot/sn=   49556.4805 T*S(rot)=     7.29 kcal/mol T*S(tot)=    22.94 kcal/mol
 sn= 5  qrot/sn=   39645.1844 T*S(rot)=     7.16 kcal/mol T*S(tot)=    22.81 kcal/mol
 sn= 6  qrot/sn=   33037.6537 T*S(rot)=     7.05 kcal/mol T*S(tot)=    22.70 kcal/mol
 sn= 7  qrot/sn=   28317.9889 T*S(rot)=     6.96 kcal/mol T*S(tot)=    22.61 kcal/mol
 sn= 8  qrot/sn=   24778.2402 T*S(rot)=     6.88 kcal/mol T*S(tot)=    22.53 kcal/mol
 sn= 9  qrot/sn=   22025.1024 T*S(rot)=     6.81 kcal/mol T*S(tot)=    22.46 kcal/mol
 sn=10  qrot/sn=   19822.5922 T*S(rot)=     6.75 kcal/mol T*S(tot)=    22.40 kcal/mol
 sn=11  qrot/sn=   18020.5384 T*S(rot)=     6.69 kcal/mol T*S(tot)=    22.34 kcal/mol
 sn=12  qrot/sn=   16518.8268 T*S(rot)=     6.64 kcal/mol T*S(tot)=    22.29 kcal/mol

-------------------
GIBBS FREE ENTHALPY
-------------------

The Gibbs free enthalpy is G = H - T*S

Total enthalpy                    ...   -360.55015384 Eh
Total entropy correction          ...     -0.03682809 Eh    -23.11 kcal/mol
-----------------------------------------------------------------------
Final Gibbs free enthalpy         ...   -360.58698193 Eh

For completeness - the Gibbs free enthalpy minus the electronic energy
G-E(el)                           ...      0.07437241 Eh     46.67 kcal/mol

                             ****ORCA TERMINATED NORMALLY****
TOTAL RUN TIME: 0 days 0 hours 26 minutes 4 seconds 312 msec
