                         Program Version 3.0.3 - RELEASE   -
|  1> ! NORI PBE0 def2-TZVP UseSym TightOPT Freq TightSCF Grid3 FinalGrid5 XYZFile
|  2> % pal
|  3>     nprocs 8
|  4> end
|  5> %method
|  6>     SymThresh 5.0e-2
|  7> end
|  8> % geom
|  9>     MaxIter 10
| 10> end
| 11> % maxcore 2000
| 12> % output
| 13>     printlevel mini
| 14>     print[ P_Basis ] 0
| 15>     print[ P_SCFInfo ] 1
| 16>     print[ P_SCFIterInfo ] 1
| 17>     print[ P_OrbEn ] 0
| 18>     print[ P_Cartesian ] 0
| 19> end
| 20> % elprop
| 21>     Dipole false
| 22> end
| 23> *xyz 1 1
| 24>  O        1.0680127339     0.1879220674     0.0431825912
| 25>  C        2.4357601407    -0.0548387971     0.0540294353
| 26>  C        2.6979123890    -0.7894309529    -1.2513457927
| 27>  N        4.1774510723    -0.9882416483    -1.5894884943
| 28>  C        4.0086459233    -2.4921619903    -1.7225722551
| 29>  C        2.5460379615    -2.3164477212    -1.2923051548
| 30>  O        1.6704382827    -3.0651223849    -1.0573314898
| 31>  H        0.7435492567     0.3440263592     0.9349765814
| 32>  H        3.0285793639     0.8737558383     0.0617846657
| 33>  H        2.7536356756    -0.6718303640     0.9060337610
| 34>  H        2.1893265745    -0.2778063539    -2.0725619903
| 35>  H        4.4874082037    -0.5142620605    -2.4367063063
| 36>  H        4.8032521409    -0.7167425429    -0.8307565975
| 37>  H        4.6619778286    -3.0495455602    -1.0518202226
| 38>  H        4.1473724526    -2.8208638889    -2.7527087311
| 39> *
| 40>
| 41>                          ****END OF INPUT****
 Total Charge           Charge          ....    1
 Multiplicity           Mult            ....    1
 Number of Electrons    NEL             ....   54
FINAL SINGLE POINT ENERGY      -361.872144882625
FINAL SINGLE POINT ENERGY      -361.872145930070
FINAL SINGLE POINT ENERGY      -361.872149433899
FINAL SINGLE POINT ENERGY      -361.872151828252
FINAL SINGLE POINT ENERGY      -361.872154582599
FINAL SINGLE POINT ENERGY      -361.872155706740

CARTESIAN COORDINATES (ANGSTROEM)
---------------------------------
  O     -0.028732   -0.010158    2.403143
  C     -0.747818    0.529182    1.343696
  C     -0.445905   -0.391377    0.170737
  N     -1.312198   -0.158756   -1.069997
  C     -0.095517    0.040917   -1.957703
  C      0.780383   -0.103749   -0.706048
  O      1.933717    0.001162   -0.502057
  H      0.187779    0.668602    3.048822
  H     -1.833910    0.520542    1.528977
  H     -0.449678    1.558946    1.105011
  H     -0.520585   -1.433147    0.492614
  H     -1.904393   -0.947162   -1.327080
  H     -1.904188    0.669123   -0.999521
  H     -0.093896    1.011047   -2.454048
  H      0.005758   -0.762564   -2.687494

FINAL SINGLE POINT ENERGY      -361.872156067011
                    ***********************HURRAY********************
 Multiplicity           Mult            ....    1
 Number of Electrons    NEL             ....   54
 Basis Dimension        Dim             ....  265
FINAL SINGLE POINT ENERGY      -361.872156280104

VIBRATIONAL FREQUENCIES
-----------------------

   0:         0.00 cm**-1
   1:         0.00 cm**-1
   2:         0.00 cm**-1
   3:         0.00 cm**-1
   4:         0.00 cm**-1
   5:         0.00 cm**-1
   6:        60.16 cm**-1
   7:        95.99 cm**-1
   8:       137.87 cm**-1
   9:       196.18 cm**-1
  10:       265.15 cm**-1
  11:       409.69 cm**-1
  12:       442.76 cm**-1
  13:       527.79 cm**-1
  14:       720.96 cm**-1
  15:       767.75 cm**-1
  16:       807.76 cm**-1
  17:       859.64 cm**-1
  18:       915.55 cm**-1
  19:       962.66 cm**-1
  20:      1019.71 cm**-1
  21:      1064.55 cm**-1
  22:      1092.34 cm**-1
  23:      1099.27 cm**-1
  24:      1163.09 cm**-1
  25:      1219.39 cm**-1
  26:      1249.26 cm**-1
  27:      1274.67 cm**-1
  28:      1286.53 cm**-1
  29:      1293.93 cm**-1
  30:      1312.22 cm**-1
  31:      1333.74 cm**-1
  32:      1442.83 cm**-1
  33:      1453.01 cm**-1
  34:      1512.80 cm**-1
  35:      1646.70 cm**-1
  36:      1981.74 cm**-1
  37:      2982.40 cm**-1
  38:      3039.81 cm**-1
  39:      3110.57 cm**-1
  40:      3114.99 cm**-1
  41:      3184.15 cm**-1
  42:      3467.89 cm**-1
  43:      3533.35 cm**-1
  44:      3867.08 cm**-1

IR SPECTRUM
-----------

 Mode    freq (cm**-1)   T**2         TX         TY         TZ
-------------------------------------------------------------------
   6:        60.16    3.279218  (  1.784844  -0.226283   0.205781)
   7:        95.99    2.684603  ( -1.493584  -0.279992  -0.612712)
   8:       137.87   99.567799  (  8.515236   1.494782  -4.982387)
   9:       196.18   20.873827  ( -3.414555  -2.144468   2.148464)
  10:       265.15    0.679870  (  0.168587   0.128326   0.796857)
  11:       409.69   15.483290  (  1.325990   0.179797   3.700367)
  12:       442.76    2.162641  ( -0.394868  -0.422309   1.352174)
  13:       527.79    0.237063  ( -0.334120  -0.235668  -0.264363)
  14:       720.96    6.496361  (  2.082375   0.714303   1.284464)
  15:       767.75    7.668008  ( -1.795822  -0.554842  -2.033514)
  16:       807.76    7.616894  ( -0.006494   2.734665  -0.372100)
  17:       859.64   30.669789  (  0.138266   0.363623   5.524351)
  18:       915.55    4.562614  (  1.450121   0.649346  -1.427625)
  19:       962.66    9.253522  (  2.751826  -1.259926  -0.305880)
  20:      1019.71   22.122987  ( -1.729761   0.387351  -4.356704)
  21:      1064.55   52.617733  (  1.268163   1.235196  -7.034471)
  22:      1092.34   10.519215  (  2.189654  -2.045272   1.241569)
  23:      1099.27   96.901835  ( -2.215565   3.352494  -8.986317)
  24:      1163.09   14.081232  ( -2.268226   0.305491  -2.973728)
  25:      1219.39   26.653237  ( -2.594856   0.811517   4.388781)
  26:      1249.26   36.844423  ( -0.781859   0.699151  -5.978654)
  27:      1274.67    2.830463  ( -0.885953   0.199734  -1.416212)
  28:      1286.53   50.302627  ( -2.526557   3.723253  -5.482383)
  29:      1293.93   13.120498  (  1.371477   0.889167  -3.232481)
  30:      1312.22   11.716246  ( -0.501737   2.060594  -2.686719)
  31:      1333.74    4.466059  ( -2.000993   0.508156  -0.451513)
  32:      1442.83   23.347983  ( -0.493666   0.257328  -4.799798)
  33:      1453.01    5.805896  ( -1.647445   1.109554   1.364079)
  34:      1512.80    2.754754  (  0.211279  -1.322239  -0.980713)
  35:      1646.70   61.617609  ( -7.585017   0.630006  -1.920472)
  36:      1981.74  223.389898  (-14.837992  -0.433535  -1.742391)
  37:      2982.40   35.543079  (  4.988934  -2.026956   2.558333)
  38:      3039.81   14.747344  ( -1.667945  -3.106927   1.520628)
  39:      3110.57   11.202005  (  0.324702  -0.637530   3.269576)
  40:      3114.99    2.612370  (  0.754392   1.390626  -0.330792)
  41:      3184.15    6.694136  (  0.143113  -2.529768  -0.523382)
  42:      3467.89   77.390830  ( -8.609394   0.761745  -1.639789)
  43:      3533.35  103.544805  ( -1.676022  -9.703373  -2.565211)
  44:      3867.08  135.854441  (  3.585965   5.169931   9.811580)

--------------------------
THERMOCHEMISTRY AT 298.15K
--------------------------

Temperature         ... 298.15 K
Pressure            ... 1.00 atm
Total Mass          ... 102.11 AMU

Throughout the following assumptions are being made:
  (1) The electronic state is orbitally nondegenerate
  (2) There are no thermally accessible electronically excited states
  (3) Hindered rotations indicated by low frequency modes) are not
      treated as such but are treated as vibrations and this may
      case some error
  (4) All equations used are the standard statistical mechanics
      equations for an ideal gas
  (5) All vibrations are strinctly harmonic

------------
INNER ENERGY
------------

The inner energy is: U= E(el) + E(ZPE) + E(vib) + E(rot) + E(trans)
    E(el)   - is the total energy from the electronic structure calculation
              = E(kin-el) + E(nuc-el) + E(el-el) + E(nuc-nuc)
    E(ZPE)  - the the zero temperature vibrational energy from the frequency calculation
    E(vib)  - the the finite temperature correction to E(ZPE) due to population
              of excietd vibrational states
    E(rot)  - is the rotational thermal energy
    E(trans)- is the translational thermal energy

Summary of contributions to the inner energy U:
Electronic energy                ...   -361.87215628 Eh
Zero point energy                ...      0.12738582 Eh      79.94 kcal/mol
Thermal vibrational correction   ...      0.00469139 Eh       2.94 kcal/mol
Thermal rotational correction    ...      0.00141627 Eh       0.89 kcal/mol
Thermal translational correction ...      0.00141627 Eh       0.89 kcal/mol
-----------------------------------------------------------------------
Total thermal energy                   -361.73724652 Eh

Summary of corrections to the electronic energy:
(perhaps to be used in another calculation)
Total thermal correction                  0.00752394 Eh       4.72 kcal/mol
Non-thermal (ZPE) correction              0.12738582 Eh      79.94 kcal/mol
-----------------------------------------------------------------------
Total correction                          0.13490976 Eh      84.66 kcal/mol

--------
ENTHALPY
--------

The enthalpy is H = U + kB*T
                kB is Boltzmann's constant
Total free energy                 ...   -361.73724652 Eh
Thermal Enthalpy correction       ...      0.00094421 Eh       0.59 kcal/mol
-----------------------------------------------------------------------
Total Enthalpy                    ...   -361.73630231 Eh

-------
ENTROPY
-------

The entropy contributions are T*S = T*(S(el)+S(vib)+S(rot)+S(trans)
     S(el)   - electronic entropy
     S(vib)  - vibrational entropy
     S(rot)  - rotational entropy
     S(trans)- translational entropy
The entropies will be listed as mutliplied by the temperature to get
units of energy

Electronic entropy                ...      0.00000000 Eh      0.00 kcal/mol
Vibrational entropy               ...      0.00886914 Eh      5.57 kcal/mol
Rotational entropy                ...      0.01205058 Eh      7.56 kcal/mol
Translational entropy             ...      0.01890086 Eh     11.86 kcal/mol
-----------------------------------------------------------------------
Final entropy term                ...      0.03982058 Eh     24.99 kcal/mol

CAUTION: The rotational entropy is not quite correctly treated here
         because it includes a symmetry number that is not yet correctly
         implemented in ORCA!
For a nonlinear molecule the correct rotational entropy is:
    S(rot) = R*(ln(qrot/sn)+1.5)
    R    = 8.31441 J/mol/K = 1.987191683e-3 kcal/mol/K
    qrot = 233657.9486453
    sn is the rotational symmetry number. We have assumed 3 here
       if it is different for your molecule then you should correct
       the printed rotational entropy by manually evaluating the equation
       as given above

For convenience we print out the resulting values for sn=1 - 12:
 sn= 1  qrot/sn=  233657.9486 T*S(rot)=     8.21 kcal/mol T*S(tot)=    25.64 kcal/mol
 sn= 2  qrot/sn=  116828.9743 T*S(rot)=     7.80 kcal/mol T*S(tot)=    25.23 kcal/mol
 sn= 3  qrot/sn=   77885.9829 T*S(rot)=     7.56 kcal/mol T*S(tot)=    24.99 kcal/mol
 sn= 4  qrot/sn=   58414.4872 T*S(rot)=     7.39 kcal/mol T*S(tot)=    24.82 kcal/mol
 sn= 5  qrot/sn=   46731.5897 T*S(rot)=     7.26 kcal/mol T*S(tot)=    24.69 kcal/mol
 sn= 6  qrot/sn=   38942.9914 T*S(rot)=     7.15 kcal/mol T*S(tot)=    24.58 kcal/mol
 sn= 7  qrot/sn=   33379.7069 T*S(rot)=     7.06 kcal/mol T*S(tot)=    24.49 kcal/mol
 sn= 8  qrot/sn=   29207.2436 T*S(rot)=     6.98 kcal/mol T*S(tot)=    24.41 kcal/mol
 sn= 9  qrot/sn=   25961.9943 T*S(rot)=     6.91 kcal/mol T*S(tot)=    24.34 kcal/mol
 sn=10  qrot/sn=   23365.7949 T*S(rot)=     6.85 kcal/mol T*S(tot)=    24.27 kcal/mol
 sn=11  qrot/sn=   21241.6317 T*S(rot)=     6.79 kcal/mol T*S(tot)=    24.22 kcal/mol
 sn=12  qrot/sn=   19471.4957 T*S(rot)=     6.74 kcal/mol T*S(tot)=    24.17 kcal/mol

-------------------
GIBBS FREE ENTHALPY
-------------------

The Gibbs free enthalpy is G = H - T*S

Total enthalpy                    ...   -361.73630231 Eh
Total entropy correction          ...     -0.03982058 Eh    -24.99 kcal/mol
-----------------------------------------------------------------------
Final Gibbs free enthalpy         ...   -361.77612289 Eh

For completeness - the Gibbs free enthalpy minus the electronic energy
G-E(el)                           ...      0.09603339 Eh     60.26 kcal/mol

                             ****ORCA TERMINATED NORMALLY****
TOTAL RUN TIME: 0 days 0 hours 33 minutes 7 seconds 951 msec
