                         Program Version 3.0.3 - RELEASE   -
|  1> ! NORI PBE0 def2-TZVP UseSym TightOPT Freq TightSCF Grid3 FinalGrid5 XYZFile
|  2> % pal
|  3>     nprocs 8
|  4> end
|  5> %method
|  6>     SymThresh 5.0e-2
|  7> end
|  8> % geom
|  9>     MaxIter 10
| 10> end
| 11> % maxcore 2000
| 12> % output
| 13>     printlevel mini
| 14>     print[ P_Basis ] 0
| 15>     print[ P_SCFInfo ] 1
| 16>     print[ P_SCFIterInfo ] 1
| 17>     print[ P_OrbEn ] 0
| 18>     print[ P_Cartesian ] 0
| 19> end
| 20> % elprop
| 21>     Dipole false
| 22> end
| 23> *xyz 1 1
| 24>  O        2.1884850991     1.0671504655    -0.6900907314
| 25>  C        1.9607249275    -0.0236703960    -0.2844889501
| 26>  C        3.0802230603    -1.0468059049    -0.0774853524
| 27>  N        2.5290381172    -2.4535816974     0.0067904208
| 28>  C        3.1621780751    -3.1537072126     1.1931630418
| 29>  C        3.7761344806    -2.0199516668     1.9402172333
| 30>  C        3.7506841897    -0.8892769348     1.2534940859
| 31>  H        0.9375109280    -0.3535217485     0.0139657231
| 32>  H        3.7776159543    -0.9764878753    -0.9173752181
| 33>  H        2.6797982969    -2.9685988747    -0.8604019042
| 34>  H        1.5159065283    -2.4026148074     0.1444360327
| 35>  H        3.9001674973    -3.8704814001     0.8244032295
| 36>  H        2.3916550805    -3.7009423437     1.7381369144
| 37>  H        4.2187367144    -2.1601477098     2.9169421020
| 38>  H        4.1598510508     0.0649581066     1.5554633727
| 39> *
| 40>
| 41>                          ****END OF INPUT****
 Total Charge           Charge          ....    1
 Multiplicity           Mult            ....    1
 Number of Electrons    NEL             ....   52
FINAL SINGLE POINT ENERGY      -324.772817311276

CARTESIAN COORDINATES (ANGSTROEM)
---------------------------------
  O      0.000123   -0.000729    2.641131
  C      0.379964    0.381341    1.584767
  C      0.173282   -0.449355    0.315608
  N      1.101467    0.000045   -0.791836
  C      0.299696    0.141946   -2.070780
  C     -1.103516    0.111241   -1.570505
  C     -1.177550   -0.224150   -0.292710
  H      0.861508    1.377799    1.442481
  H      0.365439   -1.500277    0.550790
  H      1.886239   -0.640755   -0.906926
  H      1.499991    0.908602   -0.539451
  H      0.536263   -0.698668   -2.727992
  H      0.589248    1.065614   -2.573738
  H     -1.941851    0.307551   -2.225351
  H     -2.075921   -0.350761    0.295970

FINAL SINGLE POINT ENERGY      -324.772817805532
                    ***********************HURRAY********************
 Multiplicity           Mult            ....    1
 Number of Electrons    NEL             ....   52
 Basis Dimension        Dim             ....  265
FINAL SINGLE POINT ENERGY      -324.772818016905

VIBRATIONAL FREQUENCIES
-----------------------

   0:         0.00 cm**-1
   1:         0.00 cm**-1
   2:         0.00 cm**-1
   3:         0.00 cm**-1
   4:         0.00 cm**-1
   5:         0.00 cm**-1
   6:        59.78 cm**-1
   7:        78.89 cm**-1
   8:       240.75 cm**-1
   9:       269.56 cm**-1
  10:       436.41 cm**-1
  11:       479.86 cm**-1
  12:       680.87 cm**-1
  13:       742.79 cm**-1
  14:       789.10 cm**-1
  15:       854.48 cm**-1
  16:       895.37 cm**-1
  17:       923.06 cm**-1
  18:       958.25 cm**-1
  19:       985.36 cm**-1
  20:       999.11 cm**-1
  21:      1048.96 cm**-1
  22:      1060.62 cm**-1
  23:      1089.68 cm**-1
  24:      1137.19 cm**-1
  25:      1209.14 cm**-1
  26:      1248.65 cm**-1
  27:      1288.01 cm**-1
  28:      1329.11 cm**-1
  29:      1354.91 cm**-1
  30:      1374.96 cm**-1
  31:      1404.07 cm**-1
  32:      1411.87 cm**-1
  33:      1495.29 cm**-1
  34:      1640.16 cm**-1
  35:      1710.22 cm**-1
  36:      1886.54 cm**-1
  37:      2868.08 cm**-1
  38:      3085.00 cm**-1
  39:      3092.05 cm**-1
  40:      3140.98 cm**-1
  41:      3239.27 cm**-1
  42:      3257.75 cm**-1
  43:      3424.57 cm**-1
  44:      3510.91 cm**-1

IR SPECTRUM
-----------

 Mode    freq (cm**-1)   T**2         TX         TY         TZ
-------------------------------------------------------------------
   6:        59.78    9.934532  ( -2.506970   1.900595  -0.193314)
   7:        78.89    5.074734  ( -1.930122  -1.122249  -0.299866)
   8:       240.75    2.349260  ( -0.049728   1.173336  -0.984922)
   9:       269.56    5.290782  ( -1.724363  -1.368871   0.665994)
  10:       436.41    1.079151  (  0.526718  -0.486156  -0.751912)
  11:       479.86    8.817413  ( -1.417712  -0.142005  -2.605253)
  12:       680.87   43.213787  ( -0.146521   5.617385   3.411350)
  13:       742.79   46.700032  (  1.054456   6.413274   2.111415)
  14:       789.10    3.688935  ( -0.401009  -1.558658  -1.048195)
  15:       854.48    5.297513  ( -0.115677  -1.908148  -1.281837)
  16:       895.37    3.272191  ( -1.056627  -1.304577  -0.673654)
  17:       923.06    2.243493  ( -1.377591   0.370190  -0.456831)
  18:       958.25    1.126252  ( -0.342124   0.327937  -0.949558)
  19:       985.36    6.531475  (  1.051541   0.984780   2.110911)
  20:       999.11   32.716761  ( -1.346730  -1.059348  -5.457184)
  21:      1048.96    6.964006  ( -0.248132   2.567699  -0.556200)
  22:      1060.62   13.244081  ( -1.674475   1.595022   2.810003)
  23:      1089.68   28.471497  (  0.136580   0.090801   5.333348)
  24:      1137.19    1.477686  (  1.064762  -0.471218  -0.349172)
  25:      1209.14    2.172107  (  0.699952   0.934281   0.899607)
  26:      1248.65    9.959365  (  0.105090   0.004183   3.154093)
  27:      1288.01    6.592355  ( -0.735926   0.408543   2.425667)
  28:      1329.11    8.095289  ( -0.216430  -1.065394   2.629331)
  29:      1354.91    5.081188  ( -0.764678  -1.555775   1.440840)
  30:      1374.96    9.356757  ( -1.290869  -0.988693   2.590927)
  31:      1404.07    6.114703  (  0.682102   1.370618  -1.941867)
  32:      1411.87   40.764774  (  0.358592   1.466717  -6.203622)
  33:      1495.29   10.380342  (  1.508182   0.067491  -2.846256)
  34:      1640.16   67.918861  (  7.870700   2.435445  -0.198859)
  35:      1710.22    0.138270  (  0.183398  -0.054862  -0.318787)
  36:      1886.54  180.902966  ( -1.617268  -2.503767  13.115585)
  37:      2868.08   58.008354  ( -4.162807  -6.228808   1.371621)
  38:      3085.00    1.109547  ( -0.787014  -0.114850   0.690626)
  39:      3092.05    2.313863  ( -0.526825  -1.093963  -0.916276)
  40:      3140.98    0.268683  ( -0.021889   0.503276   0.122134)
  41:      3239.27   12.820194  ( -0.113714   0.750715  -3.499098)
  42:      3257.75   15.057317  ( -3.856316   0.028167   0.430521)
  43:      3424.57   49.575035  (  5.280952   3.884930   2.567858)
  44:      3510.91   96.158453  (  6.127261  -7.203177  -2.594104)

--------------------------
THERMOCHEMISTRY AT 298.15K
--------------------------

Temperature         ... 298.15 K
Pressure            ... 1.00 atm
Total Mass          ... 98.12 AMU

Throughout the following assumptions are being made:
  (1) The electronic state is orbitally nondegenerate
  (2) There are no thermally accessible electronically excited states
  (3) Hindered rotations indicated by low frequency modes) are not
      treated as such but are treated as vibrations and this may
      case some error
  (4) All equations used are the standard statistical mechanics
      equations for an ideal gas
  (5) All vibrations are strinctly harmonic

------------
INNER ENERGY
------------

The inner energy is: U= E(el) + E(ZPE) + E(vib) + E(rot) + E(trans)
    E(el)   - is the total energy from the electronic structure calculation
              = E(kin-el) + E(nuc-el) + E(el-el) + E(nuc-nuc)
    E(ZPE)  - the the zero temperature vibrational energy from the frequency calculation
    E(vib)  - the the finite temperature correction to E(ZPE) due to population
              of excietd vibrational states
    E(rot)  - is the rotational thermal energy
    E(trans)- is the translational thermal energy

Summary of contributions to the inner energy U:
Electronic energy                ...   -324.77281802 Eh
Zero point energy                ...      0.12917580 Eh      81.06 kcal/mol
Thermal vibrational correction   ...      0.00385234 Eh       2.42 kcal/mol
Thermal rotational correction    ...      0.00141627 Eh       0.89 kcal/mol
Thermal translational correction ...      0.00141627 Eh       0.89 kcal/mol
-----------------------------------------------------------------------
Total thermal energy                   -324.63695734 Eh

Summary of corrections to the electronic energy:
(perhaps to be used in another calculation)
Total thermal correction                  0.00668488 Eh       4.19 kcal/mol
Non-thermal (ZPE) correction              0.12917580 Eh      81.06 kcal/mol
-----------------------------------------------------------------------
Total correction                          0.13586067 Eh      85.25 kcal/mol

--------
ENTHALPY
--------

The enthalpy is H = U + kB*T
                kB is Boltzmann's constant
Total free energy                 ...   -324.63695734 Eh
Thermal Enthalpy correction       ...      0.00094421 Eh       0.59 kcal/mol
-----------------------------------------------------------------------
Total Enthalpy                    ...   -324.63601313 Eh

-------
ENTROPY
-------

The entropy contributions are T*S = T*(S(el)+S(vib)+S(rot)+S(trans)
     S(el)   - electronic entropy
     S(vib)  - vibrational entropy
     S(rot)  - rotational entropy
     S(trans)- translational entropy
The entropies will be listed as mutliplied by the temperature to get
units of energy

Electronic entropy                ...      0.00000000 Eh      0.00 kcal/mol
Vibrational entropy               ...      0.00730305 Eh      4.58 kcal/mol
Rotational entropy                ...      0.01190434 Eh      7.47 kcal/mol
Translational entropy             ...      0.01884443 Eh     11.83 kcal/mol
-----------------------------------------------------------------------
Final entropy term                ...      0.03805182 Eh     23.88 kcal/mol

CAUTION: The rotational entropy is not quite correctly treated here
         because it includes a symmetry number that is not yet correctly
         implemented in ORCA!
For a nonlinear molecule the correct rotational entropy is:
    S(rot) = R*(ln(qrot/sn)+1.5)
    R    = 8.31441 J/mol/K = 1.987191683e-3 kcal/mol/K
    qrot = 200129.7404484
    sn is the rotational symmetry number. We have assumed 3 here
       if it is different for your molecule then you should correct
       the printed rotational entropy by manually evaluating the equation
       as given above

For convenience we print out the resulting values for sn=1 - 12:
 sn= 1  qrot/sn=  200129.7404 T*S(rot)=     8.12 kcal/mol T*S(tot)=    24.53 kcal/mol
 sn= 2  qrot/sn=  100064.8702 T*S(rot)=     7.71 kcal/mol T*S(tot)=    24.12 kcal/mol
 sn= 3  qrot/sn=   66709.9135 T*S(rot)=     7.47 kcal/mol T*S(tot)=    23.88 kcal/mol
 sn= 4  qrot/sn=   50032.4351 T*S(rot)=     7.30 kcal/mol T*S(tot)=    23.71 kcal/mol
 sn= 5  qrot/sn=   40025.9481 T*S(rot)=     7.17 kcal/mol T*S(tot)=    23.58 kcal/mol
 sn= 6  qrot/sn=   33354.9567 T*S(rot)=     7.06 kcal/mol T*S(tot)=    23.47 kcal/mol
 sn= 7  qrot/sn=   28589.9629 T*S(rot)=     6.97 kcal/mol T*S(tot)=    23.38 kcal/mol
 sn= 8  qrot/sn=   25016.2176 T*S(rot)=     6.89 kcal/mol T*S(tot)=    23.30 kcal/mol
 sn= 9  qrot/sn=   22236.6378 T*S(rot)=     6.82 kcal/mol T*S(tot)=    23.23 kcal/mol
 sn=10  qrot/sn=   20012.9740 T*S(rot)=     6.76 kcal/mol T*S(tot)=    23.16 kcal/mol
 sn=11  qrot/sn=   18193.6128 T*S(rot)=     6.70 kcal/mol T*S(tot)=    23.11 kcal/mol
 sn=12  qrot/sn=   16677.4784 T*S(rot)=     6.65 kcal/mol T*S(tot)=    23.06 kcal/mol

-------------------
GIBBS FREE ENTHALPY
-------------------

The Gibbs free enthalpy is G = H - T*S

Total enthalpy                    ...   -324.63601313 Eh
Total entropy correction          ...     -0.03805182 Eh    -23.88 kcal/mol
-----------------------------------------------------------------------
Final Gibbs free enthalpy         ...   -324.67406495 Eh

For completeness - the Gibbs free enthalpy minus the electronic energy
G-E(el)                           ...      0.09875306 Eh     61.97 kcal/mol

                             ****ORCA TERMINATED NORMALLY****
TOTAL RUN TIME: 0 days 0 hours 30 minutes 13 seconds 504 msec
