                         Program Version 3.0.3 - RELEASE   -
|  1> ! NORI PBE0 def2-TZVP UseSym TightOPT Freq TightSCF Grid3 FinalGrid5 XYZFile
|  2> % pal
|  3>     nprocs 8
|  4> end
|  5> %method
|  6>     SymThresh 5.0e-2
|  7> end
|  8> % geom
|  9>     MaxIter 10
| 10> end
| 11> % maxcore 2000
| 12> % output
| 13>     printlevel mini
| 14>     print[ P_Basis ] 0
| 15>     print[ P_SCFInfo ] 1
| 16>     print[ P_SCFIterInfo ] 1
| 17>     print[ P_OrbEn ] 0
| 18>     print[ P_Cartesian ] 0
| 19> end
| 20> % elprop
| 21>     Dipole false
| 22> end
| 23> *xyz 1 1
| 24>  O        3.4240218138     0.6887105100    -0.8174738806
| 25>  C        2.4404289606     0.0007583382    -0.1102407810
| 26>  C        2.6151334585     0.4462273358     1.3340780849
| 27>  N        1.5979246359    -0.2298478782     2.2304754016
| 28>  C        1.1764907339     0.7641327569     3.2884198917
| 29>  C        1.5604087851     2.0629563193     2.6604079915
| 30>  C        2.3442430805     1.8904969951     1.6078825824
| 31>  H        3.4324191393     0.4088486168    -1.7372367166
| 32>  H        2.5616478617    -1.0906703813    -0.1803623145
| 33>  H        1.4239359366     0.2594698281    -0.4492365729
| 34>  H        3.6138859844     0.1540162588     1.6757732092
| 35>  H        1.9559519841    -1.0944996602     2.6339973449
| 36>  H        0.7831531964    -0.4756366909     1.6651626917
| 37>  H        1.7319196855     0.5523722700     4.2059273304
| 38>  H        0.1122283447     0.6417090410     3.4927903687
| 39>  H        1.2406272669     3.0093050882     3.0740830073
| 40>  H        2.7897091323     2.6627312525     0.9969223615
| 41> *
| 42>
| 43>                          ****END OF INPUT****
 Total Charge           Charge          ....    1
 Multiplicity           Mult            ....    1
 Number of Electrons    NEL             ....   54
FINAL SINGLE POINT ENERGY      -325.999787996689

CARTESIAN COORDINATES (ANGSTROEM)
---------------------------------
  O      0.000213   -0.000133    2.532090
  C      0.760697    0.438286    1.450174
  C      0.259912   -0.376142    0.266314
  N      1.006389   -0.000079   -0.997521
  C      0.028798   -0.054565   -2.149118
  C     -1.283142    0.047605   -1.443955
  C     -1.158343   -0.133573   -0.138641
  H      0.301793    0.416882    3.344207
  H      1.836495    0.260032    1.595816
  H      0.611623    1.510341    1.242081
  H      0.444049   -1.437686    0.464501
  H      1.820446   -0.593229   -1.153814
  H      1.346127    0.958344   -0.898049
  H      0.159741   -1.005831   -2.672191
  H      0.248115    0.755763   -2.845399
  H     -2.205276    0.215046   -1.983309
  H     -1.952946   -0.145018    0.594082

FINAL SINGLE POINT ENERGY      -325.999788936038
                    ***********************HURRAY********************
 Multiplicity           Mult            ....    1
 Number of Electrons    NEL             ....   54
 Basis Dimension        Dim             ....  277
FINAL SINGLE POINT ENERGY      -325.999790147414

VIBRATIONAL FREQUENCIES
-----------------------

   0:         0.00 cm**-1
   1:         0.00 cm**-1
   2:         0.00 cm**-1
   3:         0.00 cm**-1
   4:         0.00 cm**-1
   5:         0.00 cm**-1
   6:        79.79 cm**-1
   7:       112.65 cm**-1
   8:       209.39 cm**-1
   9:       254.81 cm**-1
  10:       299.19 cm**-1
  11:       416.99 cm**-1
  12:       507.64 cm**-1
  13:       636.21 cm**-1
  14:       751.56 cm**-1
  15:       778.18 cm**-1
  16:       859.63 cm**-1
  17:       882.88 cm**-1
  18:       924.33 cm**-1
  19:       961.80 cm**-1
  20:       989.62 cm**-1
  21:      1001.08 cm**-1
  22:      1062.86 cm**-1
  23:      1092.16 cm**-1
  24:      1108.17 cm**-1
  25:      1140.48 cm**-1
  26:      1153.04 cm**-1
  27:      1197.72 cm**-1
  28:      1240.64 cm**-1
  29:      1267.02 cm**-1
  30:      1279.46 cm**-1
  31:      1328.83 cm**-1
  32:      1332.32 cm**-1
  33:      1383.39 cm**-1
  34:      1384.64 cm**-1
  35:      1415.71 cm**-1
  36:      1468.01 cm**-1
  37:      1497.65 cm**-1
  38:      1517.43 cm**-1
  39:      1637.47 cm**-1
  40:      1710.50 cm**-1
  41:      2976.70 cm**-1
  42:      3021.45 cm**-1
  43:      3072.01 cm**-1
  44:      3079.16 cm**-1
  45:      3139.09 cm**-1
  46:      3242.67 cm**-1
  47:      3262.36 cm**-1
  48:      3450.55 cm**-1
  49:      3520.43 cm**-1
  50:      3865.23 cm**-1

IR SPECTRUM
-----------

 Mode    freq (cm**-1)   T**2         TX         TY         TZ
-------------------------------------------------------------------
   6:        79.79    8.255977  ( -1.890313   2.133768  -0.360183)
   7:       112.65    5.840063  ( -1.747636   1.381565  -0.936541)
   8:       209.39   14.334441  (  2.476323  -2.854344   0.234492)
   9:       254.81  110.013992  ( -6.703198   7.829869  -1.942751)
  10:       299.19    1.447475  ( -0.826276   0.612719  -0.623954)
  11:       416.99   12.819989  ( -0.558259  -0.433644   3.510027)
  12:       507.64    7.126681  (  0.389001   2.181562  -1.488672)
  13:       636.21   17.095886  (  1.875476  -2.342996  -2.844089)
  14:       751.56   52.066267  ( -0.958757  -7.049258  -1.206236)
  15:       778.18    0.862449  (  0.125696   0.458332   0.797861)
  16:       859.63    3.480104  (  0.785407   0.839300  -1.469291)
  17:       882.88    2.598193  ( -0.219734   1.446618  -0.676170)
  18:       924.33    8.336763  (  2.276621   1.072519  -1.415437)
  19:       961.80    2.675246  ( -0.787283   1.162953   0.838434)
  20:       989.62    8.938523  (  1.514328   0.941518   2.399766)
  21:      1001.08   12.032239  ( -0.599500  -0.263211  -3.406400)
  22:      1062.86   15.340538  ( -0.088894  -2.442153   3.060805)
  23:      1092.16   63.903774  ( -3.017817  -1.743806   7.194143)
  24:      1108.17    6.217426  (  0.954506   2.301492  -0.097369)
  25:      1140.48   11.006916  ( -2.870849  -0.516527   1.580615)
  26:      1153.04   36.813477  (  2.533472   1.485467  -5.309273)
  27:      1197.72    4.326295  (  1.609975   0.961223  -0.900182)
  28:      1240.64   14.289026  (  2.661816   1.900826  -1.894894)
  29:      1267.02    6.012799  (  1.936022   1.503704   0.059081)
  30:      1279.46   29.241992  ( -2.148218  -0.723733   4.909517)
  31:      1328.83    0.303013  ( -0.103270  -0.502378  -0.199911)
  32:      1332.32   23.973825  (  0.886856   2.484985  -4.124580)
  33:      1383.39    3.463913  (  0.081787   0.180945  -1.850536)
  34:      1384.64    0.895123  (  0.452169   0.087333  -0.826462)
  35:      1415.71   56.208247  ( -0.166943   1.143573  -7.407605)
  36:      1468.01    5.232476  (  1.236503   0.069273   1.923210)
  37:      1497.65    8.786710  (  1.047156  -0.596628  -2.708174)
  38:      1517.43    2.336509  ( -0.251031  -0.811789  -1.270627)
  39:      1637.47   61.658291  (  7.208297   2.932212  -1.049228)
  40:      1710.50    0.186990  (  0.373844  -0.217274   0.004809)
  41:      2976.70   39.515180  (  3.435763   4.129962  -3.264065)
  42:      3021.45   22.587769  (  4.188251  -2.139229   0.685583)
  43:      3072.01    3.974924  ( -1.437060   1.295068  -0.482267)
  44:      3079.16    2.747891  (  0.673651  -0.100317  -1.511298)
  45:      3139.09    0.104982  (  0.074468  -0.113195  -0.294319)
  46:      3242.67    7.965696  (  0.459241  -0.376852   2.759126)
  47:      3262.36   11.264740  (  3.053941  -0.187343  -1.379523)
  48:      3450.55   47.622011  (  5.999405   3.409016  -0.088055)
  49:      3520.43   79.048668  ( -4.508407   7.350961   2.164787)
  50:      3865.23  123.499780  (  1.185188   2.773426  10.695944)

--------------------------
THERMOCHEMISTRY AT 298.15K
--------------------------

Temperature         ... 298.15 K
Pressure            ... 1.00 atm
Total Mass          ... 100.14 AMU

Throughout the following assumptions are being made:
  (1) The electronic state is orbitally nondegenerate
  (2) There are no thermally accessible electronically excited states
  (3) Hindered rotations indicated by low frequency modes) are not
      treated as such but are treated as vibrations and this may
      case some error
  (4) All equations used are the standard statistical mechanics
      equations for an ideal gas
  (5) All vibrations are strinctly harmonic

------------
INNER ENERGY
------------

The inner energy is: U= E(el) + E(ZPE) + E(vib) + E(rot) + E(trans)
    E(el)   - is the total energy from the electronic structure calculation
              = E(kin-el) + E(nuc-el) + E(el-el) + E(nuc-nuc)
    E(ZPE)  - the the zero temperature vibrational energy from the frequency calculation
    E(vib)  - the the finite temperature correction to E(ZPE) due to population
              of excietd vibrational states
    E(rot)  - is the rotational thermal energy
    E(trans)- is the translational thermal energy

Summary of contributions to the inner energy U:
Electronic energy                ...   -325.99979015 Eh
Zero point energy                ...      0.15380576 Eh      96.51 kcal/mol
Thermal vibrational correction   ...      0.00428960 Eh       2.69 kcal/mol
Thermal rotational correction    ...      0.00141627 Eh       0.89 kcal/mol
Thermal translational correction ...      0.00141627 Eh       0.89 kcal/mol
-----------------------------------------------------------------------
Total thermal energy                   -325.83886225 Eh

Summary of corrections to the electronic energy:
(perhaps to be used in another calculation)
Total thermal correction                  0.00712214 Eh       4.47 kcal/mol
Non-thermal (ZPE) correction              0.15380576 Eh      96.51 kcal/mol
-----------------------------------------------------------------------
Total correction                          0.16092790 Eh     100.98 kcal/mol

--------
ENTHALPY
--------

The enthalpy is H = U + kB*T
                kB is Boltzmann's constant
Total free energy                 ...   -325.83886225 Eh
Thermal Enthalpy correction       ...      0.00094421 Eh       0.59 kcal/mol
-----------------------------------------------------------------------
Total Enthalpy                    ...   -325.83791804 Eh

-------
ENTROPY
-------

The entropy contributions are T*S = T*(S(el)+S(vib)+S(rot)+S(trans)
     S(el)   - electronic entropy
     S(vib)  - vibrational entropy
     S(rot)  - rotational entropy
     S(trans)- translational entropy
The entropies will be listed as mutliplied by the temperature to get
units of energy

Electronic entropy                ...      0.00000000 Eh      0.00 kcal/mol
Vibrational entropy               ...      0.00761385 Eh      4.78 kcal/mol
Rotational entropy                ...      0.01196363 Eh      7.51 kcal/mol
Translational entropy             ...      0.01887324 Eh     11.84 kcal/mol
-----------------------------------------------------------------------
Final entropy term                ...      0.03845071 Eh     24.13 kcal/mol

CAUTION: The rotational entropy is not quite correctly treated here
         because it includes a symmetry number that is not yet correctly
         implemented in ORCA!
For a nonlinear molecule the correct rotational entropy is:
    S(rot) = R*(ln(qrot/sn)+1.5)
    R    = 8.31441 J/mol/K = 1.987191683e-3 kcal/mol/K
    qrot = 213100.5428814
    sn is the rotational symmetry number. We have assumed 3 here
       if it is different for your molecule then you should correct
       the printed rotational entropy by manually evaluating the equation
       as given above

For convenience we print out the resulting values for sn=1 - 12:
 sn= 1  qrot/sn=  213100.5429 T*S(rot)=     8.16 kcal/mol T*S(tot)=    24.78 kcal/mol
 sn= 2  qrot/sn=  106550.2714 T*S(rot)=     7.75 kcal/mol T*S(tot)=    24.37 kcal/mol
 sn= 3  qrot/sn=   71033.5143 T*S(rot)=     7.51 kcal/mol T*S(tot)=    24.13 kcal/mol
 sn= 4  qrot/sn=   53275.1357 T*S(rot)=     7.34 kcal/mol T*S(tot)=    23.96 kcal/mol
 sn= 5  qrot/sn=   42620.1086 T*S(rot)=     7.20 kcal/mol T*S(tot)=    23.83 kcal/mol
 sn= 6  qrot/sn=   35516.7571 T*S(rot)=     7.10 kcal/mol T*S(tot)=    23.72 kcal/mol
 sn= 7  qrot/sn=   30442.9347 T*S(rot)=     7.01 kcal/mol T*S(tot)=    23.63 kcal/mol
 sn= 8  qrot/sn=   26637.5679 T*S(rot)=     6.93 kcal/mol T*S(tot)=    23.55 kcal/mol
 sn= 9  qrot/sn=   23677.8381 T*S(rot)=     6.86 kcal/mol T*S(tot)=    23.48 kcal/mol
 sn=10  qrot/sn=   21310.0543 T*S(rot)=     6.79 kcal/mol T*S(tot)=    23.41 kcal/mol
 sn=11  qrot/sn=   19372.7766 T*S(rot)=     6.74 kcal/mol T*S(tot)=    23.36 kcal/mol
 sn=12  qrot/sn=   17758.3786 T*S(rot)=     6.69 kcal/mol T*S(tot)=    23.31 kcal/mol

-------------------
GIBBS FREE ENTHALPY
-------------------

The Gibbs free enthalpy is G = H - T*S

Total enthalpy                    ...   -325.83791804 Eh
Total entropy correction          ...     -0.03845071 Eh    -24.13 kcal/mol
-----------------------------------------------------------------------
Final Gibbs free enthalpy         ...   -325.87636875 Eh

For completeness - the Gibbs free enthalpy minus the electronic energy
G-E(el)                           ...      0.12342139 Eh     77.45 kcal/mol

                             ****ORCA TERMINATED NORMALLY****
TOTAL RUN TIME: 0 days 0 hours 33 minutes 46 seconds 711 msec
