                         Program Version 3.0.3 - RELEASE   -
|  1> ! NORI PBE0 def2-TZVP UseSym TightOPT Freq TightSCF Grid3 FinalGrid5 XYZFile
|  2> % pal
|  3>     nprocs 8
|  4> end
|  5> %method
|  6>     SymThresh 5.0e-2
|  7> end
|  8> % geom
|  9>     MaxIter 10
| 10> end
| 11> % maxcore 2000
| 12> % output
| 13>     printlevel mini
| 14>     print[ P_Basis ] 0
| 15>     print[ P_SCFInfo ] 1
| 16>     print[ P_SCFIterInfo ] 1
| 17>     print[ P_OrbEn ] 0
| 18>     print[ P_Cartesian ] 0
| 19> end
| 20> % elprop
| 21>     Dipole false
| 22> end
| 23> *xyz 1 1
| 24>  O        0.8737498002     0.2042102841    -0.0734831555
| 25>  C        2.2402741220    -0.0946388245    -0.1992589712
| 26>  C        2.9163753537     0.3641679795     1.0734423133
| 27>  O        4.2842369607     0.1051703345     1.0912191916
| 28>  C        2.5597095560     1.7900241930     1.5648481988
| 29>  N        2.3599075631     1.2414763497     2.9625015385
| 30>  C        2.3234354606    -0.1606295286     2.3903588678
| 31>  H        0.3965121877    -0.0968284213    -0.8515400357
| 32>  H        2.6973639643     0.4278699748    -1.0524016163
| 33>  H        2.4260788510    -1.1689222760    -0.3196863954
| 34>  H        4.6946802088     0.3878891173     0.2663251055
| 35>  H        1.6064680898     2.1512455107     1.1851954458
| 36>  H        3.3365601178     2.5496372808     1.5169166706
| 37>  H        1.5280007883     1.5541347937     3.4601510600
| 38>  H        3.1724982012     1.3921195184     3.5587414557
| 39>  H        2.9309796550    -0.8659409470     2.9518974523
| 40>  H        1.2889991197    -0.4831653390     2.2980928742
| 41> *
| 42>
| 43>                          ****END OF INPUT****
 Total Charge           Charge          ....    1
 Multiplicity           Mult            ....    1
 Number of Electrons    NEL             ....   56
FINAL SINGLE POINT ENERGY      -363.104146310319
FINAL SINGLE POINT ENERGY      -363.104147393481

CARTESIAN COORDINATES (ANGSTROEM)
---------------------------------
  O     -0.001128    0.002687    2.108074
  C      1.047104   -0.003668    1.173708
  C      0.418388   -0.019983   -0.201651
  O      1.353536    0.000496   -1.232867
  C     -0.714238   -1.054004   -0.426149
  N     -1.556872    0.031110   -1.064786
  C     -0.620799    1.074414   -0.489628
  H      0.351631    0.049469    3.000818
  H      1.688273   -0.890966    1.282124
  H      1.683836    0.886445    1.250324
  H      2.048762   -0.648205   -1.075392
  H     -1.191302   -1.377689    0.496625
  H     -0.514219   -1.883838   -1.099633
  H     -2.531553    0.081386   -0.773376
  H     -1.521571    0.001869   -2.082638
  H     -0.338987    1.838074   -1.210349
  H     -1.063012    1.494646    0.410832

FINAL SINGLE POINT ENERGY      -363.104148249447
                    ***********************HURRAY********************
 Multiplicity           Mult            ....    1
 Number of Electrons    NEL             ....   56
 Basis Dimension        Dim             ....  277
FINAL SINGLE POINT ENERGY      -363.104148494145

VIBRATIONAL FREQUENCIES
-----------------------

   0:         0.00 cm**-1
   1:         0.00 cm**-1
   2:         0.00 cm**-1
   3:         0.00 cm**-1
   4:         0.00 cm**-1
   5:         0.00 cm**-1
   6:        64.00 cm**-1
   7:       133.42 cm**-1
   8:       247.58 cm**-1
   9:       277.10 cm**-1
  10:       306.67 cm**-1
  11:       330.03 cm**-1
  12:       391.50 cm**-1
  13:       438.47 cm**-1
  14:       519.14 cm**-1
  15:       650.33 cm**-1
  16:       764.68 cm**-1
  17:       801.94 cm**-1
  18:       877.47 cm**-1
  19:       924.62 cm**-1
  20:       929.89 cm**-1
  21:       956.64 cm**-1
  22:       976.82 cm**-1
  23:      1078.39 cm**-1
  24:      1112.18 cm**-1
  25:      1126.84 cm**-1
  26:      1148.81 cm**-1
  27:      1229.64 cm**-1
  28:      1244.21 cm**-1
  29:      1261.73 cm**-1
  30:      1269.60 cm**-1
  31:      1306.58 cm**-1
  32:      1320.36 cm**-1
  33:      1323.41 cm**-1
  34:      1334.18 cm**-1
  35:      1421.52 cm**-1
  36:      1460.32 cm**-1
  37:      1461.11 cm**-1
  38:      1481.46 cm**-1
  39:      1510.74 cm**-1
  40:      1642.40 cm**-1
  41:      3003.98 cm**-1
  42:      3060.59 cm**-1
  43:      3126.04 cm**-1
  44:      3131.54 cm**-1
  45:      3208.10 cm**-1
  46:      3213.22 cm**-1
  47:      3475.25 cm**-1
  48:      3544.10 cm**-1
  49:      3827.88 cm**-1
  50:      3870.19 cm**-1

IR SPECTRUM
-----------

 Mode    freq (cm**-1)   T**2         TX         TY         TZ
-------------------------------------------------------------------
   6:        64.00   10.147190  (  1.394317  -0.391654  -2.837195)
   7:       133.42   16.544965  (  0.417325  -4.028075  -0.381340)
   8:       247.58    6.359291  ( -1.067097   1.260849  -1.905480)
   9:       277.10   80.923520  ( -0.478597   8.972354  -0.437405)
  10:       306.67   31.256458  (  0.361727  -5.465640   1.119101)
  11:       330.03  120.481531  (  5.188177   7.195425   6.464535)
  12:       391.50   33.091841  (  4.741839   3.020896   1.216961)
  13:       438.47    6.411653  (  2.145628  -0.590193  -1.208142)
  14:       519.14    1.783269  ( -1.103789  -0.050253   0.749930)
  15:       650.33   12.729330  ( -2.116700   0.198830   2.865202)
  16:       764.68    2.866867  (  0.056541  -0.207669  -1.679447)
  17:       801.94    1.002736  ( -0.241532   0.966815   0.098321)
  18:       877.47    2.282650  ( -1.224405   0.696751   0.545912)
  19:       924.62    2.535037  (  0.300185   1.563625  -0.002046)
  20:       929.89   10.254863  (  1.153348  -2.088918  -2.135667)
  21:       956.64    5.796543  ( -1.262829  -0.627182   1.951525)
  22:       976.82   10.996785  (  3.243773   0.135109   0.675626)
  23:      1078.39   16.744874  (  2.816379  -0.470006  -2.931207)
  24:      1112.18   40.665458  (  4.590537   0.067688  -4.425816)
  25:      1126.84   64.387330  (  4.793738  -0.264445  -6.429422)
  26:      1148.81  130.173326  ( -9.273756  -1.059233   6.561158)
  27:      1229.64    3.714695  (  1.600176  -0.993854  -0.407905)
  28:      1244.21   46.768693  (  0.202409   6.835699   0.030678)
  29:      1261.73    3.090989  ( -1.414091  -0.419403   0.956785)
  30:      1269.60   12.143824  ( -1.851096  -0.744119   2.857194)
  31:      1306.58   45.575865  (  4.398045   1.925053  -4.746287)
  32:      1320.36   22.041983  ( -0.584116  -4.652616  -0.232283)
  33:      1323.41   20.093566  (  2.235189  -3.166872  -2.251314)
  34:      1334.18    6.420665  ( -1.517197   0.978811  -1.777838)
  35:      1421.52   25.153064  (  0.294743   0.142669   5.004581)
  36:      1460.32    6.368784  ( -1.743354   0.226666   1.810559)
  37:      1461.11   21.077614  (  0.230626   4.575126  -0.304383)
  38:      1481.46    7.689230  ( -2.698984   0.134713   0.621748)
  39:      1510.74    4.314060  ( -1.396555  -0.179609  -1.526904)
  40:      1642.40   65.865052  (  6.482047  -0.109959   4.882216)
  41:      3003.98   28.989870  (  4.749848  -1.900398  -1.678481)
  42:      3060.59   11.952692  (  0.967816   3.301394  -0.341790)
  43:      3126.04    0.548945  (  0.269922  -0.168153  -0.669187)
  44:      3131.54    0.649923  ( -0.217438   0.327742   0.703725)
  45:      3208.10    2.149534  (  0.029753  -0.267488   1.441214)
  46:      3213.22    2.716218  (  0.373609  -0.048931  -1.604444)
  47:      3475.25   74.297733  (  6.834786  -0.170700   5.249218)
  48:      3544.10   93.293030  (  5.463655  -0.455184  -7.952001)
  49:      3827.88   74.943303  (  7.450086  -4.218215  -1.283040)
  50:      3870.19  110.203881  ( -1.462053  -0.454340 -10.385560)

--------------------------
THERMOCHEMISTRY AT 298.15K
--------------------------

Temperature         ... 298.15 K
Pressure            ... 1.00 atm
Total Mass          ... 104.13 AMU

Throughout the following assumptions are being made:
  (1) The electronic state is orbitally nondegenerate
  (2) There are no thermally accessible electronically excited states
  (3) Hindered rotations indicated by low frequency modes) are not
      treated as such but are treated as vibrations and this may
      case some error
  (4) All equations used are the standard statistical mechanics
      equations for an ideal gas
  (5) All vibrations are strinctly harmonic

------------
INNER ENERGY
------------

The inner energy is: U= E(el) + E(ZPE) + E(vib) + E(rot) + E(trans)
    E(el)   - is the total energy from the electronic structure calculation
              = E(kin-el) + E(nuc-el) + E(el-el) + E(nuc-nuc)
    E(ZPE)  - the the zero temperature vibrational energy from the frequency calculation
    E(vib)  - the the finite temperature correction to E(ZPE) due to population
              of excietd vibrational states
    E(rot)  - is the rotational thermal energy
    E(trans)- is the translational thermal energy

Summary of contributions to the inner energy U:
Electronic energy                ...   -363.10414849 Eh
Zero point energy                ...      0.15214663 Eh      95.47 kcal/mol
Thermal vibrational correction   ...      0.00477798 Eh       3.00 kcal/mol
Thermal rotational correction    ...      0.00141627 Eh       0.89 kcal/mol
Thermal translational correction ...      0.00141627 Eh       0.89 kcal/mol
-----------------------------------------------------------------------
Total thermal energy                   -362.94439134 Eh

Summary of corrections to the electronic energy:
(perhaps to be used in another calculation)
Total thermal correction                  0.00761052 Eh       4.78 kcal/mol
Non-thermal (ZPE) correction              0.15214663 Eh      95.47 kcal/mol
-----------------------------------------------------------------------
Total correction                          0.15975715 Eh     100.25 kcal/mol

--------
ENTHALPY
--------

The enthalpy is H = U + kB*T
                kB is Boltzmann's constant
Total free energy                 ...   -362.94439134 Eh
Thermal Enthalpy correction       ...      0.00094421 Eh       0.59 kcal/mol
-----------------------------------------------------------------------
Total Enthalpy                    ...   -362.94344713 Eh

-------
ENTROPY
-------

The entropy contributions are T*S = T*(S(el)+S(vib)+S(rot)+S(trans)
     S(el)   - electronic entropy
     S(vib)  - vibrational entropy
     S(rot)  - rotational entropy
     S(trans)- translational entropy
The entropies will be listed as mutliplied by the temperature to get
units of energy

Electronic entropy                ...      0.00000000 Eh      0.00 kcal/mol
Vibrational entropy               ...      0.00835220 Eh      5.24 kcal/mol
Rotational entropy                ...      0.01195856 Eh      7.50 kcal/mol
Translational entropy             ...      0.01892854 Eh     11.88 kcal/mol
-----------------------------------------------------------------------
Final entropy term                ...      0.03923931 Eh     24.62 kcal/mol

CAUTION: The rotational entropy is not quite correctly treated here
         because it includes a symmetry number that is not yet correctly
         implemented in ORCA!
For a nonlinear molecule the correct rotational entropy is:
    S(rot) = R*(ln(qrot/sn)+1.5)
    R    = 8.31441 J/mol/K = 1.987191683e-3 kcal/mol/K
    qrot = 211960.3713548
    sn is the rotational symmetry number. We have assumed 3 here
       if it is different for your molecule then you should correct
       the printed rotational entropy by manually evaluating the equation
       as given above

For convenience we print out the resulting values for sn=1 - 12:
 sn= 1  qrot/sn=  211960.3714 T*S(rot)=     8.16 kcal/mol T*S(tot)=    25.27 kcal/mol
 sn= 2  qrot/sn=  105980.1857 T*S(rot)=     7.74 kcal/mol T*S(tot)=    24.86 kcal/mol
 sn= 3  qrot/sn=   70653.4571 T*S(rot)=     7.50 kcal/mol T*S(tot)=    24.62 kcal/mol
 sn= 4  qrot/sn=   52990.0928 T*S(rot)=     7.33 kcal/mol T*S(tot)=    24.45 kcal/mol
 sn= 5  qrot/sn=   42392.0743 T*S(rot)=     7.20 kcal/mol T*S(tot)=    24.32 kcal/mol
 sn= 6  qrot/sn=   35326.7286 T*S(rot)=     7.09 kcal/mol T*S(tot)=    24.21 kcal/mol
 sn= 7  qrot/sn=   30280.0531 T*S(rot)=     7.00 kcal/mol T*S(tot)=    24.12 kcal/mol
 sn= 8  qrot/sn=   26495.0464 T*S(rot)=     6.92 kcal/mol T*S(tot)=    24.04 kcal/mol
 sn= 9  qrot/sn=   23551.1524 T*S(rot)=     6.85 kcal/mol T*S(tot)=    23.97 kcal/mol
 sn=10  qrot/sn=   21196.0371 T*S(rot)=     6.79 kcal/mol T*S(tot)=    23.91 kcal/mol
 sn=11  qrot/sn=   19269.1247 T*S(rot)=     6.73 kcal/mol T*S(tot)=    23.85 kcal/mol
 sn=12  qrot/sn=   17663.3643 T*S(rot)=     6.68 kcal/mol T*S(tot)=    23.80 kcal/mol

-------------------
GIBBS FREE ENTHALPY
-------------------

The Gibbs free enthalpy is G = H - T*S

Total enthalpy                    ...   -362.94344713 Eh
Total entropy correction          ...     -0.03923931 Eh    -24.62 kcal/mol
-----------------------------------------------------------------------
Final Gibbs free enthalpy         ...   -362.98268644 Eh

For completeness - the Gibbs free enthalpy minus the electronic energy
G-E(el)                           ...      0.12146205 Eh     76.22 kcal/mol

                             ****ORCA TERMINATED NORMALLY****
TOTAL RUN TIME: 0 days 0 hours 36 minutes 15 seconds 155 msec
