                         Program Version 3.0.3 - RELEASE   -
|  1> ! NORI PBE0 def2-TZVP UseSym TightOPT Freq TightSCF Grid3 FinalGrid5 XYZFile
|  2> % pal
|  3>     nprocs 8
|  4> end
|  5> %method
|  6>     SymThresh 5.0e-2
|  7> end
|  8> % geom
|  9>     MaxIter 10
| 10> end
| 11> % maxcore 2000
| 12> % output
| 13>     printlevel mini
| 14>     print[ P_Basis ] 0
| 15>     print[ P_SCFInfo ] 1
| 16>     print[ P_SCFIterInfo ] 1
| 17>     print[ P_OrbEn ] 0
| 18>     print[ P_Cartesian ] 0
| 19> end
| 20> % elprop
| 21>     Dipole false
| 22> end
| 23> *xyz 1 1
| 24>  O        2.8176544567     0.9195015636    -0.9299499849
| 25>  C        2.3535167874    -0.4029187746    -1.0683301381
| 26>  C        3.0483209492    -1.2399048031    -0.0104282643
| 27>  C        4.5464059099    -1.1603029498    -0.1418295860
| 28>  C        5.3280317494     0.0789028255     0.3212076611
| 29>  C        6.3201394402    -0.8562902650     1.0151504556
| 30>  N        5.3176036943    -1.9884543707     0.8969882989
| 31>  H        2.3199732025     1.4986126554    -1.5131738006
| 32>  H        2.5783693404    -0.8031983475    -2.0669287339
| 33>  H        1.2708563465    -0.4747556588    -0.9167546595
| 34>  H        2.7190940948    -2.2790607506    -0.1162044108
| 35>  H        2.7448002510    -0.8844010717     0.9806888035
| 36>  H        4.8842631867    -1.5090614230    -1.1199678255
| 37>  H        4.7520769173     0.6869247974     1.0176976009
| 38>  H        5.7208131092     0.7187118210    -0.4630762835
| 39>  H        6.6113702600    -0.6607515660     2.0441276653
| 40>  H        7.1951755270    -1.1048779314     0.4178043546
| 41>  H        5.6698972240    -2.8983270176     0.6047351204
| 42>  H        4.7735075536    -2.1133387332     1.7503237267
| 43> *
| 44>
| 45>                          ****END OF INPUT****
 Total Charge           Charge          ....    1
 Multiplicity           Mult            ....    1
 Number of Electrons    NEL             ....   56
FINAL SINGLE POINT ENERGY      -327.209070349418

CARTESIAN COORDINATES (ANGSTROEM)
---------------------------------
  O      0.001198    0.000018    2.295578
  C      0.269539   -1.261999    1.730997
  C      0.745913   -1.030322    0.308681
  C     -0.273501   -0.268407   -0.496490
  C     -0.473324    1.244183   -0.313796
  C     -0.457658    1.389060   -1.836791
  N      0.141829    0.000229   -1.951052
  H     -0.200059   -0.100762    3.229692
  H     -0.627763   -1.896309    1.724620
  H      1.051973   -1.797670    2.279575
  H      0.938316   -2.002646   -0.157161
  H      1.688438   -0.471713    0.335282
  H     -1.227021   -0.798941   -0.545482
  H      0.382311    1.712648    0.170637
  H     -1.379412    1.549167    0.200590
  H      0.165168    2.152941   -2.296331
  H     -1.443151    1.379871   -2.298625
  H     -0.235662   -0.616084   -2.669017
  H      1.156743    0.024188   -2.049172

FINAL SINGLE POINT ENERGY      -327.209071026903
                    ***********************HURRAY********************
 Multiplicity           Mult            ....    1
 Number of Electrons    NEL             ....   56
 Basis Dimension        Dim             ....  289
FINAL SINGLE POINT ENERGY      -327.209071143788

VIBRATIONAL FREQUENCIES
-----------------------

   0:         0.00 cm**-1
   1:         0.00 cm**-1
   2:         0.00 cm**-1
   3:         0.00 cm**-1
   4:         0.00 cm**-1
   5:         0.00 cm**-1
   6:        68.90 cm**-1
   7:       120.08 cm**-1
   8:       132.53 cm**-1
   9:       237.01 cm**-1
  10:       294.28 cm**-1
  11:       315.07 cm**-1
  12:       406.18 cm**-1
  13:       495.51 cm**-1
  14:       653.92 cm**-1
  15:       766.58 cm**-1
  16:       812.88 cm**-1
  17:       857.32 cm**-1
  18:       890.62 cm**-1
  19:       918.25 cm**-1
  20:       954.16 cm**-1
  21:       970.79 cm**-1
  22:       999.68 cm**-1
  23:      1013.56 cm**-1
  24:      1054.28 cm**-1
  25:      1120.16 cm**-1
  26:      1140.14 cm**-1
  27:      1178.00 cm**-1
  28:      1215.22 cm**-1
  29:      1221.93 cm**-1
  30:      1257.52 cm**-1
  31:      1266.91 cm**-1
  32:      1285.92 cm**-1
  33:      1299.55 cm**-1
  34:      1312.11 cm**-1
  35:      1334.15 cm**-1
  36:      1353.76 cm**-1
  37:      1363.07 cm**-1
  38:      1405.70 cm**-1
  39:      1455.54 cm**-1
  40:      1470.36 cm**-1
  41:      1487.26 cm**-1
  42:      1502.59 cm**-1
  43:      1520.12 cm**-1
  44:      1641.98 cm**-1
  45:      3011.50 cm**-1
  46:      3042.97 cm**-1
  47:      3069.83 cm**-1
  48:      3093.58 cm**-1
  49:      3111.46 cm**-1
  50:      3123.95 cm**-1
  51:      3128.74 cm**-1
  52:      3189.78 cm**-1
  53:      3201.07 cm**-1
  54:      3462.17 cm**-1
  55:      3536.00 cm**-1
  56:      3869.09 cm**-1

IR SPECTRUM
-----------

 Mode    freq (cm**-1)   T**2         TX         TY         TZ
-------------------------------------------------------------------
   6:        68.90    0.432169  (  0.327544   0.566257   0.065087)
   7:       120.08    0.636173  ( -0.342450   0.571329  -0.438730)
   8:       132.53    5.695564  (  0.686354   0.799081   2.141483)
   9:       237.01   19.612021  ( -3.984461  -0.917193  -1.701426)
  10:       294.28   45.017445  (  6.687497   0.376844  -0.390924)
  11:       315.07   76.623602  ( -7.950206  -1.000800  -3.523666)
  12:       406.18    2.132266  (  0.835666  -0.543239   1.067155)
  13:       495.51    9.915937  (  0.216652  -2.496651  -1.906759)
  14:       653.92    4.142490  (  1.922073   0.534689   0.402784)
  15:       766.58    2.904118  ( -0.313507  -1.053383   1.302388)
  16:       812.88    3.702809  (  0.508644   0.685914  -1.724416)
  17:       857.32   15.339245  (  0.792430   1.157257   3.656782)
  18:       890.62    3.737546  (  1.293189  -1.425455  -0.182444)
  19:       918.25   10.742651  ( -1.203361   3.044329   0.163199)
  20:       954.16    1.861708  (  0.178461   1.223282  -0.577443)
  21:       970.79    6.096997  (  0.418303   2.075437  -1.270661)
  22:       999.68    0.105061  (  0.030230  -0.079175   0.312856)
  23:      1013.56    4.588117  ( -0.501233   2.005555  -0.560919)
  24:      1054.28    3.043066  (  0.400144  -1.244229  -1.155355)
  25:      1120.16   56.627942  (  2.028096  -5.516892  -4.698795)
  26:      1140.14   19.389257  ( -0.961475   2.918532   3.153886)
  27:      1178.00    3.171797  ( -1.322207  -1.171611   0.225598)
  28:      1215.22   24.544793  (  0.223260   3.028197   3.914712)
  29:      1221.93    0.922463  (  0.458990  -0.785490   0.307890)
  30:      1257.52   20.205192  ( -1.043634   4.217691  -1.152001)
  31:      1266.91   55.818793  ( -0.609571   5.415766  -5.110450)
  32:      1285.92    3.228854  ( -0.821137   1.087603  -1.171199)
  33:      1299.55   12.517792  ( -1.117476   1.988046   2.704943)
  34:      1312.11   52.363669  (  0.472070   6.992896  -1.800061)
  35:      1334.15    1.569337  (  0.439932   0.558232   1.031588)
  36:      1353.76   10.404221  ( -0.348464   2.807515  -1.549403)
  37:      1363.07    2.974315  (  0.148739   0.731507  -1.554699)
  38:      1405.70   12.241648  (  0.548180  -1.448210   3.137488)
  39:      1455.54    4.220872  ( -0.185692   1.156644  -1.687769)
  40:      1470.36   10.886597  ( -2.631949   0.332601   1.961841)
  41:      1487.26   13.011835  ( -1.292642  -1.510613  -3.009811)
  42:      1502.59    7.352109  ( -1.119701   2.341254  -0.785437)
  43:      1520.12    4.609576  ( -0.598002  -0.774883   1.910897)
  44:      1641.98   53.403060  (  4.332956  -2.597315  -5.280389)
  45:      3011.50   34.305373  (  2.179791   5.434914  -0.124884)
  46:      3042.97    7.040225  (  1.221482   0.982231  -2.140895)
  47:      3069.83   21.038219  ( -4.063514   1.769600  -1.180927)
  48:      3093.58    3.144685  ( -0.517164  -1.692558  -0.111682)
  49:      3111.46    6.830924  ( -1.777052  -1.869014  -0.424028)
  50:      3123.95    1.652211  (  0.131120  -0.654830   1.098279)
  51:      3128.74    1.663490  (  1.056230   0.264944   0.691139)
  52:      3189.78    0.261414  (  0.040503  -0.404991   0.309445)
  53:      3201.07    0.107481  ( -0.177286   0.236365  -0.142062)
  54:      3462.17   51.696556  ( -3.670959   3.136192   5.327750)
  55:      3536.00   74.438949  ( -6.921016  -3.339709  -3.922350)
  56:      3869.09   88.142824  (  1.921032  -1.187502  -9.112755)

--------------------------
THERMOCHEMISTRY AT 298.15K
--------------------------

Temperature         ... 298.15 K
Pressure            ... 1.00 atm
Total Mass          ... 102.16 AMU

Throughout the following assumptions are being made:
  (1) The electronic state is orbitally nondegenerate
  (2) There are no thermally accessible electronically excited states
  (3) Hindered rotations indicated by low frequency modes) are not
      treated as such but are treated as vibrations and this may
      case some error
  (4) All equations used are the standard statistical mechanics
      equations for an ideal gas
  (5) All vibrations are strinctly harmonic

------------
INNER ENERGY
------------

The inner energy is: U= E(el) + E(ZPE) + E(vib) + E(rot) + E(trans)
    E(el)   - is the total energy from the electronic structure calculation
              = E(kin-el) + E(nuc-el) + E(el-el) + E(nuc-nuc)
    E(ZPE)  - the the zero temperature vibrational energy from the frequency calculation
    E(vib)  - the the finite temperature correction to E(ZPE) due to population
              of excietd vibrational states
    E(rot)  - is the rotational thermal energy
    E(trans)- is the translational thermal energy

Summary of contributions to the inner energy U:
Electronic energy                ...   -327.20907114 Eh
Zero point energy                ...      0.17686265 Eh     110.98 kcal/mol
Thermal vibrational correction   ...      0.00490162 Eh       3.08 kcal/mol
Thermal rotational correction    ...      0.00141627 Eh       0.89 kcal/mol
Thermal translational correction ...      0.00141627 Eh       0.89 kcal/mol
-----------------------------------------------------------------------
Total thermal energy                   -327.02447433 Eh

Summary of corrections to the electronic energy:
(perhaps to be used in another calculation)
Total thermal correction                  0.00773416 Eh       4.85 kcal/mol
Non-thermal (ZPE) correction              0.17686265 Eh     110.98 kcal/mol
-----------------------------------------------------------------------
Total correction                          0.18459681 Eh     115.84 kcal/mol

--------
ENTHALPY
--------

The enthalpy is H = U + kB*T
                kB is Boltzmann's constant
Total free energy                 ...   -327.02447433 Eh
Thermal Enthalpy correction       ...      0.00094421 Eh       0.59 kcal/mol
-----------------------------------------------------------------------
Total Enthalpy                    ...   -327.02353012 Eh

-------
ENTROPY
-------

The entropy contributions are T*S = T*(S(el)+S(vib)+S(rot)+S(trans)
     S(el)   - electronic entropy
     S(vib)  - vibrational entropy
     S(rot)  - rotational entropy
     S(trans)- translational entropy
The entropies will be listed as mutliplied by the temperature to get
units of energy

Electronic entropy                ...      0.00000000 Eh      0.00 kcal/mol
Vibrational entropy               ...      0.00886513 Eh      5.56 kcal/mol
Rotational entropy                ...      0.01210134 Eh      7.59 kcal/mol
Translational entropy             ...      0.01890147 Eh     11.86 kcal/mol
-----------------------------------------------------------------------
Final entropy term                ...      0.03986793 Eh     25.02 kcal/mol

CAUTION: The rotational entropy is not quite correctly treated here
         because it includes a symmetry number that is not yet correctly
         implemented in ORCA!
For a nonlinear molecule the correct rotational entropy is:
    S(rot) = R*(ln(qrot/sn)+1.5)
    R    = 8.31441 J/mol/K = 1.987191683e-3 kcal/mol/K
    qrot = 246561.7159649
    sn is the rotational symmetry number. We have assumed 3 here
       if it is different for your molecule then you should correct
       the printed rotational entropy by manually evaluating the equation
       as given above

For convenience we print out the resulting values for sn=1 - 12:
 sn= 1  qrot/sn=  246561.7160 T*S(rot)=     8.24 kcal/mol T*S(tot)=    25.67 kcal/mol
 sn= 2  qrot/sn=  123280.8580 T*S(rot)=     7.83 kcal/mol T*S(tot)=    25.26 kcal/mol
 sn= 3  qrot/sn=   82187.2387 T*S(rot)=     7.59 kcal/mol T*S(tot)=    25.02 kcal/mol
 sn= 4  qrot/sn=   61640.4290 T*S(rot)=     7.42 kcal/mol T*S(tot)=    24.85 kcal/mol
 sn= 5  qrot/sn=   49312.3432 T*S(rot)=     7.29 kcal/mol T*S(tot)=    24.71 kcal/mol
 sn= 6  qrot/sn=   41093.6193 T*S(rot)=     7.18 kcal/mol T*S(tot)=    24.61 kcal/mol
 sn= 7  qrot/sn=   35223.1023 T*S(rot)=     7.09 kcal/mol T*S(tot)=    24.52 kcal/mol
 sn= 8  qrot/sn=   30820.2145 T*S(rot)=     7.01 kcal/mol T*S(tot)=    24.44 kcal/mol
 sn= 9  qrot/sn=   27395.7462 T*S(rot)=     6.94 kcal/mol T*S(tot)=    24.37 kcal/mol
 sn=10  qrot/sn=   24656.1716 T*S(rot)=     6.88 kcal/mol T*S(tot)=    24.30 kcal/mol
 sn=11  qrot/sn=   22414.7015 T*S(rot)=     6.82 kcal/mol T*S(tot)=    24.25 kcal/mol
 sn=12  qrot/sn=   20546.8097 T*S(rot)=     6.77 kcal/mol T*S(tot)=    24.20 kcal/mol

-------------------
GIBBS FREE ENTHALPY
-------------------

The Gibbs free enthalpy is G = H - T*S

Total enthalpy                    ...   -327.02353012 Eh
Total entropy correction          ...     -0.03986793 Eh    -25.02 kcal/mol
-----------------------------------------------------------------------
Final Gibbs free enthalpy         ...   -327.06339805 Eh

For completeness - the Gibbs free enthalpy minus the electronic energy
G-E(el)                           ...      0.14567309 Eh     91.41 kcal/mol

                             ****ORCA TERMINATED NORMALLY****
TOTAL RUN TIME: 0 days 0 hours 42 minutes 25 seconds 402 msec
