                         Program Version 3.0.3 - RELEASE   -
|  1> ! NORI PBE0 def2-TZVP UseSym TightOPT Freq TightSCF Grid3 FinalGrid5 XYZFile
|  2> % pal
|  3>     nprocs 8
|  4> end
|  5> %method
|  6>     SymThresh 5.0e-2
|  7> end
|  8> % geom
|  9>     MaxIter 10
| 10> end
| 11> % maxcore 2000
| 12> % output
| 13>     printlevel mini
| 14>     print[ P_Basis ] 0
| 15>     print[ P_SCFInfo ] 1
| 16>     print[ P_SCFIterInfo ] 1
| 17>     print[ P_OrbEn ] 0
| 18>     print[ P_Cartesian ] 0
| 19> end
| 20> % elprop
| 21>     Dipole false
| 22> end
| 23> *xyz 1 1
| 24>  O        2.8387274643     3.0838476037    -0.7780057949
| 25>  C        2.2587149136     2.0367592549    -0.8101558161
| 26>  C        2.9893521047     0.7112110148    -0.7411597778
| 27>  C        4.4668441016     0.9577906822    -0.6075184459
| 28>  C        5.0656130160     1.4679904285     0.7103888678
| 29>  C        6.1789104264     0.4301664683     0.5510014055
| 30>  N        5.3388283089    -0.2955656251    -0.4866740009
| 31>  H        1.1580455924     1.9745772471    -0.8924734397
| 32>  H        2.5864425520     0.1398892455     0.1048510351
| 33>  H        2.7482906885     0.1433597486    -1.6488589619
| 34>  H        4.8482028537     1.5241265490    -1.4579608713
| 35>  H        4.4213058770     1.2652651748     1.5670588818
| 36>  H        5.3616286800     2.5125944496     0.7235923356
| 37>  H        7.0760788187     0.8097076823     0.0664252522
| 38>  H        6.4444248704    -0.2050370421     1.3924897873
| 39>  H        5.8125576564    -0.6157816251    -1.3302248346
| 40>  H        4.8296320754    -1.0834712570    -0.0870956222
| 41> *
| 42>
| 43>                          ****END OF INPUT****
 Total Charge           Charge          ....    1
 Multiplicity           Mult            ....    1
 Number of Electrons    NEL             ....   54
FINAL SINGLE POINT ENERGY      -325.990051934993

CARTESIAN COORDINATES (ANGSTROEM)
---------------------------------
  O      0.001490    0.000783    2.362591
  C     -0.072308    1.082792    1.855040
  C      0.118869    1.286285    0.365659
  C      0.370309   -0.041033   -0.295190
  C     -0.764562   -1.057246   -0.481603
  C     -0.265107   -1.280904   -1.911001
  N      0.547155   -0.000023   -1.816264
  H     -0.279478    1.996320    2.441772
  H     -0.775016    1.783877   -0.031432
  H      0.956275    1.980903    0.223323
  H      1.262490   -0.518435    0.111316
  H     -1.750694   -0.592052   -0.448786
  H     -0.749253   -1.912672    0.187203
  H      0.421137   -2.118752   -2.017613
  H     -0.974028   -1.266614   -2.735305
  H      1.500906   -0.024435   -2.174806
  H      0.066354    0.793258   -2.239846

FINAL SINGLE POINT ENERGY      -325.990052424222
                    ***********************HURRAY********************
 Multiplicity           Mult            ....    1
 Number of Electrons    NEL             ....   54
 Basis Dimension        Dim             ....  277
FINAL SINGLE POINT ENERGY      -325.990052534107

VIBRATIONAL FREQUENCIES
-----------------------

   0:         0.00 cm**-1
   1:         0.00 cm**-1
   2:         0.00 cm**-1
   3:         0.00 cm**-1
   4:         0.00 cm**-1
   5:         0.00 cm**-1
   6:        68.26 cm**-1
   7:       119.72 cm**-1
   8:       153.20 cm**-1
   9:       197.17 cm**-1
  10:       316.56 cm**-1
  11:       396.69 cm**-1
  12:       592.24 cm**-1
  13:       712.50 cm**-1
  14:       726.35 cm**-1
  15:       786.15 cm**-1
  16:       845.96 cm**-1
  17:       879.74 cm**-1
  18:       909.42 cm**-1
  19:       936.61 cm**-1
  20:       953.50 cm**-1
  21:      1006.65 cm**-1
  22:      1007.18 cm**-1
  23:      1063.27 cm**-1
  24:      1142.09 cm**-1
  25:      1165.11 cm**-1
  26:      1222.12 cm**-1
  27:      1238.80 cm**-1
  28:      1269.31 cm**-1
  29:      1286.89 cm**-1
  30:      1299.50 cm**-1
  31:      1324.24 cm**-1
  32:      1336.06 cm**-1
  33:      1352.92 cm**-1
  34:      1392.30 cm**-1
  35:      1410.68 cm**-1
  36:      1454.60 cm**-1
  37:      1488.87 cm**-1
  38:      1503.43 cm**-1
  39:      1644.46 cm**-1
  40:      1839.41 cm**-1
  41:      2986.11 cm**-1
  42:      3039.95 cm**-1
  43:      3082.81 cm**-1
  44:      3109.66 cm**-1
  45:      3124.97 cm**-1
  46:      3135.29 cm**-1
  47:      3188.67 cm**-1
  48:      3198.55 cm**-1
  49:      3461.15 cm**-1
  50:      3532.26 cm**-1

IR SPECTRUM
-----------

 Mode    freq (cm**-1)   T**2         TX         TY         TZ
-------------------------------------------------------------------
   6:        68.26    1.514511  (  0.947137   0.759083   0.203066)
   7:       119.72    1.518244  ( -0.033379  -0.714638  -1.003206)
   8:       153.20    5.128212  ( -1.313360   0.113936   1.841281)
   9:       197.17    9.948168  ( -2.103823  -0.611426  -2.268977)
  10:       316.56    9.358180  (  0.531392  -1.158741  -2.780849)
  11:       396.69    1.041325  ( -0.947548   0.323023   0.197826)
  12:       592.24   12.751333  (  2.051520  -0.889513  -2.784127)
  13:       712.50    5.754363  (  0.702480  -0.521184   2.233663)
  14:       726.35    6.349957  (  1.631442   0.688439   1.792876)
  15:       786.15    2.580690  (  0.642834   0.503140   1.383584)
  16:       845.96    2.603188  (  1.608080   0.130849  -0.012114)
  17:       879.74   15.890198  ( -1.660965   1.480773   3.307371)
  18:       909.42   19.419033  (  0.877881   1.490278  -4.053077)
  19:       936.61   15.317037  ( -1.683047  -1.984544  -2.923350)
  20:       953.50    6.530598  (  0.797878   0.166514  -2.422037)
  21:      1006.65    0.665699  (  0.317991   0.212840   0.720610)
  22:      1007.18    1.636513  ( -0.218711  -0.726503   1.029986)
  23:      1063.27    0.439005  ( -0.035507  -0.661011   0.028423)
  24:      1142.09    0.344978  (  0.261444   0.507397   0.138468)
  25:      1165.11    1.515759  ( -0.450390   0.437263   1.059108)
  26:      1222.12    1.550903  (  0.091945  -0.086103   1.238965)
  27:      1238.80   14.421788  (  0.765260  -1.474382  -3.415020)
  28:      1269.31   63.682481  ( -1.297469  -4.106174  -6.718511)
  29:      1286.89    4.820174  ( -0.235482  -1.363142  -1.704866)
  30:      1299.50   42.487693  (  1.554086   0.965694   6.256192)
  31:      1324.24    4.176960  ( -0.466922  -1.233679  -1.561083)
  32:      1336.06   13.969222  (  2.394929   2.839321  -0.414481)
  33:      1352.92    2.829943  ( -0.903783  -0.308577   1.384882)
  34:      1392.30   33.072939  (  0.630706  -2.058444  -5.332725)
  35:      1410.68   11.905466  (  0.158758  -2.626259   2.232269)
  36:      1454.60   11.364183  ( -0.578521   2.866773  -1.676635)
  37:      1488.87   13.761246  (  2.784123  -0.674342  -2.356940)
  38:      1503.43    7.891679  ( -1.245323  -2.339318  -0.931901)
  39:      1644.46   55.929606  (  2.127657   4.651371  -5.455953)
  40:      1839.41  125.115702  ( -0.379263   8.502220  -7.258383)
  41:      2986.11   45.809991  (  1.014965  -5.417077  -3.928755)
  42:      3039.95    2.567584  ( -0.582696   1.280696   0.766726)
  43:      3082.81    0.507002  (  0.457678  -0.052779   0.542906)
  44:      3109.66    1.454291  ( -0.855499   0.828064  -0.191632)
  45:      3124.97    0.768814  (  0.143076  -0.467703  -0.727734)
  46:      3135.29    0.995465  ( -0.483663   0.337532   0.804740)
  47:      3188.67    0.828191  (  0.121121   0.137729  -0.891376)
  48:      3198.55    0.719707  (  0.055191  -0.794353   0.292686)
  49:      3461.15   56.974489  (  3.363527   4.084274  -5.383296)
  50:      3532.26   77.008325  ( -7.670030   4.263153  -0.066977)

--------------------------
THERMOCHEMISTRY AT 298.15K
--------------------------

Temperature         ... 298.15 K
Pressure            ... 1.00 atm
Total Mass          ... 100.14 AMU

Throughout the following assumptions are being made:
  (1) The electronic state is orbitally nondegenerate
  (2) There are no thermally accessible electronically excited states
  (3) Hindered rotations indicated by low frequency modes) are not
      treated as such but are treated as vibrations and this may
      case some error
  (4) All equations used are the standard statistical mechanics
      equations for an ideal gas
  (5) All vibrations are strinctly harmonic

------------
INNER ENERGY
------------

The inner energy is: U= E(el) + E(ZPE) + E(vib) + E(rot) + E(trans)
    E(el)   - is the total energy from the electronic structure calculation
              = E(kin-el) + E(nuc-el) + E(el-el) + E(nuc-nuc)
    E(ZPE)  - the the zero temperature vibrational energy from the frequency calculation
    E(vib)  - the the finite temperature correction to E(ZPE) due to population
              of excietd vibrational states
    E(rot)  - is the rotational thermal energy
    E(trans)- is the translational thermal energy

Summary of contributions to the inner energy U:
Electronic energy                ...   -325.99005253 Eh
Zero point energy                ...      0.15241257 Eh      95.64 kcal/mol
Thermal vibrational correction   ...      0.00440470 Eh       2.76 kcal/mol
Thermal rotational correction    ...      0.00141627 Eh       0.89 kcal/mol
Thermal translational correction ...      0.00141627 Eh       0.89 kcal/mol
-----------------------------------------------------------------------
Total thermal energy                   -325.83040273 Eh

Summary of corrections to the electronic energy:
(perhaps to be used in another calculation)
Total thermal correction                  0.00723724 Eh       4.54 kcal/mol
Non-thermal (ZPE) correction              0.15241257 Eh      95.64 kcal/mol
-----------------------------------------------------------------------
Total correction                          0.15964981 Eh     100.18 kcal/mol

--------
ENTHALPY
--------

The enthalpy is H = U + kB*T
                kB is Boltzmann's constant
Total free energy                 ...   -325.83040273 Eh
Thermal Enthalpy correction       ...      0.00094421 Eh       0.59 kcal/mol
-----------------------------------------------------------------------
Total Enthalpy                    ...   -325.82945852 Eh

-------
ENTROPY
-------

The entropy contributions are T*S = T*(S(el)+S(vib)+S(rot)+S(trans)
     S(el)   - electronic entropy
     S(vib)  - vibrational entropy
     S(rot)  - rotational entropy
     S(trans)- translational entropy
The entropies will be listed as mutliplied by the temperature to get
units of energy

Electronic entropy                ...      0.00000000 Eh      0.00 kcal/mol
Vibrational entropy               ...      0.00808328 Eh      5.07 kcal/mol
Rotational entropy                ...      0.01202203 Eh      7.54 kcal/mol
Translational entropy             ...      0.01887324 Eh     11.84 kcal/mol
-----------------------------------------------------------------------
Final entropy term                ...      0.03897855 Eh     24.46 kcal/mol

CAUTION: The rotational entropy is not quite correctly treated here
         because it includes a symmetry number that is not yet correctly
         implemented in ORCA!
For a nonlinear molecule the correct rotational entropy is:
    S(rot) = R*(ln(qrot/sn)+1.5)
    R    = 8.31441 J/mol/K = 1.987191683e-3 kcal/mol/K
    qrot = 226697.0855984
    sn is the rotational symmetry number. We have assumed 3 here
       if it is different for your molecule then you should correct
       the printed rotational entropy by manually evaluating the equation
       as given above

For convenience we print out the resulting values for sn=1 - 12:
 sn= 1  qrot/sn=  226697.0856 T*S(rot)=     8.19 kcal/mol T*S(tot)=    25.11 kcal/mol
 sn= 2  qrot/sn=  113348.5428 T*S(rot)=     7.78 kcal/mol T*S(tot)=    24.70 kcal/mol
 sn= 3  qrot/sn=   75565.6952 T*S(rot)=     7.54 kcal/mol T*S(tot)=    24.46 kcal/mol
 sn= 4  qrot/sn=   56674.2714 T*S(rot)=     7.37 kcal/mol T*S(tot)=    24.29 kcal/mol
 sn= 5  qrot/sn=   45339.4171 T*S(rot)=     7.24 kcal/mol T*S(tot)=    24.16 kcal/mol
 sn= 6  qrot/sn=   37782.8476 T*S(rot)=     7.13 kcal/mol T*S(tot)=    24.05 kcal/mol
 sn= 7  qrot/sn=   32385.2979 T*S(rot)=     7.04 kcal/mol T*S(tot)=    23.96 kcal/mol
 sn= 8  qrot/sn=   28337.1357 T*S(rot)=     6.96 kcal/mol T*S(tot)=    23.88 kcal/mol
 sn= 9  qrot/sn=   25188.5651 T*S(rot)=     6.89 kcal/mol T*S(tot)=    23.81 kcal/mol
 sn=10  qrot/sn=   22669.7086 T*S(rot)=     6.83 kcal/mol T*S(tot)=    23.75 kcal/mol
 sn=11  qrot/sn=   20608.8260 T*S(rot)=     6.77 kcal/mol T*S(tot)=    23.69 kcal/mol
 sn=12  qrot/sn=   18891.4238 T*S(rot)=     6.72 kcal/mol T*S(tot)=    23.64 kcal/mol

-------------------
GIBBS FREE ENTHALPY
-------------------

The Gibbs free enthalpy is G = H - T*S

Total enthalpy                    ...   -325.82945852 Eh
Total entropy correction          ...     -0.03897855 Eh    -24.46 kcal/mol
-----------------------------------------------------------------------
Final Gibbs free enthalpy         ...   -325.86843707 Eh

For completeness - the Gibbs free enthalpy minus the electronic energy
G-E(el)                           ...      0.12161547 Eh     76.31 kcal/mol

                             ****ORCA TERMINATED NORMALLY****
TOTAL RUN TIME: 0 days 0 hours 36 minutes 26 seconds 676 msec
