                         Program Version 3.0.3 - RELEASE   -
|  1> ! NORI PBE0 def2-TZVP UseSym TightOPT Freq TightSCF Grid3 FinalGrid5 XYZFile
|  2> % pal
|  3>     nprocs 8
|  4> end
|  5> %method
|  6>     SymThresh 5.0e-2
|  7> end
|  8> % geom
|  9>     MaxIter 10
| 10> end
| 11> % maxcore 2000
| 12> % output
| 13>     printlevel mini
| 14>     print[ P_Basis ] 0
| 15>     print[ P_SCFInfo ] 1
| 16>     print[ P_SCFIterInfo ] 1
| 17>     print[ P_OrbEn ] 0
| 18>     print[ P_Cartesian ] 0
| 19> end
| 20> % elprop
| 21>     Dipole false
| 22> end
| 23> *xyz 1 1
| 24>  O        3.1887971198    -1.8673479755    -1.4703628345
| 25>  C        2.4314418024    -0.7031479478    -1.7439354147
| 26>  C        3.1006425331     0.4440378846    -1.0178739081
| 27>  C        4.5593856971     0.5769854973    -1.3945373803
| 28>  C        5.4222071565     1.5785295713    -0.6106601786
| 29>  N        6.5373486221     0.5539112719    -0.5361085630
| 30>  C        5.5284482528    -0.5211764449    -0.9286845632
| 31>  H        2.7417944741    -2.6350926329    -1.8357045229
| 32>  H        1.3998312856    -0.8053078214    -1.3916558459
| 33>  H        2.4010079286    -0.5013123253    -2.8230881297
| 34>  H        3.0150081214     0.2875824740     0.0634410695
| 35>  H        2.5731081792     1.3727569723    -1.2546087306
| 36>  H        4.6627952961     0.7438369167    -2.4707620962
| 37>  H        5.0583667585     1.7664485616     0.3989562911
| 38>  H        5.7316123797     2.5096223043    -1.0802496503
| 39>  H        7.2487570050     0.7005580165    -1.2502953627
| 40>  H        7.0061719909     0.4448631778     0.3616314345
| 41>  H        5.9223194062    -1.2318009596    -1.6494811606
| 42>  H        5.2001559909    -1.0376465410    -0.0296204537
| 43> *
| 44>
| 45>                          ****END OF INPUT****
 Total Charge           Charge          ....    1
 Multiplicity           Mult            ....    1
 Number of Electrons    NEL             ....   56
FINAL SINGLE POINT ENERGY      -327.207926457182

CARTESIAN COORDINATES (ANGSTROEM)
---------------------------------
  O     -0.000029   -0.002078    2.220104
  C     -1.318235   -0.117872    1.717076
  C     -1.295582    0.382929    0.288898
  C     -0.268370   -0.345509   -0.548875
  C      0.002213    0.166839   -1.972395
  N      1.492151   -0.000044   -1.745306
  C      1.217711   -0.095015   -0.247577
  H      0.007594   -0.220777    3.155454
  H     -2.023829    0.481013    2.302413
  H     -1.657110   -1.162052    1.746011
  H     -1.075735    1.456332    0.285133
  H     -2.288619    0.253116   -0.151005
  H     -0.477723   -1.418955   -0.562579
  H     -0.210658    1.228131   -2.098475
  H     -0.362615   -0.396324   -2.828659
  H      1.849459   -0.871933   -2.132306
  H      2.095692    0.758011   -2.059449
  H      1.803867   -0.865450    0.244448
  H      1.411853    0.874585    0.205391

FINAL SINGLE POINT ENERGY      -327.207927106071
                    ***********************HURRAY********************
 Multiplicity           Mult            ....    1
 Number of Electrons    NEL             ....   56
 Basis Dimension        Dim             ....  289
FINAL SINGLE POINT ENERGY      -327.207927317137

VIBRATIONAL FREQUENCIES
-----------------------

   0:         0.00 cm**-1
   1:         0.00 cm**-1
   2:         0.00 cm**-1
   3:         0.00 cm**-1
   4:         0.00 cm**-1
   5:         0.00 cm**-1
   6:        87.50 cm**-1
   7:       128.27 cm**-1
   8:       145.72 cm**-1
   9:       237.35 cm**-1
  10:       305.91 cm**-1
  11:       319.09 cm**-1
  12:       400.61 cm**-1
  13:       502.55 cm**-1
  14:       661.72 cm**-1
  15:       797.82 cm**-1
  16:       815.73 cm**-1
  17:       871.40 cm**-1
  18:       883.82 cm**-1
  19:       896.53 cm**-1
  20:       937.74 cm**-1
  21:       970.07 cm**-1
  22:       999.76 cm**-1
  23:      1009.75 cm**-1
  24:      1068.45 cm**-1
  25:      1126.16 cm**-1
  26:      1134.70 cm**-1
  27:      1176.93 cm**-1
  28:      1214.23 cm**-1
  29:      1242.64 cm**-1
  30:      1258.29 cm**-1
  31:      1282.26 cm**-1
  32:      1286.21 cm**-1
  33:      1313.06 cm**-1
  34:      1316.70 cm**-1
  35:      1320.27 cm**-1
  36:      1335.59 cm**-1
  37:      1368.17 cm**-1
  38:      1417.20 cm**-1
  39:      1453.24 cm**-1
  40:      1469.16 cm**-1
  41:      1477.31 cm**-1
  42:      1498.53 cm**-1
  43:      1518.61 cm**-1
  44:      1648.72 cm**-1
  45:      3017.42 cm**-1
  46:      3048.80 cm**-1
  47:      3075.19 cm**-1
  48:      3082.51 cm**-1
  49:      3109.36 cm**-1
  50:      3113.87 cm**-1
  51:      3138.14 cm**-1
  52:      3187.13 cm**-1
  53:      3213.56 cm**-1
  54:      3474.24 cm**-1
  55:      3542.96 cm**-1
  56:      3871.33 cm**-1

IR SPECTRUM
-----------

 Mode    freq (cm**-1)   T**2         TX         TY         TZ
-------------------------------------------------------------------
   6:        87.50    1.371869  ( -0.225083   1.051723  -0.463773)
   7:       128.27    5.363461  ( -0.021083  -2.271361  -0.451591)
   8:       145.72   13.671690  ( -0.046953   0.646256   3.640307)
   9:       237.35   10.265282  (  0.473860  -3.154046  -0.304517)
  10:       305.91   58.943928  (  1.545147  -7.464931  -0.911728)
  11:       319.09   59.850672  (  0.705683  -7.151572  -2.864908)
  12:       400.61    2.930875  ( -1.417237   0.538173   0.795415)
  13:       502.55   10.128886  (  2.594012   0.536954   1.763992)
  14:       661.72    4.333188  ( -0.140263  -2.076631   0.033432)
  15:       797.82    2.411067  (  0.814278  -1.321249   0.048171)
  16:       815.73    3.477710  ( -0.168540   0.245177   1.840976)
  17:       871.40    7.694147  ( -2.590168  -0.506799  -0.853423)
  18:       883.82   16.229512  ( -0.221662  -1.476409   3.741737)
  19:       896.53    4.460922  ( -1.390198  -1.188192  -1.056633)
  20:       937.74    4.990483  ( -1.812269  -0.037822   1.305655)
  21:       970.07    2.348320  ( -0.255929   0.720490   1.328049)
  22:       999.76   10.788250  ( -3.217180  -0.615731   0.242653)
  23:      1009.75    0.546545  ( -0.299056   0.613494  -0.284140)
  24:      1068.45   18.592464  ( -3.798817   0.360694  -2.007823)
  25:      1126.16   44.843783  (  5.770241   0.033646   3.398083)
  26:      1134.70    6.906342  ( -2.316388  -0.501435  -1.135451)
  27:      1176.93    0.777121  (  0.397012  -0.712562   0.334302)
  28:      1214.23   43.960873  ( -5.442607  -0.586102  -3.741041)
  29:      1242.64   13.635961  (  0.652930  -0.561513   3.590870)
  30:      1258.29    3.974796  ( -0.247236  -1.757440   0.908337)
  31:      1282.26    9.564858  (  2.101605  -1.135488   1.964378)
  32:      1286.21   28.717268  (  4.519678   0.708016   2.790787)
  33:      1313.06    2.177128  ( -0.772763  -0.672872   1.061701)
  34:      1316.70   11.851220  (  1.077807   0.771091  -3.177258)
  35:      1320.27   13.307432  ( -2.806349   0.148323  -2.325906)
  36:      1335.59   23.088145  (  4.224969   0.714643   2.174182)
  37:      1368.17    0.945690  ( -0.649793   0.296124  -0.660128)
  38:      1417.20    0.291272  ( -0.512773  -0.142669  -0.089338)
  39:      1453.24    4.228467  (  1.230247   0.223173  -1.632530)
  40:      1469.16   14.102510  ( -1.591145   2.210847  -2.585136)
  41:      1477.31    8.289021  ( -1.831497  -0.974368  -1.996308)
  42:      1498.53    9.852669  ( -0.388386  -2.843115   1.272213)
  43:      1518.61    3.171185  ( -0.195003  -0.791311   1.583346)
  44:      1648.72   58.412138  ( -6.139425   0.767726   4.486669)
  45:      3017.42   34.050430  ( -4.581952  -3.528893   0.776570)
  46:      3048.80    7.541531  (  0.836825   1.862294  -1.836604)
  47:      3075.19   20.328655  (  2.561789  -3.389411  -1.509232)
  48:      3082.51    7.309292  ( -0.938271   2.502782   0.406231)
  49:      3109.36   10.767395  ( -2.004649  -2.551253  -0.489784)
  50:      3113.87    2.210150  (  0.101782  -1.118483   0.974057)
  51:      3138.14    0.440726  ( -0.539803  -0.370576   0.109602)
  52:      3187.13    0.438229  ( -0.321022  -0.102487  -0.569799)
  53:      3213.56    0.371545  (  0.189331   0.267992   0.513692)
  54:      3474.24   66.761023  ( -6.565007   0.325990   4.853394)
  55:      3542.96   82.259894  (  0.841135   8.993878   0.813973)
  56:      3871.33   83.896437  ( -1.858060   1.468190  -8.848077)

--------------------------
THERMOCHEMISTRY AT 298.15K
--------------------------

Temperature         ... 298.15 K
Pressure            ... 1.00 atm
Total Mass          ... 102.16 AMU

Throughout the following assumptions are being made:
  (1) The electronic state is orbitally nondegenerate
  (2) There are no thermally accessible electronically excited states
  (3) Hindered rotations indicated by low frequency modes) are not
      treated as such but are treated as vibrations and this may
      case some error
  (4) All equations used are the standard statistical mechanics
      equations for an ideal gas
  (5) All vibrations are strinctly harmonic

------------
INNER ENERGY
------------

The inner energy is: U= E(el) + E(ZPE) + E(vib) + E(rot) + E(trans)
    E(el)   - is the total energy from the electronic structure calculation
              = E(kin-el) + E(nuc-el) + E(el-el) + E(nuc-nuc)
    E(ZPE)  - the the zero temperature vibrational energy from the frequency calculation
    E(vib)  - the the finite temperature correction to E(ZPE) due to population
              of excietd vibrational states
    E(rot)  - is the rotational thermal energy
    E(trans)- is the translational thermal energy

Summary of contributions to the inner energy U:
Electronic energy                ...   -327.20792732 Eh
Zero point energy                ...      0.17717826 Eh     111.18 kcal/mol
Thermal vibrational correction   ...      0.00479518 Eh       3.01 kcal/mol
Thermal rotational correction    ...      0.00141627 Eh       0.89 kcal/mol
Thermal translational correction ...      0.00141627 Eh       0.89 kcal/mol
-----------------------------------------------------------------------
Total thermal energy                   -327.02312134 Eh

Summary of corrections to the electronic energy:
(perhaps to be used in another calculation)
Total thermal correction                  0.00762772 Eh       4.79 kcal/mol
Non-thermal (ZPE) correction              0.17717826 Eh     111.18 kcal/mol
-----------------------------------------------------------------------
Total correction                          0.18480598 Eh     115.97 kcal/mol

--------
ENTHALPY
--------

The enthalpy is H = U + kB*T
                kB is Boltzmann's constant
Total free energy                 ...   -327.02312134 Eh
Thermal Enthalpy correction       ...      0.00094421 Eh       0.59 kcal/mol
-----------------------------------------------------------------------
Total Enthalpy                    ...   -327.02217713 Eh

-------
ENTROPY
-------

The entropy contributions are T*S = T*(S(el)+S(vib)+S(rot)+S(trans)
     S(el)   - electronic entropy
     S(vib)  - vibrational entropy
     S(rot)  - rotational entropy
     S(trans)- translational entropy
The entropies will be listed as mutliplied by the temperature to get
units of energy

Electronic entropy                ...      0.00000000 Eh      0.00 kcal/mol
Vibrational entropy               ...      0.00843919 Eh      5.30 kcal/mol
Rotational entropy                ...      0.01209213 Eh      7.59 kcal/mol
Translational entropy             ...      0.01890147 Eh     11.86 kcal/mol
-----------------------------------------------------------------------
Final entropy term                ...      0.03943278 Eh     24.74 kcal/mol

CAUTION: The rotational entropy is not quite correctly treated here
         because it includes a symmetry number that is not yet correctly
         implemented in ORCA!
For a nonlinear molecule the correct rotational entropy is:
    S(rot) = R*(ln(qrot/sn)+1.5)
    R    = 8.31441 J/mol/K = 1.987191683e-3 kcal/mol/K
    qrot = 244168.7605545
    sn is the rotational symmetry number. We have assumed 3 here
       if it is different for your molecule then you should correct
       the printed rotational entropy by manually evaluating the equation
       as given above

For convenience we print out the resulting values for sn=1 - 12:
 sn= 1  qrot/sn=  244168.7606 T*S(rot)=     8.24 kcal/mol T*S(tot)=    25.40 kcal/mol
 sn= 2  qrot/sn=  122084.3803 T*S(rot)=     7.83 kcal/mol T*S(tot)=    24.98 kcal/mol
 sn= 3  qrot/sn=   81389.5869 T*S(rot)=     7.59 kcal/mol T*S(tot)=    24.74 kcal/mol
 sn= 4  qrot/sn=   61042.1901 T*S(rot)=     7.42 kcal/mol T*S(tot)=    24.57 kcal/mol
 sn= 5  qrot/sn=   48833.7521 T*S(rot)=     7.29 kcal/mol T*S(tot)=    24.44 kcal/mol
 sn= 6  qrot/sn=   40694.7934 T*S(rot)=     7.18 kcal/mol T*S(tot)=    24.33 kcal/mol
 sn= 7  qrot/sn=   34881.2515 T*S(rot)=     7.09 kcal/mol T*S(tot)=    24.24 kcal/mol
 sn= 8  qrot/sn=   30521.0951 T*S(rot)=     7.01 kcal/mol T*S(tot)=    24.16 kcal/mol
 sn= 9  qrot/sn=   27129.8623 T*S(rot)=     6.94 kcal/mol T*S(tot)=    24.09 kcal/mol
 sn=10  qrot/sn=   24416.8761 T*S(rot)=     6.87 kcal/mol T*S(tot)=    24.03 kcal/mol
 sn=11  qrot/sn=   22197.1601 T*S(rot)=     6.82 kcal/mol T*S(tot)=    23.97 kcal/mol
 sn=12  qrot/sn=   20347.3967 T*S(rot)=     6.77 kcal/mol T*S(tot)=    23.92 kcal/mol

-------------------
GIBBS FREE ENTHALPY
-------------------

The Gibbs free enthalpy is G = H - T*S

Total enthalpy                    ...   -327.02217713 Eh
Total entropy correction          ...     -0.03943278 Eh    -24.74 kcal/mol
-----------------------------------------------------------------------
Final Gibbs free enthalpy         ...   -327.06160991 Eh

For completeness - the Gibbs free enthalpy minus the electronic energy
G-E(el)                           ...      0.14631741 Eh     91.82 kcal/mol

                             ****ORCA TERMINATED NORMALLY****
TOTAL RUN TIME: 0 days 0 hours 43 minutes 52 seconds 665 msec
