                         Program Version 3.0.3 - RELEASE   -
|  1> ! NORI PBE0 def2-TZVP UseSym TightOPT Freq TightSCF Grid3 FinalGrid5 XYZFile
|  2> % pal
|  3>     nprocs 8
|  4> end
|  5> %method
|  6>     SymThresh 5.0e-2
|  7> end
|  8> % geom
|  9>     MaxIter 10
| 10> end
| 11> % maxcore 2000
| 12> % output
| 13>     printlevel mini
| 14>     print[ P_Basis ] 0
| 15>     print[ P_SCFInfo ] 1
| 16>     print[ P_SCFIterInfo ] 1
| 17>     print[ P_OrbEn ] 0
| 18>     print[ P_Cartesian ] 0
| 19> end
| 20> % elprop
| 21>     Dipole false
| 22> end
| 23> *xyz 1 1
| 24>  O        2.8798712536     2.0809518123    -1.3605498970
| 25>  C        2.2472692567     1.0600253124    -1.3659935101
| 26>  C        2.8749432355    -0.2727195051    -1.0451290666
| 27>  C        4.3762616274    -0.1506261192    -0.9397472226
| 28>  C        4.9467751083     0.8594913820     0.0661833064
| 29>  N        5.9925125501    -0.1716797198     0.4831248038
| 30>  C        5.1643723028    -1.2430704686    -0.2006206388
| 31>  H        1.1656783160     1.0510702294    -1.5927553412
| 32>  H        2.5817708497    -1.0007987036    -1.8091018036
| 33>  H        2.4252326209    -0.6299544319    -0.1082655642
| 34>  H        4.8036421331     0.0334677549    -1.9279113544
| 35>  H        4.2990080849     1.0579850707     0.9184124060
| 36>  H        5.3821625429     1.7835731979    -0.3014777511
| 37>  H        6.8903754014    -0.0197280492     0.0255329311
| 38>  H        6.1610596160    -0.2856159502     1.4816447550
| 39>  H        5.7676719785    -1.9485501216    -0.7680032778
| 40>  H        4.5840831222    -1.7672016904     0.5583272252
| 41> *
| 42>
| 43>                          ****END OF INPUT****
 Total Charge           Charge          ....    1
 Multiplicity           Mult            ....    1
 Number of Electrons    NEL             ....   54
FINAL SINGLE POINT ENERGY      -325.990329390951
FINAL SINGLE POINT ENERGY      -325.990326664599

CARTESIAN COORDINATES (ANGSTROEM)
---------------------------------
  O      0.001376   -0.000666    2.266477
  C     -1.080218   -0.264641    1.816059
  C     -1.373044   -0.188610    0.339000
  C     -0.224091    0.448630   -0.405723
  C      1.166474   -0.187020   -0.262662
  N      1.387412    0.000000   -1.761411
  C     -0.103078    0.231900   -1.921852
  H     -1.911913   -0.595536    2.464916
  H     -2.307679    0.361078    0.186391
  H     -1.571247   -1.211843   -0.009413
  H     -0.168616    1.511783   -0.161733
  H      1.151447   -1.254190   -0.046582
  H      1.915599    0.311157    0.344979
  H      1.937250    0.832079   -1.970725
  H      1.790617   -0.783112   -2.273494
  H     -0.334898    1.048208   -2.602260
  H     -0.560083   -0.693016   -2.272242

FINAL SINGLE POINT ENERGY      -325.990330842939
                    ***********************HURRAY********************
 Multiplicity           Mult            ....    1
 Number of Electrons    NEL             ....   54
 Basis Dimension        Dim             ....  277
FINAL SINGLE POINT ENERGY      -325.990330956410

VIBRATIONAL FREQUENCIES
-----------------------

   0:         0.00 cm**-1
   1:         0.00 cm**-1
   2:         0.00 cm**-1
   3:         0.00 cm**-1
   4:         0.00 cm**-1
   5:         0.00 cm**-1
   6:        79.08 cm**-1
   7:       128.81 cm**-1
   8:       165.54 cm**-1
   9:       200.49 cm**-1
  10:       323.98 cm**-1
  11:       385.95 cm**-1
  12:       604.80 cm**-1
  13:       702.21 cm**-1
  14:       756.61 cm**-1
  15:       805.72 cm**-1
  16:       848.67 cm**-1
  17:       878.07 cm**-1
  18:       896.28 cm**-1
  19:       922.53 cm**-1
  20:       963.81 cm**-1
  21:       982.83 cm**-1
  22:      1015.97 cm**-1
  23:      1088.78 cm**-1
  24:      1143.35 cm**-1
  25:      1166.03 cm**-1
  26:      1238.43 cm**-1
  27:      1246.93 cm**-1
  28:      1279.76 cm**-1
  29:      1290.94 cm**-1
  30:      1317.80 cm**-1
  31:      1318.05 cm**-1
  32:      1333.19 cm**-1
  33:      1354.52 cm**-1
  34:      1402.41 cm**-1
  35:      1417.52 cm**-1
  36:      1448.35 cm**-1
  37:      1478.25 cm**-1
  38:      1499.35 cm**-1
  39:      1649.00 cm**-1
  40:      1829.28 cm**-1
  41:      2981.66 cm**-1
  42:      3034.34 cm**-1
  43:      3089.43 cm**-1
  44:      3103.60 cm**-1
  45:      3116.58 cm**-1
  46:      3130.73 cm**-1
  47:      3189.44 cm**-1
  48:      3212.29 cm**-1
  49:      3471.33 cm**-1
  50:      3539.12 cm**-1

IR SPECTRUM
-----------

 Mode    freq (cm**-1)   T**2         TX         TY         TZ
-------------------------------------------------------------------
   6:        79.08    6.031335  ( -0.935035   1.442791   1.753681)
   7:       128.81    8.861106  (  0.204832  -2.935529  -0.449244)
   8:       165.54   15.888291  (  0.777285   1.270007  -3.697459)
   9:       200.49    6.788102  ( -0.902358   1.235070   2.109136)
  10:       323.98    5.206576  ( -1.007045  -0.010067   2.047519)
  11:       385.95    0.376608  (  0.382616   0.477962   0.042019)
  12:       604.80   10.221648  ( -0.235856   2.324027  -2.182870)
  13:       702.21    0.479966  ( -0.557725   0.068065  -0.405310)
  14:       756.61    6.188500  (  0.609730  -1.826493  -1.575008)
  15:       805.72    5.175731  ( -1.389297  -0.978509  -1.512649)
  16:       848.67    8.593152  ( -0.346167  -0.809913   2.795954)
  17:       878.07   12.224587  ( -1.382759   1.152998   2.997192)
  18:       896.28    5.182606  ( -0.841199   1.716195  -1.236797)
  19:       922.53   26.593421  (  1.319517  -0.284085  -4.977107)
  20:       963.81    3.238281  (  1.584030   0.003932   0.853881)
  21:       982.83    3.393642  ( -1.485138  -0.057233   1.088453)
  22:      1015.97    0.616240  (  0.297861  -0.225041  -0.690561)
  23:      1088.78    1.792076  (  0.137826  -0.195205  -1.317185)
  24:      1143.35    0.672176  (  0.074564  -0.721864   0.381482)
  25:      1166.03    0.936687  ( -0.448211   0.383920   0.767072)
  26:      1238.43   40.204975  (  3.230928  -1.288045   5.301605)
  27:      1246.93    0.764018  ( -0.130161   0.847398  -0.170270)
  28:      1279.76   10.806349  ( -2.388063  -0.073312  -2.257903)
  29:      1290.94    1.147162  (  0.166476  -0.918170  -0.525748)
  30:      1317.80   36.145344  (  2.540817  -1.057247   5.345261)
  31:      1318.05    9.215435  ( -1.519054   0.772053  -2.512338)
  32:      1333.19    4.205011  (  1.417152  -1.109821   0.982339)
  33:      1354.52   12.045636  ( -0.424229   0.298865  -3.431668)
  34:      1402.41   13.409086  (  2.642418   0.893163  -2.372546)
  35:      1417.52   13.157284  ( -2.684986  -0.669292  -2.345246)
  36:      1448.35   15.309112  (  2.516070   1.340685   2.679752)
  37:      1478.25   11.394330  (  2.130183  -1.289109   2.279221)
  38:      1499.35    8.367660  ( -0.511510  -2.227189  -1.773597)
  39:      1649.00   59.655763  ( -6.144129  -0.342995   4.667740)
  40:      1829.28  125.283250  (  8.959545   2.134697   6.360257)
  41:      2981.66   51.575608  (  5.287965   1.817300  -4.506712)
  42:      3034.34    4.977754  ( -1.119991  -1.487154   1.229532)
  43:      3089.43    1.120294  (  0.615436   0.247176  -0.824886)
  44:      3103.60    0.671175  ( -0.009977  -0.805434   0.149501)
  45:      3116.58    1.016073  (  0.374419   0.475565   0.806053)
  46:      3130.73    0.956480  (  0.220365   0.910095   0.282217)
  47:      3189.44    0.237685  ( -0.210451   0.063718  -0.435127)
  48:      3212.29    0.592558  (  0.310829   0.602246   0.365024)
  49:      3471.33   71.947544  ( -6.705648  -0.123517   5.192935)
  50:      3539.12   87.298138  ( -1.225397  -9.165046  -1.341071)

--------------------------
THERMOCHEMISTRY AT 298.15K
--------------------------

Temperature         ... 298.15 K
Pressure            ... 1.00 atm
Total Mass          ... 100.14 AMU

Throughout the following assumptions are being made:
  (1) The electronic state is orbitally nondegenerate
  (2) There are no thermally accessible electronically excited states
  (3) Hindered rotations indicated by low frequency modes) are not
      treated as such but are treated as vibrations and this may
      case some error
  (4) All equations used are the standard statistical mechanics
      equations for an ideal gas
  (5) All vibrations are strinctly harmonic

------------
INNER ENERGY
------------

The inner energy is: U= E(el) + E(ZPE) + E(vib) + E(rot) + E(trans)
    E(el)   - is the total energy from the electronic structure calculation
              = E(kin-el) + E(nuc-el) + E(el-el) + E(nuc-nuc)
    E(ZPE)  - the the zero temperature vibrational energy from the frequency calculation
    E(vib)  - the the finite temperature correction to E(ZPE) due to population
              of excietd vibrational states
    E(rot)  - is the rotational thermal energy
    E(trans)- is the translational thermal energy

Summary of contributions to the inner energy U:
Electronic energy                ...   -325.99033096 Eh
Zero point energy                ...      0.15270977 Eh      95.83 kcal/mol
Thermal vibrational correction   ...      0.00432257 Eh       2.71 kcal/mol
Thermal rotational correction    ...      0.00141627 Eh       0.89 kcal/mol
Thermal translational correction ...      0.00141627 Eh       0.89 kcal/mol
-----------------------------------------------------------------------
Total thermal energy                   -325.83046608 Eh

Summary of corrections to the electronic energy:
(perhaps to be used in another calculation)
Total thermal correction                  0.00715511 Eh       4.49 kcal/mol
Non-thermal (ZPE) correction              0.15270977 Eh      95.83 kcal/mol
-----------------------------------------------------------------------
Total correction                          0.15986488 Eh     100.32 kcal/mol

--------
ENTHALPY
--------

The enthalpy is H = U + kB*T
                kB is Boltzmann's constant
Total free energy                 ...   -325.83046608 Eh
Thermal Enthalpy correction       ...      0.00094421 Eh       0.59 kcal/mol
-----------------------------------------------------------------------
Total Enthalpy                    ...   -325.82952187 Eh

-------
ENTROPY
-------

The entropy contributions are T*S = T*(S(el)+S(vib)+S(rot)+S(trans)
     S(el)   - electronic entropy
     S(vib)  - vibrational entropy
     S(rot)  - rotational entropy
     S(trans)- translational entropy
The entropies will be listed as mutliplied by the temperature to get
units of energy

Electronic entropy                ...      0.00000000 Eh      0.00 kcal/mol
Vibrational entropy               ...      0.00776919 Eh      4.88 kcal/mol
Rotational entropy                ...      0.01200396 Eh      7.53 kcal/mol
Translational entropy             ...      0.01887324 Eh     11.84 kcal/mol
-----------------------------------------------------------------------
Final entropy term                ...      0.03864639 Eh     24.25 kcal/mol

CAUTION: The rotational entropy is not quite correctly treated here
         because it includes a symmetry number that is not yet correctly
         implemented in ORCA!
For a nonlinear molecule the correct rotational entropy is:
    S(rot) = R*(ln(qrot/sn)+1.5)
    R    = 8.31441 J/mol/K = 1.987191683e-3 kcal/mol/K
    qrot = 222399.7599087
    sn is the rotational symmetry number. We have assumed 3 here
       if it is different for your molecule then you should correct
       the printed rotational entropy by manually evaluating the equation
       as given above

For convenience we print out the resulting values for sn=1 - 12:
 sn= 1  qrot/sn=  222399.7599 T*S(rot)=     8.18 kcal/mol T*S(tot)=    24.90 kcal/mol
 sn= 2  qrot/sn=  111199.8800 T*S(rot)=     7.77 kcal/mol T*S(tot)=    24.49 kcal/mol
 sn= 3  qrot/sn=   74133.2533 T*S(rot)=     7.53 kcal/mol T*S(tot)=    24.25 kcal/mol
 sn= 4  qrot/sn=   55599.9400 T*S(rot)=     7.36 kcal/mol T*S(tot)=    24.08 kcal/mol
 sn= 5  qrot/sn=   44479.9520 T*S(rot)=     7.23 kcal/mol T*S(tot)=    23.95 kcal/mol
 sn= 6  qrot/sn=   37066.6267 T*S(rot)=     7.12 kcal/mol T*S(tot)=    23.84 kcal/mol
 sn= 7  qrot/sn=   31771.3943 T*S(rot)=     7.03 kcal/mol T*S(tot)=    23.75 kcal/mol
 sn= 8  qrot/sn=   27799.9700 T*S(rot)=     6.95 kcal/mol T*S(tot)=    23.67 kcal/mol
 sn= 9  qrot/sn=   24711.0844 T*S(rot)=     6.88 kcal/mol T*S(tot)=    23.60 kcal/mol
 sn=10  qrot/sn=   22239.9760 T*S(rot)=     6.82 kcal/mol T*S(tot)=    23.54 kcal/mol
 sn=11  qrot/sn=   20218.1600 T*S(rot)=     6.76 kcal/mol T*S(tot)=    23.48 kcal/mol
 sn=12  qrot/sn=   18533.3133 T*S(rot)=     6.71 kcal/mol T*S(tot)=    23.43 kcal/mol

-------------------
GIBBS FREE ENTHALPY
-------------------

The Gibbs free enthalpy is G = H - T*S

Total enthalpy                    ...   -325.82952187 Eh
Total entropy correction          ...     -0.03864639 Eh    -24.25 kcal/mol
-----------------------------------------------------------------------
Final Gibbs free enthalpy         ...   -325.86816826 Eh

For completeness - the Gibbs free enthalpy minus the electronic energy
G-E(el)                           ...      0.12216270 Eh     76.66 kcal/mol

                             ****ORCA TERMINATED NORMALLY****
TOTAL RUN TIME: 0 days 0 hours 40 minutes 0 seconds 635 msec
