                         Program Version 3.0.3 - RELEASE   -
|  1> ! NORI PBE0 def2-TZVP UseSym TightOPT Freq TightSCF Grid3 FinalGrid5 XYZFile
|  2> % pal
|  3>     nprocs 8
|  4> end
|  5> %method
|  6>     SymThresh 5.0e-2
|  7> end
|  8> % geom
|  9>     MaxIter 10
| 10> end
| 11> % maxcore 2000
| 12> % output
| 13>     printlevel mini
| 14>     print[ P_Basis ] 0
| 15>     print[ P_SCFInfo ] 1
| 16>     print[ P_SCFIterInfo ] 1
| 17>     print[ P_OrbEn ] 0
| 18>     print[ P_Cartesian ] 0
| 19> end
| 20> % elprop
| 21>     Dipole false
| 22> end
| 23> *xyz 1 1
| 24>  O        1.7972172562    -3.5608225964     1.5765883492
| 25>  C        2.9281437513    -3.2819637825     0.8028219865
| 26>  C        2.5293528211    -2.2012997593    -0.1826699018
| 27>  C        3.6502085881    -1.7253710184    -1.0955961743
| 28>  C        4.0971641846    -2.7265396091    -2.1169209110
| 29>  C        5.4171774187    -2.6586469089    -2.7618698719
| 30>  N        5.1791786699    -3.6912598711    -1.7254939577
| 31>  H        2.0193495888    -4.1754461475     2.2806199417
| 32>  H        3.7671083204    -2.9258935365     1.4227680465
| 33>  H        3.2681790714    -4.1885357969     0.2710313293
| 34>  H        1.6837451595    -2.5588678529    -0.7784925792
| 35>  H        2.1601101782    -1.3465662888     0.3881448871
| 36>  H        3.3073953175    -0.8556658603    -1.6656786709
| 37>  H        4.5157426476    -1.3768179245    -0.5179686539
| 38>  H        3.3139825023    -3.2326358416    -2.6734271963
| 39>  H        6.1139533268    -1.8873681037    -2.4565857346
| 40>  H        5.5583504457    -3.0590703653    -3.7572765828
| 41>  H        5.6125262907    -3.5633825845    -0.8171999855
| 42>  H        5.1051844611    -4.6599261517    -2.0158843204
| 43> *
| 44>
| 45>                          ****END OF INPUT****
 Total Charge           Charge          ....    1
 Multiplicity           Mult            ....    1
 Number of Electrons    NEL             ....   56
FINAL SINGLE POINT ENERGY      -327.189798018913
FINAL SINGLE POINT ENERGY      -327.189799321021

CARTESIAN COORDINATES (ANGSTROEM)
---------------------------------
  O     -0.001985   -0.002434    3.025122
  C      0.193746    0.348383    1.685736
  C     -1.050666   -0.079344    0.933562
  C     -1.045859    0.257003   -0.551317
  C     -0.075653   -0.535379   -1.373719
  C      0.403418   -0.074654   -2.685607
  N      1.318903    0.000237   -1.522026
  H      0.719683    0.330341    3.564812
  H      0.341603    1.433908    1.567222
  H      1.087525   -0.157386    1.278228
  H     -1.199580   -1.154314    1.076132
  H     -1.908823    0.411616    1.398161
  H     -2.033142    0.042147   -0.972805
  H     -0.880722    1.329310   -0.718203
  H     -0.059277   -1.607698   -1.203911
  H      0.085235    0.893605   -3.052076
  H      0.706343   -0.791313   -3.437970
  H      1.512608    0.914604   -1.127948
  H      2.102225   -0.642296   -1.480976

FINAL SINGLE POINT ENERGY      -327.189800073614
                    ***********************HURRAY********************
 Multiplicity           Mult            ....    1
 Number of Electrons    NEL             ....   56
 Basis Dimension        Dim             ....  289
FINAL SINGLE POINT ENERGY      -327.189800355669

VIBRATIONAL FREQUENCIES
-----------------------

   0:         0.00 cm**-1
   1:         0.00 cm**-1
   2:         0.00 cm**-1
   3:         0.00 cm**-1
   4:         0.00 cm**-1
   5:         0.00 cm**-1
   6:        64.53 cm**-1
   7:        70.54 cm**-1
   8:        98.09 cm**-1
   9:       244.34 cm**-1
  10:       255.93 cm**-1
  11:       279.32 cm**-1
  12:       349.81 cm**-1
  13:       380.08 cm**-1
  14:       541.94 cm**-1
  15:       742.41 cm**-1
  16:       777.21 cm**-1
  17:       819.31 cm**-1
  18:       857.38 cm**-1
  19:       885.75 cm**-1
  20:       916.93 cm**-1
  21:       951.45 cm**-1
  22:      1019.09 cm**-1
  23:      1024.61 cm**-1
  24:      1031.94 cm**-1
  25:      1097.31 cm**-1
  26:      1136.73 cm**-1
  27:      1158.10 cm**-1
  28:      1176.04 cm**-1
  29:      1184.54 cm**-1
  30:      1241.39 cm**-1
  31:      1250.24 cm**-1
  32:      1252.18 cm**-1
  33:      1279.05 cm**-1
  34:      1293.42 cm**-1
  35:      1315.51 cm**-1
  36:      1350.04 cm**-1
  37:      1369.20 cm**-1
  38:      1439.52 cm**-1
  39:      1459.77 cm**-1
  40:      1467.02 cm**-1
  41:      1484.22 cm**-1
  42:      1497.18 cm**-1
  43:      1519.78 cm**-1
  44:      1631.38 cm**-1
  45:      2936.40 cm**-1
  46:      2983.02 cm**-1
  47:      3036.18 cm**-1
  48:      3067.21 cm**-1
  49:      3093.98 cm**-1
  50:      3120.70 cm**-1
  51:      3170.85 cm**-1
  52:      3186.22 cm**-1
  53:      3272.44 cm**-1
  54:      3513.54 cm**-1
  55:      3618.53 cm**-1
  56:      3870.61 cm**-1

IR SPECTRUM
-----------

 Mode    freq (cm**-1)   T**2         TX         TY         TZ
-------------------------------------------------------------------
   6:        64.53    8.920974  (  1.699678  -2.427331  -0.374346)
   7:        70.54    2.966288  (  0.333793   1.500354  -0.777051)
   8:        98.09    7.987404  ( -1.053008   0.938075   2.449202)
   9:       244.34    0.223887  ( -0.303084   0.349274   0.100174)
  10:       255.93    6.767635  ( -0.031392   1.323889  -2.239189)
  11:       279.32  121.122672  ( -5.476772   9.346934   1.939709)
  12:       349.81    7.344304  (  0.712623  -0.243942  -2.603261)
  13:       380.08    1.278269  (  0.504950  -0.026329   1.011237)
  14:       541.94    7.905150  ( -0.416480  -0.261195  -2.768297)
  15:       742.41    0.391912  (  0.322902  -0.428008  -0.323196)
  16:       777.21    0.950912  (  0.366179  -0.607562   0.669099)
  17:       819.31   18.752306  (  3.733958   0.811353   2.037541)
  18:       857.38    4.043264  ( -1.416482   0.419531  -1.364125)
  19:       885.75    1.681813  (  0.883035  -0.929081   0.197154)
  20:       916.93    1.745509  ( -0.657026  -0.793450  -0.827202)
  21:       951.45   26.135648  ( -4.774906  -1.695805   0.678357)
  22:      1019.09   59.959813  ( -2.982916  -2.952541   6.507267)
  23:      1024.61  100.810705  ( -3.324528  -2.086259   9.241523)
  24:      1031.94    4.779885  ( -0.945122   1.920140   0.446870)
  25:      1097.31   10.056702  ( -0.626666  -1.123403   2.898613)
  26:      1136.73   71.156893  ( -0.364350  -0.799549   8.389569)
  27:      1158.10    1.776143  ( -0.334776  -1.288718  -0.057208)
  28:      1176.04    3.141555  ( -1.096922  -0.528705   1.287940)
  29:      1184.54    2.744586  (  1.345856   0.675727  -0.690398)
  30:      1241.39   27.103656  ( -0.766613  -2.041443   4.727417)
  31:      1250.24   13.727835  (  1.521824  -0.807433  -3.280235)
  32:      1252.18    1.527837  ( -0.400961  -0.169222   1.156906)
  33:      1279.05    3.883043  (  1.065422   1.033362   1.296180)
  34:      1293.42   12.124124  ( -0.129624  -1.862636   2.939032)
  35:      1315.51    2.961125  (  0.730610  -0.731518  -1.375578)
  36:      1350.04    2.475964  ( -1.448565  -0.150268   0.595854)
  37:      1369.20    4.315873  ( -0.493886  -0.861100   1.824954)
  38:      1439.52    0.279342  (  0.045819  -0.519638  -0.084962)
  39:      1459.77    8.578123  ( -0.449659   2.673739  -1.107723)
  40:      1467.02   15.812219  ( -1.562186   2.237369  -2.892399)
  41:      1484.22    6.863898  (  2.419134   1.004264  -0.056078)
  42:      1497.18   11.416958  (  0.951506   0.738823  -3.156855)
  43:      1519.78    1.754188  ( -0.529439   0.066541  -1.212210)
  44:      1631.38   54.101192  (  6.573524   2.734972   1.846592)
  45:      2936.40  106.148794  ( -7.369294   1.150462   7.107653)
  46:      2983.02   43.431384  (  0.504120  -6.469950   1.147603)
  47:      3036.18   10.888362  ( -0.881113  -2.061401   2.421286)
  48:      3067.21    8.353884  ( -1.452749  -2.369186   0.793954)
  49:      3093.98    2.691440  (  0.379122   1.565987   0.308855)
  50:      3120.70    6.015506  ( -0.897321   2.237219   0.452956)
  51:      3170.85    2.877792  ( -0.070719   0.130462  -1.689903)
  52:      3186.22    0.650274  (  0.439732   0.590995  -0.328077)
  53:      3272.44    5.563684  ( -0.739272   2.181872   0.506551)
  54:      3513.54   91.841528  ( -8.993837  -1.612562  -2.889995)
  55:      3618.53  116.382697  (  4.471250  -9.491677  -2.509720)
  56:      3870.61   74.227911  (  4.636919   1.791430   7.036880)

--------------------------
THERMOCHEMISTRY AT 298.15K
--------------------------

Temperature         ... 298.15 K
Pressure            ... 1.00 atm
Total Mass          ... 102.16 AMU

Throughout the following assumptions are being made:
  (1) The electronic state is orbitally nondegenerate
  (2) There are no thermally accessible electronically excited states
  (3) Hindered rotations indicated by low frequency modes) are not
      treated as such but are treated as vibrations and this may
      case some error
  (4) All equations used are the standard statistical mechanics
      equations for an ideal gas
  (5) All vibrations are strinctly harmonic

------------
INNER ENERGY
------------

The inner energy is: U= E(el) + E(ZPE) + E(vib) + E(rot) + E(trans)
    E(el)   - is the total energy from the electronic structure calculation
              = E(kin-el) + E(nuc-el) + E(el-el) + E(nuc-nuc)
    E(ZPE)  - the the zero temperature vibrational energy from the frequency calculation
    E(vib)  - the the finite temperature correction to E(ZPE) due to population
              of excietd vibrational states
    E(rot)  - is the rotational thermal energy
    E(trans)- is the translational thermal energy

Summary of contributions to the inner energy U:
Electronic energy                ...   -327.18980036 Eh
Zero point energy                ...      0.17492449 Eh     109.77 kcal/mol
Thermal vibrational correction   ...      0.00544297 Eh       3.42 kcal/mol
Thermal rotational correction    ...      0.00141627 Eh       0.89 kcal/mol
Thermal translational correction ...      0.00141627 Eh       0.89 kcal/mol
-----------------------------------------------------------------------
Total thermal energy                   -327.00660035 Eh

Summary of corrections to the electronic energy:
(perhaps to be used in another calculation)
Total thermal correction                  0.00827552 Eh       5.19 kcal/mol
Non-thermal (ZPE) correction              0.17492449 Eh     109.77 kcal/mol
-----------------------------------------------------------------------
Total correction                          0.18320001 Eh     114.96 kcal/mol

--------
ENTHALPY
--------

The enthalpy is H = U + kB*T
                kB is Boltzmann's constant
Total free energy                 ...   -327.00660035 Eh
Thermal Enthalpy correction       ...      0.00094421 Eh       0.59 kcal/mol
-----------------------------------------------------------------------
Total Enthalpy                    ...   -327.00565614 Eh

-------
ENTROPY
-------

The entropy contributions are T*S = T*(S(el)+S(vib)+S(rot)+S(trans)
     S(el)   - electronic entropy
     S(vib)  - vibrational entropy
     S(rot)  - rotational entropy
     S(trans)- translational entropy
The entropies will be listed as mutliplied by the temperature to get
units of energy

Electronic entropy                ...      0.00000000 Eh      0.00 kcal/mol
Vibrational entropy               ...      0.01034217 Eh      6.49 kcal/mol
Rotational entropy                ...      0.01228037 Eh      7.71 kcal/mol
Translational entropy             ...      0.01890147 Eh     11.86 kcal/mol
-----------------------------------------------------------------------
Final entropy term                ...      0.04152401 Eh     26.06 kcal/mol

CAUTION: The rotational entropy is not quite correctly treated here
         because it includes a symmetry number that is not yet correctly
         implemented in ORCA!
For a nonlinear molecule the correct rotational entropy is:
    S(rot) = R*(ln(qrot/sn)+1.5)
    R    = 8.31441 J/mol/K = 1.987191683e-3 kcal/mol/K
    qrot = 298040.8937509
    sn is the rotational symmetry number. We have assumed 3 here
       if it is different for your molecule then you should correct
       the printed rotational entropy by manually evaluating the equation
       as given above

For convenience we print out the resulting values for sn=1 - 12:
 sn= 1  qrot/sn=  298040.8938 T*S(rot)=     8.36 kcal/mol T*S(tot)=    26.71 kcal/mol
 sn= 2  qrot/sn=  149020.4469 T*S(rot)=     7.95 kcal/mol T*S(tot)=    26.30 kcal/mol
 sn= 3  qrot/sn=   99346.9646 T*S(rot)=     7.71 kcal/mol T*S(tot)=    26.06 kcal/mol
 sn= 4  qrot/sn=   74510.2234 T*S(rot)=     7.54 kcal/mol T*S(tot)=    25.89 kcal/mol
 sn= 5  qrot/sn=   59608.1788 T*S(rot)=     7.40 kcal/mol T*S(tot)=    25.75 kcal/mol
 sn= 6  qrot/sn=   49673.4823 T*S(rot)=     7.30 kcal/mol T*S(tot)=    25.65 kcal/mol
 sn= 7  qrot/sn=   42577.2705 T*S(rot)=     7.20 kcal/mol T*S(tot)=    25.55 kcal/mol
 sn= 8  qrot/sn=   37255.1117 T*S(rot)=     7.12 kcal/mol T*S(tot)=    25.48 kcal/mol
 sn= 9  qrot/sn=   33115.6549 T*S(rot)=     7.06 kcal/mol T*S(tot)=    25.41 kcal/mol
 sn=10  qrot/sn=   29804.0894 T*S(rot)=     6.99 kcal/mol T*S(tot)=    25.34 kcal/mol
 sn=11  qrot/sn=   27094.6267 T*S(rot)=     6.94 kcal/mol T*S(tot)=    25.29 kcal/mol
 sn=12  qrot/sn=   24836.7411 T*S(rot)=     6.88 kcal/mol T*S(tot)=    25.24 kcal/mol

-------------------
GIBBS FREE ENTHALPY
-------------------

The Gibbs free enthalpy is G = H - T*S

Total enthalpy                    ...   -327.00565614 Eh
Total entropy correction          ...     -0.04152401 Eh    -26.06 kcal/mol
-----------------------------------------------------------------------
Final Gibbs free enthalpy         ...   -327.04718015 Eh

For completeness - the Gibbs free enthalpy minus the electronic energy
G-E(el)                           ...      0.14262021 Eh     89.50 kcal/mol

                             ****ORCA TERMINATED NORMALLY****
TOTAL RUN TIME: 0 days 0 hours 38 minutes 31 seconds 638 msec
