                         Program Version 3.0.3 - RELEASE   -
|  1> ! NORI PBE0 def2-TZVP UseSym TightOPT Freq TightSCF Grid3 FinalGrid5 XYZFile
|  2> % pal
|  3>     nprocs 8
|  4> end
|  5> %method
|  6>     SymThresh 5.0e-2
|  7> end
|  8> % geom
|  9>     MaxIter 10
| 10> end
| 11> % maxcore 2000
| 12> % output
| 13>     printlevel mini
| 14>     print[ P_Basis ] 0
| 15>     print[ P_SCFInfo ] 1
| 16>     print[ P_SCFIterInfo ] 1
| 17>     print[ P_OrbEn ] 0
| 18>     print[ P_Cartesian ] 0
| 19> end
| 20> % elprop
| 21>     Dipole false
| 22> end
| 23> *xyz 1 1
| 24>  O        2.7847254059    -0.8383410283     0.1801103482
| 25>  C        2.3149301064    -0.0756359829    -0.6145514276
| 26>  C        2.9469508439     1.2590201848    -0.9362309238
| 27>  C        4.1648599346     1.5131027346    -0.0653612270
| 28>  C        4.9091628439     2.7653842243    -0.3992970076
| 29>  C        6.3393215091     2.9236314988    -0.0973905887
| 30>  N        5.9263991431     2.6792221988    -1.5011409709
| 31>  H        1.3857868492    -0.3104328101    -1.1681336278
| 32>  H        2.1844950995     2.0369169312    -0.8113377528
| 33>  H        3.1881832813     1.2523491641    -2.0078305349
| 34>  H        4.8379937673     0.6492705295    -0.0937929544
| 35>  H        3.8581430767     1.5936429676     0.9820297826
| 36>  H        4.3319250593     3.6812591700    -0.4807150898
| 37>  H        6.7539571595     3.9086555955     0.0738954531
| 38>  H        6.8773242050     2.0953065377     0.3472079618
| 39>  H        6.0063166572     3.4409009319    -2.1659230617
| 40>  H        6.1170950581     1.7636071526    -1.8946483787
| 41> *
| 42>
| 43>                          ****END OF INPUT****
 Total Charge           Charge          ....    1
 Multiplicity           Mult            ....    1
 Number of Electrons    NEL             ....   54
FINAL SINGLE POINT ENERGY      -325.979678928098
FINAL SINGLE POINT ENERGY      -325.979680001972
FINAL SINGLE POINT ENERGY      -325.979679547165
FINAL SINGLE POINT ENERGY      -325.979680954379

CARTESIAN COORDINATES (ANGSTROEM)
---------------------------------
  O      0.001285   -0.001066    2.783735
  C     -0.345653   -0.988162    2.201499
  C     -0.516999   -1.033188    0.700586
  C     -0.283328    0.334022    0.080553
  C     -0.330776    0.348489   -1.413282
  C      0.369726    1.371760   -2.203135
  N      0.938502    0.002565   -2.138098
  H     -0.556087   -1.935018    2.734508
  H     -1.521151   -1.415293    0.482720
  H      0.176514   -1.794122    0.318405
  H      0.662827    0.755438    0.436765
  H     -1.050446    1.031431    0.431006
  H     -1.185220   -0.123438   -1.888684
  H      0.002953    1.649400   -3.182835
  H      0.966889    2.114749   -1.688861
  H      0.895314   -0.576802   -2.969161
  H      1.775889   -0.132676   -1.581157

FINAL SINGLE POINT ENERGY      -325.979681080987
                    ***********************HURRAY********************
 Multiplicity           Mult            ....    1
 Number of Electrons    NEL             ....   54
 Basis Dimension        Dim             ....  277
FINAL SINGLE POINT ENERGY      -325.979681227392

VIBRATIONAL FREQUENCIES
-----------------------

   0:         0.00 cm**-1
   1:         0.00 cm**-1
   2:         0.00 cm**-1
   3:         0.00 cm**-1
   4:         0.00 cm**-1
   5:         0.00 cm**-1
   6:        32.42 cm**-1
   7:       100.26 cm**-1
   8:       143.33 cm**-1
   9:       194.06 cm**-1
  10:       254.25 cm**-1
  11:       371.08 cm**-1
  12:       429.19 cm**-1
  13:       662.66 cm**-1
  14:       687.75 cm**-1
  15:       766.82 cm**-1
  16:       829.93 cm**-1
  17:       863.44 cm**-1
  18:       889.99 cm**-1
  19:       898.72 cm**-1
  20:       940.73 cm**-1
  21:       968.37 cm**-1
  22:      1024.39 cm**-1
  23:      1048.76 cm**-1
  24:      1093.47 cm**-1
  25:      1159.82 cm**-1
  26:      1163.04 cm**-1
  27:      1184.82 cm**-1
  28:      1244.57 cm**-1
  29:      1252.69 cm**-1
  30:      1270.58 cm**-1
  31:      1293.45 cm**-1
  32:      1319.88 cm**-1
  33:      1378.02 cm**-1
  34:      1406.39 cm**-1
  35:      1437.80 cm**-1
  36:      1455.81 cm**-1
  37:      1462.63 cm**-1
  38:      1496.87 cm**-1
  39:      1631.26 cm**-1
  40:      1844.88 cm**-1
  41:      2964.65 cm**-1
  42:      3034.97 cm**-1
  43:      3062.41 cm**-1
  44:      3076.90 cm**-1
  45:      3107.20 cm**-1
  46:      3170.99 cm**-1
  47:      3186.66 cm**-1
  48:      3273.23 cm**-1
  49:      3511.61 cm**-1
  50:      3616.82 cm**-1

IR SPECTRUM
-----------

 Mode    freq (cm**-1)   T**2         TX         TY         TZ
-------------------------------------------------------------------
   7:       100.26    3.058634  ( -0.604915   1.300136  -1.001179)
   8:       143.33    4.312428  ( -0.259354  -0.850075   1.876842)
   9:       194.06    4.007209  ( -1.946362   0.371188   0.284784)
  10:       254.25   15.590185  ( -0.499831  -1.023498   3.780583)
  11:       371.08    0.806861  ( -0.370916   0.506467  -0.642475)
  12:       429.19    1.201405  (  0.260452  -0.363310   1.000788)
  13:       662.66    7.770636  (  2.116848  -0.859927   1.596909)
  14:       687.75    9.724520  (  1.273239   0.750386  -2.745961)
  15:       766.82    3.443319  ( -1.139226   1.226037   0.801447)
  16:       829.93    7.753963  (  2.072628  -1.789492  -0.505858)
  17:       863.44    5.592205  ( -0.949841   2.133400   0.372306)
  18:       889.99    0.729431  ( -0.459455   0.281315   0.662718)
  19:       898.72   37.020199  (  1.647285  -0.812257  -5.800594)
  20:       940.73   12.902982  (  3.342478  -1.148330   0.641999)
  21:       968.37    3.493916  ( -1.329885   1.311230   0.077438)
  22:      1024.39   97.154723  ( -5.048585  -6.295103   5.660229)
  23:      1048.76    6.003247  ( -1.542077  -0.897635   1.679136)
  24:      1093.47    6.187485  ( -0.156507   0.499014   2.431867)
  25:      1159.82    0.840899  (  0.897277   0.156435   0.106400)
  26:      1163.04    8.329136  ( -0.721218   0.606819  -2.727774)
  27:      1184.82    2.926284  ( -1.089586  -0.239948   1.296731)
  28:      1244.57    0.350998  ( -0.283200   0.495162  -0.160032)
  29:      1252.69    3.825418  ( -0.414984  -0.085240  -1.909435)
  30:      1270.58   11.517279  ( -2.155661   1.224734  -2.317420)
  31:      1293.45    4.493694  ( -0.344149   0.365370  -2.059554)
  32:      1319.88    1.318984  (  0.011641  -0.373690   1.085911)
  33:      1378.02   29.847784  ( -0.428324   0.533400   5.420314)
  34:      1406.39   11.460323  (  0.819068   3.045071  -1.231663)
  35:      1437.80    1.169375  ( -0.038870   0.451165   0.981995)
  36:      1455.81    0.771091  (  0.228951   0.796809  -0.289426)
  37:      1462.63   30.072144  ( -1.142123  -3.572210  -4.000876)
  38:      1496.87   13.107441  ( -0.822323  -2.822547   2.112926)
  39:      1631.26   60.820012  (  6.320177  -3.840500  -2.475063)
  40:      1844.88  143.872589  ( -2.833659  -7.571587  -8.860815)
  41:      2964.65   60.408598  (  1.577327   6.238733  -4.358766)
  42:      3034.97    8.480629  ( -0.652018   2.807200  -0.418483)
  43:      3062.41    7.800527  (  1.300364   1.462972  -1.992309)
  44:      3076.90    3.174997  ( -1.458247  -0.159964   1.011398)
  45:      3107.20    0.780991  (  0.769555   0.425909   0.085885)
  46:      3170.99    3.362919  (  0.211370   1.635350  -0.802417)
  47:      3186.66    0.674424  (  0.745351   0.273957  -0.209343)
  48:      3273.23    6.336242  (  1.397661   0.707244   1.970429)
  49:      3511.61  101.813665  ( -7.192782   6.072566   3.633386)
  50:      3616.82  124.858827  (  4.995679   3.194702   9.470792)

--------------------------
THERMOCHEMISTRY AT 298.15K
--------------------------

Temperature         ... 298.15 K
Pressure            ... 1.00 atm
Total Mass          ... 100.14 AMU

Throughout the following assumptions are being made:
  (1) The electronic state is orbitally nondegenerate
  (2) There are no thermally accessible electronically excited states
  (3) Hindered rotations indicated by low frequency modes) are not
      treated as such but are treated as vibrations and this may
      case some error
  (4) All equations used are the standard statistical mechanics
      equations for an ideal gas
  (5) All vibrations are strinctly harmonic

------------
INNER ENERGY
------------

The inner energy is: U= E(el) + E(ZPE) + E(vib) + E(rot) + E(trans)
    E(el)   - is the total energy from the electronic structure calculation
              = E(kin-el) + E(nuc-el) + E(el-el) + E(nuc-nuc)
    E(ZPE)  - the the zero temperature vibrational energy from the frequency calculation
    E(vib)  - the the finite temperature correction to E(ZPE) due to population
              of excietd vibrational states
    E(rot)  - is the rotational thermal energy
    E(trans)- is the translational thermal energy

Summary of contributions to the inner energy U:
Electronic energy                ...   -325.97968123 Eh
Zero point energy                ...      0.15075807 Eh      94.60 kcal/mol
Thermal vibrational correction   ...      0.00397661 Eh       2.50 kcal/mol
Thermal rotational correction    ...      0.00141627 Eh       0.89 kcal/mol
Thermal translational correction ...      0.00141627 Eh       0.89 kcal/mol
-----------------------------------------------------------------------
Total thermal energy                   -325.82211400 Eh

Summary of corrections to the electronic energy:
(perhaps to be used in another calculation)
Total thermal correction                  0.00680915 Eh       4.27 kcal/mol
Non-thermal (ZPE) correction              0.15075807 Eh      94.60 kcal/mol
-----------------------------------------------------------------------
Total correction                          0.15756723 Eh      98.87 kcal/mol

--------
ENTHALPY
--------

The enthalpy is H = U + kB*T
                kB is Boltzmann's constant
Total free energy                 ...   -325.82211400 Eh
Thermal Enthalpy correction       ...      0.00094421 Eh       0.59 kcal/mol
-----------------------------------------------------------------------
Total Enthalpy                    ...   -325.82116979 Eh

-------
ENTROPY
-------

The entropy contributions are T*S = T*(S(el)+S(vib)+S(rot)+S(trans)
     S(el)   - electronic entropy
     S(vib)  - vibrational entropy
     S(rot)  - rotational entropy
     S(trans)- translational entropy
The entropies will be listed as mutliplied by the temperature to get
units of energy

Electronic entropy                ...      0.00000000 Eh      0.00 kcal/mol
Vibrational entropy               ...      0.00685227 Eh      4.30 kcal/mol
Rotational entropy                ...      0.01219730 Eh      7.65 kcal/mol
Translational entropy             ...      0.01887324 Eh     11.84 kcal/mol
-----------------------------------------------------------------------
Final entropy term                ...      0.03792280 Eh     23.80 kcal/mol

CAUTION: The rotational entropy is not quite correctly treated here
         because it includes a symmetry number that is not yet correctly
         implemented in ORCA!
For a nonlinear molecule the correct rotational entropy is:
    S(rot) = R*(ln(qrot/sn)+1.5)
    R    = 8.31441 J/mol/K = 1.987191683e-3 kcal/mol/K
    qrot = 272938.2146226
    sn is the rotational symmetry number. We have assumed 3 here
       if it is different for your molecule then you should correct
       the printed rotational entropy by manually evaluating the equation
       as given above

For convenience we print out the resulting values for sn=1 - 12:
 sn= 1  qrot/sn=  272938.2146 T*S(rot)=     8.30 kcal/mol T*S(tot)=    24.45 kcal/mol
 sn= 2  qrot/sn=  136469.1073 T*S(rot)=     7.89 kcal/mol T*S(tot)=    24.04 kcal/mol
 sn= 3  qrot/sn=   90979.4049 T*S(rot)=     7.65 kcal/mol T*S(tot)=    23.80 kcal/mol
 sn= 4  qrot/sn=   68234.5537 T*S(rot)=     7.48 kcal/mol T*S(tot)=    23.63 kcal/mol
 sn= 5  qrot/sn=   54587.6429 T*S(rot)=     7.35 kcal/mol T*S(tot)=    23.49 kcal/mol
 sn= 6  qrot/sn=   45489.7024 T*S(rot)=     7.24 kcal/mol T*S(tot)=    23.39 kcal/mol
 sn= 7  qrot/sn=   38991.1735 T*S(rot)=     7.15 kcal/mol T*S(tot)=    23.29 kcal/mol
 sn= 8  qrot/sn=   34117.2768 T*S(rot)=     7.07 kcal/mol T*S(tot)=    23.22 kcal/mol
 sn= 9  qrot/sn=   30326.4683 T*S(rot)=     7.00 kcal/mol T*S(tot)=    23.15 kcal/mol
 sn=10  qrot/sn=   27293.8215 T*S(rot)=     6.94 kcal/mol T*S(tot)=    23.08 kcal/mol
 sn=11  qrot/sn=   24812.5650 T*S(rot)=     6.88 kcal/mol T*S(tot)=    23.03 kcal/mol
 sn=12  qrot/sn=   22744.8512 T*S(rot)=     6.83 kcal/mol T*S(tot)=    22.98 kcal/mol

-------------------
GIBBS FREE ENTHALPY
-------------------

The Gibbs free enthalpy is G = H - T*S

Total enthalpy                    ...   -325.82116979 Eh
Total entropy correction          ...     -0.03792280 Eh    -23.80 kcal/mol
-----------------------------------------------------------------------
Final Gibbs free enthalpy         ...   -325.85909259 Eh

For completeness - the Gibbs free enthalpy minus the electronic energy
G-E(el)                           ...      0.12058864 Eh     75.67 kcal/mol

                             ****ORCA TERMINATED NORMALLY****
TOTAL RUN TIME: 0 days 0 hours 35 minutes 30 seconds 215 msec
