                         Program Version 3.0.3 - RELEASE   -
|  1> ! NORI PBE0 def2-TZVP UseSym TightOPT Freq TightSCF Grid3 FinalGrid5 XYZFile
|  2> % pal
|  3>     nprocs 8
|  4> end
|  5> %method
|  6>     SymThresh 5.0e-2
|  7> end
|  8> % geom
|  9>     MaxIter 10
| 10> end
| 11> % maxcore 2000
| 12> % output
| 13>     printlevel mini
| 14>     print[ P_Basis ] 0
| 15>     print[ P_SCFInfo ] 1
| 16>     print[ P_SCFIterInfo ] 1
| 17>     print[ P_OrbEn ] 0
| 18>     print[ P_Cartesian ] 0
| 19> end
| 20> % elprop
| 21>     Dipole false
| 22> end
| 23> *xyz 1 1
| 24>  O        2.9766864044    -1.3390718442    -1.7907831321
| 25>  C        3.2098452417    -0.5275258749    -0.9268855502
| 26>  C        3.1315851503     0.8839877065    -1.0619320733
| 27>  C        3.0753460963     2.0817351123    -1.1445395580
| 28>  C        3.5970191820    -1.0533752215     0.4456267887
| 29>  C        2.6406952449    -1.9846959091     1.0854773958
| 30>  N        3.8146514926    -2.5080847776     0.3687424216
| 31>  H        3.0199512004     3.1458524225    -1.2378916462
| 32>  H        4.2946778942    -0.4970202133     1.0598795046
| 33>  H        1.7012698966    -2.1891332072     0.5863420758
| 34>  H        2.6683459073    -2.1155061469     2.1597970994
| 35>  H        4.5768062553    -2.9344638172     0.8855699144
| 36>  H        3.6408100340    -2.8533282293    -0.5840832405
| 37> *
| 38>
| 39>                          ****END OF INPUT****
 Total Charge           Charge          ....    1
 Multiplicity           Mult            ....    1
 Number of Electrons    NEL             ....   50
FINAL SINGLE POINT ENERGY      -323.493565884470
FINAL SINGLE POINT ENERGY      -323.493555039827
FINAL SINGLE POINT ENERGY      -323.493567653723

CARTESIAN COORDINATES (ANGSTROEM)
---------------------------------
  O      0.000814   -0.003921    1.520702
  C     -0.366063   -0.172234    0.382136
  C     -1.699303   -0.420998   -0.039179
  C     -2.816625   -0.633437   -0.427932
  C      0.681303   -0.078458   -0.715281
  C      1.453593    1.182398   -0.779337
  N      2.021158    0.001286   -0.108903
  H     -3.817307   -0.822064   -0.753975
  H      0.592761   -0.697283   -1.599688
  H      1.195121    1.985052   -0.099431
  H      1.941164    1.456989   -1.705734
  H      2.797981   -0.497209   -0.529789
  H      1.958761   -0.004614    0.917208

FINAL SINGLE POINT ENERGY      -323.493567804240
                    ***********************HURRAY********************
 Multiplicity           Mult            ....    1
 Number of Electrons    NEL             ....   50
 Basis Dimension        Dim             ....  253
FINAL SINGLE POINT ENERGY      -323.493567963227

VIBRATIONAL FREQUENCIES
-----------------------

   0:         0.00 cm**-1
   1:         0.00 cm**-1
   2:         0.00 cm**-1
   3:         0.00 cm**-1
   4:         0.00 cm**-1
   5:         0.00 cm**-1
   6:        83.34 cm**-1
   7:       143.75 cm**-1
   8:       215.35 cm**-1
   9:       290.17 cm**-1
  10:       309.90 cm**-1
  11:       478.13 cm**-1
  12:       606.66 cm**-1
  13:       732.05 cm**-1
  14:       738.97 cm**-1
  15:       775.86 cm**-1
  16:       799.66 cm**-1
  17:       866.63 cm**-1
  18:       895.27 cm**-1
  19:       913.54 cm**-1
  20:       950.03 cm**-1
  21:      1069.13 cm**-1
  22:      1102.46 cm**-1
  23:      1147.38 cm**-1
  24:      1158.40 cm**-1
  25:      1187.34 cm**-1
  26:      1252.04 cm**-1
  27:      1274.29 cm**-1
  28:      1396.43 cm**-1
  29:      1482.83 cm**-1
  30:      1573.66 cm**-1
  31:      1780.30 cm**-1
  32:      2228.10 cm**-1
  33:      3170.06 cm**-1
  34:      3222.45 cm**-1
  35:      3277.86 cm**-1
  36:      3356.26 cm**-1
  37:      3442.15 cm**-1
  38:      3580.97 cm**-1

IR SPECTRUM
-----------

 Mode    freq (cm**-1)   T**2         TX         TY         TZ
-------------------------------------------------------------------
   6:        83.34    6.113077  ( -0.242937   2.454335  -0.174056)
   7:       143.75   11.241032  ( -0.212134  -0.849041  -3.236535)
   8:       215.35    0.185320  (  0.143054  -0.402850   0.050672)
   9:       290.17   23.967111  (  4.104621   2.435484  -1.089777)
  10:       309.90   21.768382  (  4.521909  -1.030329  -0.509062)
  11:       478.13    7.640482  (  2.698967   0.273279  -0.530450)
  12:       606.66   18.566977  (  3.772773   0.123639  -2.077950)
  13:       732.05    5.896346  ( -0.557125  -2.335695   0.361230)
  14:       738.97   34.128576  ( -1.313978   0.361698   5.680776)
  15:       775.86    7.923990  (  1.764968   0.199234  -2.183846)
  16:       799.66   25.681369  (  0.703040  -4.984852   0.581685)
  17:       866.63    7.520761  (  1.450030  -1.856695   1.403873)
  18:       895.27   20.621065  ( -4.290075   1.397845  -0.512199)
  19:       913.54   10.245086  ( -2.454113  -1.319247   1.575437)
  20:       950.03   20.053664  ( -4.222618  -1.455119  -0.325257)
  21:      1069.13   78.718586  (  5.294996   6.742193   2.285701)
  22:      1102.46    8.188974  ( -2.022325  -1.991341   0.365700)
  23:      1147.38  142.039467  (-11.187258  -2.910653   2.900485)
  24:      1158.40   13.964344  (  3.723337  -0.231468  -0.218006)
  25:      1187.34   66.316990  ( -7.983825  -1.603133  -0.074141)
  26:      1252.04    4.754782  (  1.636054   1.313111   0.594851)
  27:      1274.29   12.364182  ( -1.075731  -1.331692   3.071414)
  28:      1396.43   43.122803  (  5.569776   2.675022  -2.223658)
  29:      1482.83   10.656217  ( -1.224032   3.025317  -0.073628)
  30:      1573.66  124.766250  ( -9.062173   2.666207  -5.961091)
  31:      1780.30  154.612448  ( -5.909672  -1.710464 -10.805672)
  32:      2228.10  245.375825  ( 14.835707   3.119091   3.943207)
  33:      3170.06    5.202421  ( -0.326780  -2.255638   0.087934)
  34:      3222.45    7.315713  ( -0.072901  -1.459434  -2.276060)
  35:      3277.86   12.305447  (  1.416309  -1.024865  -3.041245)
  36:      3356.26  124.613246  ( -0.258706  -3.046177  10.736253)
  37:      3442.15   79.219746  (  8.381903   1.595222   2.533520)
  38:      3580.97  197.025281  ( 11.536275  -4.918412  -6.304671)

--------------------------
THERMOCHEMISTRY AT 298.15K
--------------------------

Temperature         ... 298.15 K
Pressure            ... 1.00 atm
Total Mass          ... 96.11 AMU

Throughout the following assumptions are being made:
  (1) The electronic state is orbitally nondegenerate
  (2) There are no thermally accessible electronically excited states
  (3) Hindered rotations indicated by low frequency modes) are not
      treated as such but are treated as vibrations and this may
      case some error
  (4) All equations used are the standard statistical mechanics
      equations for an ideal gas
  (5) All vibrations are strinctly harmonic

------------
INNER ENERGY
------------

The inner energy is: U= E(el) + E(ZPE) + E(vib) + E(rot) + E(trans)
    E(el)   - is the total energy from the electronic structure calculation
              = E(kin-el) + E(nuc-el) + E(el-el) + E(nuc-nuc)
    E(ZPE)  - the the zero temperature vibrational energy from the frequency calculation
    E(vib)  - the the finite temperature correction to E(ZPE) due to population
              of excietd vibrational states
    E(rot)  - is the rotational thermal energy
    E(trans)- is the translational thermal energy

Summary of contributions to the inner energy U:
Electronic energy                ...   -323.49356796 Eh
Zero point energy                ...      0.10365977 Eh      65.05 kcal/mol
Thermal vibrational correction   ...      0.00392597 Eh       2.46 kcal/mol
Thermal rotational correction    ...      0.00141627 Eh       0.89 kcal/mol
Thermal translational correction ...      0.00141627 Eh       0.89 kcal/mol
-----------------------------------------------------------------------
Total thermal energy                   -323.38314967 Eh

Summary of corrections to the electronic energy:
(perhaps to be used in another calculation)
Total thermal correction                  0.00675852 Eh       4.24 kcal/mol
Non-thermal (ZPE) correction              0.10365977 Eh      65.05 kcal/mol
-----------------------------------------------------------------------
Total correction                          0.11041829 Eh      69.29 kcal/mol

--------
ENTHALPY
--------

The enthalpy is H = U + kB*T
                kB is Boltzmann's constant
Total free energy                 ...   -323.38314967 Eh
Thermal Enthalpy correction       ...      0.00094421 Eh       0.59 kcal/mol
-----------------------------------------------------------------------
Total Enthalpy                    ...   -323.38220546 Eh

-------
ENTROPY
-------

The entropy contributions are T*S = T*(S(el)+S(vib)+S(rot)+S(trans)
     S(el)   - electronic entropy
     S(vib)  - vibrational entropy
     S(rot)  - rotational entropy
     S(trans)- translational entropy
The entropies will be listed as mutliplied by the temperature to get
units of energy

Electronic entropy                ...      0.00000000 Eh      0.00 kcal/mol
Vibrational entropy               ...      0.00686689 Eh      4.31 kcal/mol
Rotational entropy                ...      0.01193553 Eh      7.49 kcal/mol
Translational entropy             ...      0.01881503 Eh     11.81 kcal/mol
-----------------------------------------------------------------------
Final entropy term                ...      0.03761745 Eh     23.61 kcal/mol

CAUTION: The rotational entropy is not quite correctly treated here
         because it includes a symmetry number that is not yet correctly
         implemented in ORCA!
For a nonlinear molecule the correct rotational entropy is:
    S(rot) = R*(ln(qrot/sn)+1.5)
    R    = 8.31441 J/mol/K = 1.987191683e-3 kcal/mol/K
    qrot = 206852.0264993
    sn is the rotational symmetry number. We have assumed 3 here
       if it is different for your molecule then you should correct
       the printed rotational entropy by manually evaluating the equation
       as given above

For convenience we print out the resulting values for sn=1 - 12:
 sn= 1  qrot/sn=  206852.0265 T*S(rot)=     8.14 kcal/mol T*S(tot)=    24.26 kcal/mol
 sn= 2  qrot/sn=  103426.0132 T*S(rot)=     7.73 kcal/mol T*S(tot)=    23.85 kcal/mol
 sn= 3  qrot/sn=   68950.6755 T*S(rot)=     7.49 kcal/mol T*S(tot)=    23.61 kcal/mol
 sn= 4  qrot/sn=   51713.0066 T*S(rot)=     7.32 kcal/mol T*S(tot)=    23.43 kcal/mol
 sn= 5  qrot/sn=   41370.4053 T*S(rot)=     7.19 kcal/mol T*S(tot)=    23.30 kcal/mol
 sn= 6  qrot/sn=   34475.3377 T*S(rot)=     7.08 kcal/mol T*S(tot)=    23.19 kcal/mol
 sn= 7  qrot/sn=   29550.2895 T*S(rot)=     6.99 kcal/mol T*S(tot)=    23.10 kcal/mol
 sn= 8  qrot/sn=   25856.5033 T*S(rot)=     6.91 kcal/mol T*S(tot)=    23.02 kcal/mol
 sn= 9  qrot/sn=   22983.5585 T*S(rot)=     6.84 kcal/mol T*S(tot)=    22.95 kcal/mol
 sn=10  qrot/sn=   20685.2026 T*S(rot)=     6.78 kcal/mol T*S(tot)=    22.89 kcal/mol
 sn=11  qrot/sn=   18804.7297 T*S(rot)=     6.72 kcal/mol T*S(tot)=    22.84 kcal/mol
 sn=12  qrot/sn=   17237.6689 T*S(rot)=     6.67 kcal/mol T*S(tot)=    22.78 kcal/mol

-------------------
GIBBS FREE ENTHALPY
-------------------

The Gibbs free enthalpy is G = H - T*S

Total enthalpy                    ...   -323.38220546 Eh
Total entropy correction          ...     -0.03761745 Eh    -23.61 kcal/mol
-----------------------------------------------------------------------
Final Gibbs free enthalpy         ...   -323.41982291 Eh

For completeness - the Gibbs free enthalpy minus the electronic energy
G-E(el)                           ...      0.07374505 Eh     46.28 kcal/mol

                             ****ORCA TERMINATED NORMALLY****
TOTAL RUN TIME: 0 days 0 hours 26 minutes 34 seconds 349 msec
