                         Program Version 3.0.3 - RELEASE   -
|  1> ! NORI PBE0 def2-TZVP UseSym TightOPT Freq TightSCF Grid3 FinalGrid5 XYZFile
|  2> % pal
|  3>     nprocs 8
|  4> end
|  5> %method
|  6>     SymThresh 5.0e-2
|  7> end
|  8> % geom
|  9>     MaxIter 10
| 10> end
| 11> % maxcore 2000
| 12> % output
| 13>     printlevel mini
| 14>     print[ P_Basis ] 0
| 15>     print[ P_SCFInfo ] 1
| 16>     print[ P_SCFIterInfo ] 1
| 17>     print[ P_OrbEn ] 0
| 18>     print[ P_Cartesian ] 0
| 19> end
| 20> % elprop
| 21>     Dipole false
| 22> end
| 23> *xyz 1 1
| 24>  O        1.2639663773     0.6181620987    -0.0021296750
| 25>  C        2.4229834264     0.3979024056    -0.2047966134
| 26>  C        2.9899376677    -0.9685088842    -0.0989044341
| 27>  C        4.2841253042    -1.2017073993    -0.2872738166
| 28>  C        4.9462914915    -2.5166343354    -0.1912462242
| 29>  C        5.5908691416    -2.9782074970     1.0550809720
| 30>  N        4.2901091181    -3.5589365551     0.6417613352
| 31>  H        3.1402792886     1.1963794090    -0.4808411194
| 32>  H        2.2614426979    -1.7441519810     0.1283212831
| 33>  H        4.9546442313    -0.3857637633    -0.5497691023
| 34>  H        5.3458556628    -2.9291935749    -1.1139733824
| 35>  H        5.5238529765    -2.3578842236     1.9399749278
| 36>  H        6.4221335462    -3.6698129442     1.0071171318
| 37>  H        4.2672684307    -4.5152152306     0.3032963895
| 38>  H        3.4678906391    -3.2833475245     1.1704023281
| 39> *
| 40>
| 41>                          ****END OF INPUT****
 Total Charge           Charge          ....    1
 Multiplicity           Mult            ....    1
 Number of Electrons    NEL             ....   52
FINAL SINGLE POINT ENERGY      -324.742426700857

CARTESIAN COORDINATES (ANGSTROEM)
---------------------------------
  O     -0.000426   -0.001043    3.186879
  C     -0.647145   -0.038044    2.180362
  C     -0.015441   -0.216448    0.850324
  C     -0.734034   -0.219026   -0.267037
  C     -0.201845   -0.373084   -1.634456
  C      0.125057    0.791725   -2.482088
  N      1.218551    0.000745   -1.867050
  H     -1.751075    0.059877    2.179336
  H      1.063609   -0.354649    0.876823
  H     -1.816281   -0.113908   -0.221659
  H     -0.471769   -1.284288   -2.162356
  H      0.025855    1.786393   -2.065708
  H      0.066536    0.706799   -3.559552
  H      1.790062   -0.589040   -2.463068
  H      1.721533    0.424297   -1.092969

FINAL SINGLE POINT ENERGY      -324.742427196961
                    ***********************HURRAY********************
 Multiplicity           Mult            ....    1
 Number of Electrons    NEL             ....   52
 Basis Dimension        Dim             ....  265
FINAL SINGLE POINT ENERGY      -324.742427421254

VIBRATIONAL FREQUENCIES
-----------------------

   0:         0.00 cm**-1
   1:         0.00 cm**-1
   2:         0.00 cm**-1
   3:         0.00 cm**-1
   4:         0.00 cm**-1
   5:         0.00 cm**-1
   6:        69.01 cm**-1
   7:       119.24 cm**-1
   8:       141.21 cm**-1
   9:       192.85 cm**-1
  10:       306.66 cm**-1
  11:       410.53 cm**-1
  12:       510.88 cm**-1
  13:       584.20 cm**-1
  14:       787.69 cm**-1
  15:       819.63 cm**-1
  16:       859.87 cm**-1
  17:       888.98 cm**-1
  18:       942.14 cm**-1
  19:       992.80 cm**-1
  20:      1009.38 cm**-1
  21:      1030.28 cm**-1
  22:      1041.30 cm**-1
  23:      1114.33 cm**-1
  24:      1140.79 cm**-1
  25:      1164.73 cm**-1
  26:      1179.48 cm**-1
  27:      1244.43 cm**-1
  28:      1266.01 cm**-1
  29:      1271.83 cm**-1
  30:      1316.10 cm**-1
  31:      1405.95 cm**-1
  32:      1420.56 cm**-1
  33:      1491.15 cm**-1
  34:      1623.63 cm**-1
  35:      1729.13 cm**-1
  36:      1830.81 cm**-1
  37:      2948.54 cm**-1
  38:      3164.06 cm**-1
  39:      3166.48 cm**-1
  40:      3169.96 cm**-1
  41:      3171.52 cm**-1
  42:      3277.68 cm**-1
  43:      3502.33 cm**-1
  44:      3605.49 cm**-1

IR SPECTRUM
-----------

 Mode    freq (cm**-1)   T**2         TX         TY         TZ
-------------------------------------------------------------------
   6:        69.01    5.618998  (  0.577626   2.263755  -0.400949)
   7:       119.24    5.997093  (  0.745400  -0.389361  -2.299972)
   8:       141.21    9.145558  (  1.659017  -0.239975  -2.517068)
   9:       192.85    7.279842  (  0.084386   2.691715   0.165496)
  10:       306.66    2.377394  ( -0.581054   1.149840  -0.847135)
  11:       410.53    3.127892  (  0.685509   1.464652  -0.716074)
  12:       510.88    0.676969  (  0.035660   0.796375  -0.203677)
  13:       584.20   18.489240  ( -2.111362  -0.014880   3.745820)
  14:       787.69    2.027359  ( -0.516732  -0.485105  -1.234917)
  15:       819.63    3.275368  (  0.482216  -1.335794   1.121825)
  16:       859.87   15.125126  ( -3.761321   0.390662  -0.908283)
  17:       888.98    9.166943  ( -1.918155   0.763947   2.214499)
  18:       942.14   17.150188  ( -3.841754   0.583869   1.431857)
  19:       992.80    1.372914  ( -0.542897   0.758701  -0.708906)
  20:      1009.38   62.381985  ( -1.686698  -7.621064   1.206820)
  21:      1030.28    0.834362  (  0.368253   0.709956  -0.441264)
  22:      1041.30   87.505657  (  3.266477   7.040113  -5.222317)
  23:      1114.33   39.098165  (  1.198634   0.461414  -6.119521)
  24:      1140.79   50.066379  (  2.754852  -0.613903  -6.488474)
  25:      1164.73    7.415457  ( -2.068087   0.364394   1.733693)
  26:      1179.48    1.474286  ( -0.757069  -0.877910  -0.361118)
  27:      1244.43    1.028143  ( -1.010918   0.061189  -0.049440)
  28:      1266.01   14.747952  ( -2.221723  -0.201315  -3.125919)
  29:      1271.83    1.019946  ( -0.798623  -0.377629   0.489432)
  30:      1316.10    5.978563  (  2.151572   0.478893  -1.058284)
  31:      1405.95    0.166915  ( -0.224748  -0.163439   0.299485)
  32:      1420.56   13.785859  (  0.477021  -1.146756  -3.499037)
  33:      1491.15   14.039563  ( -0.516345   2.608053  -2.640268)
  34:      1623.63   64.574450  (  8.027533  -0.090151  -0.353603)
  35:      1729.13    4.296101  ( -0.487417  -0.178992   2.006611)
  36:      1830.81  188.162626  ( -4.574902  -0.394325 -12.925843)
  37:      2948.54   46.647377  (  6.707185  -0.497865  -1.188768)
  38:      3164.06    4.930740  (  1.540695  -0.637565  -1.466461)
  39:      3166.48    1.730894  ( -0.013416   1.183218  -0.575073)
  40:      3169.96    5.388808  (  1.497704   1.738824  -0.349545)
  41:      3171.52    4.073147  (  0.777590  -1.267668   1.364376)
  42:      3277.68    8.690593  (  0.045131  -1.926738  -2.230748)
  43:      3502.33   90.021161  (  9.361573  -1.513623   0.301762)
  44:      3605.49  149.546375  ( -2.525892   6.803663   9.842582)

--------------------------
THERMOCHEMISTRY AT 298.15K
--------------------------

Temperature         ... 298.15 K
Pressure            ... 1.00 atm
Total Mass          ... 98.12 AMU

Throughout the following assumptions are being made:
  (1) The electronic state is orbitally nondegenerate
  (2) There are no thermally accessible electronically excited states
  (3) Hindered rotations indicated by low frequency modes) are not
      treated as such but are treated as vibrations and this may
      case some error
  (4) All equations used are the standard statistical mechanics
      equations for an ideal gas
  (5) All vibrations are strinctly harmonic

------------
INNER ENERGY
------------

The inner energy is: U= E(el) + E(ZPE) + E(vib) + E(rot) + E(trans)
    E(el)   - is the total energy from the electronic structure calculation
              = E(kin-el) + E(nuc-el) + E(el-el) + E(nuc-nuc)
    E(ZPE)  - the the zero temperature vibrational energy from the frequency calculation
    E(vib)  - the the finite temperature correction to E(ZPE) due to population
              of excietd vibrational states
    E(rot)  - is the rotational thermal energy
    E(trans)- is the translational thermal energy

Summary of contributions to the inner energy U:
Electronic energy                ...   -324.74242742 Eh
Zero point energy                ...      0.12737611 Eh      79.93 kcal/mol
Thermal vibrational correction   ...      0.00443629 Eh       2.78 kcal/mol
Thermal rotational correction    ...      0.00141627 Eh       0.89 kcal/mol
Thermal translational correction ...      0.00141627 Eh       0.89 kcal/mol
-----------------------------------------------------------------------
Total thermal energy                   -324.60778248 Eh

Summary of corrections to the electronic energy:
(perhaps to be used in another calculation)
Total thermal correction                  0.00726884 Eh       4.56 kcal/mol
Non-thermal (ZPE) correction              0.12737611 Eh      79.93 kcal/mol
-----------------------------------------------------------------------
Total correction                          0.13464494 Eh      84.49 kcal/mol

--------
ENTHALPY
--------

The enthalpy is H = U + kB*T
                kB is Boltzmann's constant
Total free energy                 ...   -324.60778248 Eh
Thermal Enthalpy correction       ...      0.00094421 Eh       0.59 kcal/mol
-----------------------------------------------------------------------
Total Enthalpy                    ...   -324.60683827 Eh

-------
ENTROPY
-------

The entropy contributions are T*S = T*(S(el)+S(vib)+S(rot)+S(trans)
     S(el)   - electronic entropy
     S(vib)  - vibrational entropy
     S(rot)  - rotational entropy
     S(trans)- translational entropy
The entropies will be listed as mutliplied by the temperature to get
units of energy

Electronic entropy                ...      0.00000000 Eh      0.00 kcal/mol
Vibrational entropy               ...      0.00820491 Eh      5.15 kcal/mol
Rotational entropy                ...      0.01213781 Eh      7.62 kcal/mol
Translational entropy             ...      0.01884443 Eh     11.83 kcal/mol
-----------------------------------------------------------------------
Final entropy term                ...      0.03918715 Eh     24.59 kcal/mol

CAUTION: The rotational entropy is not quite correctly treated here
         because it includes a symmetry number that is not yet correctly
         implemented in ORCA!
For a nonlinear molecule the correct rotational entropy is:
    S(rot) = R*(ln(qrot/sn)+1.5)
    R    = 8.31441 J/mol/K = 1.987191683e-3 kcal/mol/K
    qrot = 256272.2071379
    sn is the rotational symmetry number. We have assumed 3 here
       if it is different for your molecule then you should correct
       the printed rotational entropy by manually evaluating the equation
       as given above

For convenience we print out the resulting values for sn=1 - 12:
 sn= 1  qrot/sn=  256272.2071 T*S(rot)=     8.27 kcal/mol T*S(tot)=    25.24 kcal/mol
 sn= 2  qrot/sn=  128136.1036 T*S(rot)=     7.86 kcal/mol T*S(tot)=    24.83 kcal/mol
 sn= 3  qrot/sn=   85424.0690 T*S(rot)=     7.62 kcal/mol T*S(tot)=    24.59 kcal/mol
 sn= 4  qrot/sn=   64068.0518 T*S(rot)=     7.45 kcal/mol T*S(tot)=    24.42 kcal/mol
 sn= 5  qrot/sn=   51254.4414 T*S(rot)=     7.31 kcal/mol T*S(tot)=    24.29 kcal/mol
 sn= 6  qrot/sn=   42712.0345 T*S(rot)=     7.21 kcal/mol T*S(tot)=    24.18 kcal/mol
 sn= 7  qrot/sn=   36610.3153 T*S(rot)=     7.11 kcal/mol T*S(tot)=    24.09 kcal/mol
 sn= 8  qrot/sn=   32034.0259 T*S(rot)=     7.04 kcal/mol T*S(tot)=    24.01 kcal/mol
 sn= 9  qrot/sn=   28474.6897 T*S(rot)=     6.97 kcal/mol T*S(tot)=    23.94 kcal/mol
 sn=10  qrot/sn=   25627.2207 T*S(rot)=     6.90 kcal/mol T*S(tot)=    23.88 kcal/mol
 sn=11  qrot/sn=   23297.4734 T*S(rot)=     6.85 kcal/mol T*S(tot)=    23.82 kcal/mol
 sn=12  qrot/sn=   21356.0173 T*S(rot)=     6.80 kcal/mol T*S(tot)=    23.77 kcal/mol

-------------------
GIBBS FREE ENTHALPY
-------------------

The Gibbs free enthalpy is G = H - T*S

Total enthalpy                    ...   -324.60683827 Eh
Total entropy correction          ...     -0.03918715 Eh    -24.59 kcal/mol
-----------------------------------------------------------------------
Final Gibbs free enthalpy         ...   -324.64602543 Eh

For completeness - the Gibbs free enthalpy minus the electronic energy
G-E(el)                           ...      0.09640200 Eh     60.49 kcal/mol

                             ****ORCA TERMINATED NORMALLY****
TOTAL RUN TIME: 0 days 0 hours 26 minutes 44 seconds 130 msec
