                         Program Version 3.0.3 - RELEASE   -
|  1> ! NORI PBE0 def2-TZVP UseSym TightOPT Freq TightSCF Grid3 FinalGrid5 XYZFile
|  2> % pal
|  3>     nprocs 8
|  4> end
|  5> %method
|  6>     SymThresh 5.0e-2
|  7> end
|  8> % geom
|  9>     MaxIter 10
| 10> end
| 11> % maxcore 2000
| 12> % output
| 13>     printlevel mini
| 14>     print[ P_Basis ] 0
| 15>     print[ P_SCFInfo ] 1
| 16>     print[ P_SCFIterInfo ] 1
| 17>     print[ P_OrbEn ] 0
| 18>     print[ P_Cartesian ] 0
| 19> end
| 20> % elprop
| 21>     Dipole false
| 22> end
| 23> *xyz 1 1
| 24>  O        0.9294553844    -0.3629046850    -0.6915841527
| 25>  C        1.9698580897    -0.3332318419    -0.1001485163
| 26>  C        2.9265317256    -1.4301575266    -0.2248196421
| 27>  C        3.6888302924    -2.3525577074    -0.3543801544
| 28>  C        4.5615506005    -3.4636268634    -0.5251158175
| 29>  C        4.1681110130    -4.8196036645    -0.0799915937
| 30>  N        4.1101915658    -4.5038149434    -1.5216979869
| 31>  H        2.2760513455     0.4949702807     0.5597802148
| 32>  H        5.6245491161    -3.2579866405    -0.6101788198
| 33>  H        4.9403224853    -5.5290131297     0.1890201744
| 34>  H        3.1983248888    -4.9538375641     0.3809871524
| 35>  H        4.8032117364    -4.9111192192    -2.1422676647
| 36>  H        3.1967117564    -4.3585564951    -1.9432631935
| 37> *
| 38>
| 39>                          ****END OF INPUT****
 Total Charge           Charge          ....    1
 Multiplicity           Mult            ....    1
 Number of Electrons    NEL             ....   50
FINAL SINGLE POINT ENERGY      -323.481395554211
FINAL SINGLE POINT ENERGY      -323.481390105538
FINAL SINGLE POINT ENERGY      -323.481395799977

CARTESIAN COORDINATES (ANGSTROEM)
---------------------------------
  O      0.000144   -0.001624    3.102094
  C     -0.884070   -0.270039    2.341078
  C     -0.646109   -0.279918    0.899735
  C     -0.409910   -0.278481   -0.280429
  C     -0.096697   -0.259044   -1.668535
  C      0.310356    0.994506   -2.342295
  N      1.350857    0.000070   -2.009899
  H     -1.909258   -0.522913    2.657475
  H     -0.524195   -1.040295   -2.289870
  H      0.124029    1.105173   -3.402761
  H      0.367307    1.903680   -1.758124
  H      1.774136   -0.537615   -2.760204
  H      1.970388    0.198940   -1.229004

FINAL SINGLE POINT ENERGY      -323.481395832669
                    ***********************HURRAY********************
 Multiplicity           Mult            ....    1
 Number of Electrons    NEL             ....   50
 Basis Dimension        Dim             ....  253
FINAL SINGLE POINT ENERGY      -323.481395862087

VIBRATIONAL FREQUENCIES
-----------------------

   0:         0.00 cm**-1
   1:         0.00 cm**-1
   2:         0.00 cm**-1
   3:         0.00 cm**-1
   4:         0.00 cm**-1
   5:         0.00 cm**-1
   6:        54.97 cm**-1
   7:        80.24 cm**-1
   8:       133.39 cm**-1
   9:       232.53 cm**-1
  10:       286.04 cm**-1
  11:       439.55 cm**-1
  12:       518.55 cm**-1
  13:       603.67 cm**-1
  14:       749.29 cm**-1
  15:       799.89 cm**-1
  16:       874.16 cm**-1
  17:       888.22 cm**-1
  18:       932.51 cm**-1
  19:      1007.91 cm**-1
  20:      1034.83 cm**-1
  21:      1043.70 cm**-1
  22:      1145.66 cm**-1
  23:      1173.19 cm**-1
  24:      1197.98 cm**-1
  25:      1249.46 cm**-1
  26:      1263.92 cm**-1
  27:      1400.64 cm**-1
  28:      1418.30 cm**-1
  29:      1487.91 cm**-1
  30:      1624.20 cm**-1
  31:      1800.39 cm**-1
  32:      2348.10 cm**-1
  33:      3015.42 cm**-1
  34:      3176.23 cm**-1
  35:      3184.34 cm**-1
  36:      3283.51 cm**-1
  37:      3492.90 cm**-1
  38:      3601.52 cm**-1

IR SPECTRUM
-----------

 Mode    freq (cm**-1)   T**2         TX         TY         TZ
-------------------------------------------------------------------
   6:        54.97    8.778113  ( -0.462156   2.867636  -0.584114)
   7:        80.24   15.416185  ( -0.123837  -0.985789  -3.798562)
   8:       133.39   13.153367  ( -1.016022   3.417725  -0.663493)
   9:       232.53    3.254920  (  1.169181   0.283294  -1.344500)
  10:       286.04    1.917094  (  0.185584  -1.353165  -0.227149)
  11:       439.55    9.702622  ( -2.721784  -1.395830   0.588364)
  12:       518.55    2.840927  ( -1.037200   1.292233   0.308669)
  13:       603.67    0.904385  (  0.586947   0.685105  -0.300847)
  14:       749.29   49.491531  ( -4.074732  -0.403295   5.720616)
  15:       799.89   10.077764  (  1.771833  -0.864665   2.488117)
  16:       874.16    3.876947  ( -1.648228   0.640513   0.866046)
  17:       888.22   36.697351  (  3.514273  -0.859644  -4.858832)
  18:       932.51   46.575380  ( -5.311699  -1.138525   4.130980)
  19:      1007.91    0.677877  (  0.008577  -0.780124   0.263079)
  20:      1034.83   70.106726  ( -2.209669  -7.785374   2.147565)
  21:      1043.70   39.972881  (  1.643215   2.789217  -5.430745)
  22:      1145.66   12.486679  ( -0.260064   0.449363  -3.495299)
  23:      1173.19   19.562863  (  1.471381   1.106231  -4.021710)
  24:      1197.98   41.252048  (  0.154663  -0.062568   6.420608)
  25:      1249.46    8.477214  ( -1.140807   0.002779   2.678762)
  26:      1263.92    5.629221  (  1.902535   0.076647   1.415523)
  27:      1400.64   22.192255  ( -3.119037  -0.746256   3.450647)
  28:      1418.30   70.893930  (  2.232632  -0.816971  -8.077242)
  29:      1487.91   18.109778  ( -0.132994  -2.988493   3.026714)
  30:      1624.20   69.683472  ( -8.097599   1.727143   1.062705)
  31:      1800.39  139.986832  (  5.481529   1.649048  10.354724)
  32:      2348.10    0.605606  (  0.060271  -0.313766  -0.709595)
  33:      3015.42   22.249836  (  4.158987   1.079734  -1.945980)
  34:      3176.23    8.573692  ( -0.065851   2.512972  -1.501441)
  35:      3184.34    8.392303  ( -1.899812  -2.176729  -0.211817)
  36:      3283.51   11.823810  (  0.474278   1.827937   2.873589)
  37:      3492.90  131.990488  (-10.961975   2.661326   2.177827)
  38:      3601.52  147.119014  ( -0.806101  -5.239782 -10.909349)

--------------------------
THERMOCHEMISTRY AT 298.15K
--------------------------

Temperature         ... 298.15 K
Pressure            ... 1.00 atm
Total Mass          ... 96.11 AMU

Throughout the following assumptions are being made:
  (1) The electronic state is orbitally nondegenerate
  (2) There are no thermally accessible electronically excited states
  (3) Hindered rotations indicated by low frequency modes) are not
      treated as such but are treated as vibrations and this may
      case some error
  (4) All equations used are the standard statistical mechanics
      equations for an ideal gas
  (5) All vibrations are strinctly harmonic

------------
INNER ENERGY
------------

The inner energy is: U= E(el) + E(ZPE) + E(vib) + E(rot) + E(trans)
    E(el)   - is the total energy from the electronic structure calculation
              = E(kin-el) + E(nuc-el) + E(el-el) + E(nuc-nuc)
    E(ZPE)  - the the zero temperature vibrational energy from the frequency calculation
    E(vib)  - the the finite temperature correction to E(ZPE) due to population
              of excietd vibrational states
    E(rot)  - is the rotational thermal energy
    E(trans)- is the translational thermal energy

Summary of contributions to the inner energy U:
Electronic energy                ...   -323.48139586 Eh
Zero point energy                ...      0.10375479 Eh      65.11 kcal/mol
Thermal vibrational correction   ...      0.00440393 Eh       2.76 kcal/mol
Thermal rotational correction    ...      0.00141627 Eh       0.89 kcal/mol
Thermal translational correction ...      0.00141627 Eh       0.89 kcal/mol
-----------------------------------------------------------------------
Total thermal energy                   -323.37040460 Eh

Summary of corrections to the electronic energy:
(perhaps to be used in another calculation)
Total thermal correction                  0.00723647 Eh       4.54 kcal/mol
Non-thermal (ZPE) correction              0.10375479 Eh      65.11 kcal/mol
-----------------------------------------------------------------------
Total correction                          0.11099127 Eh      69.65 kcal/mol

--------
ENTHALPY
--------

The enthalpy is H = U + kB*T
                kB is Boltzmann's constant
Total free energy                 ...   -323.37040460 Eh
Thermal Enthalpy correction       ...      0.00094421 Eh       0.59 kcal/mol
-----------------------------------------------------------------------
Total Enthalpy                    ...   -323.36946039 Eh

-------
ENTROPY
-------

The entropy contributions are T*S = T*(S(el)+S(vib)+S(rot)+S(trans)
     S(el)   - electronic entropy
     S(vib)  - vibrational entropy
     S(rot)  - rotational entropy
     S(trans)- translational entropy
The entropies will be listed as mutliplied by the temperature to get
units of energy

Electronic entropy                ...      0.00000000 Eh      0.00 kcal/mol
Vibrational entropy               ...      0.00857611 Eh      5.38 kcal/mol
Rotational entropy                ...      0.01216202 Eh      7.63 kcal/mol
Translational entropy             ...      0.01881503 Eh     11.81 kcal/mol
-----------------------------------------------------------------------
Final entropy term                ...      0.03955316 Eh     24.82 kcal/mol

CAUTION: The rotational entropy is not quite correctly treated here
         because it includes a symmetry number that is not yet correctly
         implemented in ORCA!
For a nonlinear molecule the correct rotational entropy is:
    S(rot) = R*(ln(qrot/sn)+1.5)
    R    = 8.31441 J/mol/K = 1.987191683e-3 kcal/mol/K
    qrot = 262929.5343360
    sn is the rotational symmetry number. We have assumed 3 here
       if it is different for your molecule then you should correct
       the printed rotational entropy by manually evaluating the equation
       as given above

For convenience we print out the resulting values for sn=1 - 12:
 sn= 1  qrot/sn=  262929.5343 T*S(rot)=     8.28 kcal/mol T*S(tot)=    25.47 kcal/mol
 sn= 2  qrot/sn=  131464.7672 T*S(rot)=     7.87 kcal/mol T*S(tot)=    25.06 kcal/mol
 sn= 3  qrot/sn=   87643.1781 T*S(rot)=     7.63 kcal/mol T*S(tot)=    24.82 kcal/mol
 sn= 4  qrot/sn=   65732.3836 T*S(rot)=     7.46 kcal/mol T*S(tot)=    24.65 kcal/mol
 sn= 5  qrot/sn=   52585.9069 T*S(rot)=     7.33 kcal/mol T*S(tot)=    24.52 kcal/mol
 sn= 6  qrot/sn=   43821.5891 T*S(rot)=     7.22 kcal/mol T*S(tot)=    24.41 kcal/mol
 sn= 7  qrot/sn=   37561.3620 T*S(rot)=     7.13 kcal/mol T*S(tot)=    24.32 kcal/mol
 sn= 8  qrot/sn=   32866.1918 T*S(rot)=     7.05 kcal/mol T*S(tot)=    24.24 kcal/mol
 sn= 9  qrot/sn=   29214.3927 T*S(rot)=     6.98 kcal/mol T*S(tot)=    24.17 kcal/mol
 sn=10  qrot/sn=   26292.9534 T*S(rot)=     6.92 kcal/mol T*S(tot)=    24.11 kcal/mol
 sn=11  qrot/sn=   23902.6849 T*S(rot)=     6.86 kcal/mol T*S(tot)=    24.05 kcal/mol
 sn=12  qrot/sn=   21910.7945 T*S(rot)=     6.81 kcal/mol T*S(tot)=    24.00 kcal/mol

-------------------
GIBBS FREE ENTHALPY
-------------------

The Gibbs free enthalpy is G = H - T*S

Total enthalpy                    ...   -323.36946039 Eh
Total entropy correction          ...     -0.03955316 Eh    -24.82 kcal/mol
-----------------------------------------------------------------------
Final Gibbs free enthalpy         ...   -323.40901355 Eh

For completeness - the Gibbs free enthalpy minus the electronic energy
G-E(el)                           ...      0.07238231 Eh     45.42 kcal/mol

                             ****ORCA TERMINATED NORMALLY****
TOTAL RUN TIME: 0 days 0 hours 22 minutes 28 seconds 57 msec
