                         Program Version 3.0.3 - RELEASE   -
|  1> ! NORI PBE0 def2-TZVP UseSym TightOPT Freq TightSCF Grid3 FinalGrid5 XYZFile
|  2> % pal
|  3>     nprocs 8
|  4> end
|  5> %method
|  6>     SymThresh 5.0e-2
|  7> end
|  8> % geom
|  9>     MaxIter 10
| 10> end
| 11> % maxcore 2000
| 12> % output
| 13>     printlevel mini
| 14>     print[ P_Basis ] 0
| 15>     print[ P_SCFInfo ] 1
| 16>     print[ P_SCFIterInfo ] 1
| 17>     print[ P_OrbEn ] 0
| 18>     print[ P_Cartesian ] 0
| 19> end
| 20> % elprop
| 21>     Dipole false
| 22> end
| 23> *xyz 1 1
| 24>  O        1.1650342645     0.5128810116    -0.8739252306
| 25>  C        2.4279496748     0.0564525118    -0.4241539756
| 26>  C        2.7438514545    -1.3381766679    -0.8609913702
| 27>  C        3.0430653547    -2.3078754948    -0.0089248571
| 28>  C        3.4180786399     1.0349113180    -1.0169347375
| 29>  C        3.2430647207     1.5590007707    -2.3789240631
| 30>  N        2.8706433197     2.4035501926    -1.2206917696
| 31>  H        0.4825128170    -0.1198010206    -0.6290240842
| 32>  H        2.4969226561     0.1234648481     0.6695530880
| 33>  H        2.6972428431    -1.5282464172    -1.9307283070
| 34>  H        3.0831790482    -2.1354935928     1.0626214910
| 35>  H        3.2594319050    -3.3123927742    -0.3513997725
| 36>  H        4.4178606172     1.0235211822    -0.6001470110
| 37>  H        4.1058989212     1.9132806514    -2.9271557343
| 38>  H        2.3879469986     1.2372284375    -2.9584255782
| 39>  H        1.8704053025     2.4704008585    -1.0329825932
| 40>  H        3.4308514622     3.2162641851    -0.9930354946
| 41> *
| 42>
| 43>                          ****END OF INPUT****
 Total Charge           Charge          ....    1
 Multiplicity           Mult            ....    1
 Number of Electrons    NEL             ....   54
FINAL SINGLE POINT ENERGY      -325.971333076402

CARTESIAN COORDINATES (ANGSTROEM)
---------------------------------
  O     -0.000328   -0.001003    1.505321
  C     -0.359157   -0.493671    0.226995
  C     -1.645593    0.070177   -0.285287
  C     -2.670264   -0.688890   -0.645314
  C      0.790594   -0.092241   -0.670873
  C      1.450334    1.212739   -0.520552
  N      2.101682    0.000522    0.027143
  H     -0.731821   -0.120436    2.119067
  H     -0.416356   -1.589880    0.236659
  H     -1.709657    1.154788   -0.331233
  H     -2.624857   -1.772386   -0.594304
  H     -3.595360   -0.254284   -1.004058
  H      0.844546   -0.582069   -1.635486
  H      1.964563    1.649022   -1.366608
  H      1.104222    1.889541    0.249279
  H      2.029859   -0.114429    1.038103
  H      2.940493   -0.359355   -0.412673

FINAL SINGLE POINT ENERGY      -325.971333547829
                    ***********************HURRAY********************
 Multiplicity           Mult            ....    1
 Number of Electrons    NEL             ....   54
 Basis Dimension        Dim             ....  277
FINAL SINGLE POINT ENERGY      -325.971333659732

VIBRATIONAL FREQUENCIES
-----------------------

   0:         0.00 cm**-1
   1:         0.00 cm**-1
   2:         0.00 cm**-1
   3:         0.00 cm**-1
   4:         0.00 cm**-1
   5:         0.00 cm**-1
   6:        91.17 cm**-1
   7:        98.44 cm**-1
   8:       223.23 cm**-1
   9:       283.95 cm**-1
  10:       300.55 cm**-1
  11:       322.05 cm**-1
  12:       395.96 cm**-1
  13:       455.15 cm**-1
  14:       643.73 cm**-1
  15:       681.33 cm**-1
  16:       810.69 cm**-1
  17:       846.42 cm**-1
  18:       884.39 cm**-1
  19:       903.34 cm**-1
  20:       942.54 cm**-1
  21:       995.97 cm**-1
  22:      1016.82 cm**-1
  23:      1027.07 cm**-1
  24:      1037.31 cm**-1
  25:      1068.13 cm**-1
  26:      1156.86 cm**-1
  27:      1164.04 cm**-1
  28:      1169.95 cm**-1
  29:      1184.64 cm**-1
  30:      1222.20 cm**-1
  31:      1259.15 cm**-1
  32:      1286.95 cm**-1
  33:      1312.43 cm**-1
  34:      1341.38 cm**-1
  35:      1385.28 cm**-1
  36:      1432.32 cm**-1
  37:      1460.53 cm**-1
  38:      1482.49 cm**-1
  39:      1592.58 cm**-1
  40:      1721.04 cm**-1
  41:      3037.84 cm**-1
  42:      3159.70 cm**-1
  43:      3169.93 cm**-1
  44:      3178.84 cm**-1
  45:      3218.69 cm**-1
  46:      3255.57 cm**-1
  47:      3283.87 cm**-1
  48:      3458.71 cm**-1
  49:      3604.61 cm**-1
  50:      3855.36 cm**-1

IR SPECTRUM
-----------

 Mode    freq (cm**-1)   T**2         TX         TY         TZ
-------------------------------------------------------------------
   6:        91.17    0.377858  (  0.172940   0.190822   0.558155)
   7:        98.44    6.426231  (  1.047884  -2.265876  -0.440428)
   8:       223.23    1.381334  ( -0.442796  -0.135466   1.080238)
   9:       283.95   26.884985  ( -0.690286  -3.361220   3.887248)
  10:       300.55  101.967078  ( -4.367715   8.621757  -2.924970)
  11:       322.05   14.086322  (  3.628340  -0.939004  -0.199351)
  12:       395.96    3.524675  ( -1.484643   1.120570   0.254623)
  13:       455.15    1.866055  (  0.185359   1.146274   0.719550)
  14:       643.73   12.528283  (  0.551350   0.520505   3.457365)
  15:       681.33   11.855165  (  2.767226  -0.161978  -2.042398)
  16:       810.69    9.677371  (  2.017622  -0.592532  -2.292483)
  17:       846.42   24.954382  ( -3.345667   1.537905  -3.375759)
  18:       884.39    8.235454  (  1.916974  -0.954137   1.910573)
  19:       903.34   17.522248  ( -3.777488  -1.047382   1.468272)
  20:       942.54    7.268550  (  0.929862   1.074575   2.291112)
  21:       995.97   44.612408  ( -3.661504   2.141829   5.159299)
  22:      1016.82   57.515334  ( -1.254986   0.831514   7.432962)
  23:      1027.07    8.149566  ( -1.183160  -1.452159  -2.154282)
  24:      1037.31   83.692095  ( -4.654802  -6.476048  -4.481709)
  25:      1068.13   41.925076  (  2.523183   4.017451  -4.406667)
  26:      1156.86    6.108298  ( -2.165225  -1.033391  -0.593468)
  27:      1164.04   14.201534  (  2.170130   1.752177   2.534156)
  28:      1169.95   17.420093  ( -2.417854  -1.895614  -2.825017)
  29:      1184.64    2.304958  ( -0.046050  -0.553785   1.412855)
  30:      1222.20   65.181055  ( -4.407544  -1.561313  -6.581558)
  31:      1259.15    7.230103  (  0.802337   0.467694   2.523415)
  32:      1286.95   14.633789  ( -3.133244  -1.868630  -1.150998)
  33:      1312.43    2.739058  (  0.709246   1.438556   0.408147)
  34:      1341.38    3.437617  ( -0.409783   0.516990  -1.732748)
  35:      1385.28    5.692936  ( -2.079358  -1.071666  -0.469827)
  36:      1432.32    8.840582  ( -1.218304  -2.074589  -1.747111)
  37:      1460.53   28.163044  (  3.798252   3.079673   2.062024)
  38:      1482.49   12.283642  (  0.543043  -3.234325   1.236078)
  39:      1592.58   91.642829  ( -8.635828   2.046657  -3.588384)
  40:      1721.04    1.356106  ( -0.994711   0.097823  -0.597568)
  41:      3037.84   12.733406  ( -0.189159   3.307275   1.326483)
  42:      3159.70    1.793618  ( -0.307403   1.297883  -0.120915)
  43:      3169.93    0.743841  (  0.203581   0.827161   0.134908)
  44:      3178.84    3.072658  ( -0.066063  -1.727472  -0.290057)
  45:      3218.69    2.445456  (  0.067543   0.551236   1.461860)
  46:      3255.57    0.258973  (  0.202224   0.463308   0.058509)
  47:      3283.87    8.462172  (  1.185943  -0.644700  -2.576834)
  48:      3458.71  109.896966  ( -3.799371   3.601371  -9.082503)
  49:      3604.61  170.254868  ( 10.076943  -2.534478  -7.892181)
  50:      3855.36  112.913881  ( -5.777868  -0.207276   8.915557)

--------------------------
THERMOCHEMISTRY AT 298.15K
--------------------------

Temperature         ... 298.15 K
Pressure            ... 1.00 atm
Total Mass          ... 100.14 AMU

Throughout the following assumptions are being made:
  (1) The electronic state is orbitally nondegenerate
  (2) There are no thermally accessible electronically excited states
  (3) Hindered rotations indicated by low frequency modes) are not
      treated as such but are treated as vibrations and this may
      case some error
  (4) All equations used are the standard statistical mechanics
      equations for an ideal gas
  (5) All vibrations are strinctly harmonic

------------
INNER ENERGY
------------

The inner energy is: U= E(el) + E(ZPE) + E(vib) + E(rot) + E(trans)
    E(el)   - is the total energy from the electronic structure calculation
              = E(kin-el) + E(nuc-el) + E(el-el) + E(nuc-nuc)
    E(ZPE)  - the the zero temperature vibrational energy from the frequency calculation
    E(vib)  - the the finite temperature correction to E(ZPE) due to population
              of excietd vibrational states
    E(rot)  - is the rotational thermal energy
    E(trans)- is the translational thermal energy

Summary of contributions to the inner energy U:
Electronic energy                ...   -325.97133366 Eh
Zero point energy                ...      0.15132313 Eh      94.96 kcal/mol
Thermal vibrational correction   ...      0.00472908 Eh       2.97 kcal/mol
Thermal rotational correction    ...      0.00141627 Eh       0.89 kcal/mol
Thermal translational correction ...      0.00141627 Eh       0.89 kcal/mol
-----------------------------------------------------------------------
Total thermal energy                   -325.81244891 Eh

Summary of corrections to the electronic energy:
(perhaps to be used in another calculation)
Total thermal correction                  0.00756162 Eh       4.74 kcal/mol
Non-thermal (ZPE) correction              0.15132313 Eh      94.96 kcal/mol
-----------------------------------------------------------------------
Total correction                          0.15888475 Eh      99.70 kcal/mol

--------
ENTHALPY
--------

The enthalpy is H = U + kB*T
                kB is Boltzmann's constant
Total free energy                 ...   -325.81244891 Eh
Thermal Enthalpy correction       ...      0.00094421 Eh       0.59 kcal/mol
-----------------------------------------------------------------------
Total Enthalpy                    ...   -325.81150470 Eh

-------
ENTROPY
-------

The entropy contributions are T*S = T*(S(el)+S(vib)+S(rot)+S(trans)
     S(el)   - electronic entropy
     S(vib)  - vibrational entropy
     S(rot)  - rotational entropy
     S(trans)- translational entropy
The entropies will be listed as mutliplied by the temperature to get
units of energy

Electronic entropy                ...      0.00000000 Eh      0.00 kcal/mol
Vibrational entropy               ...      0.00824204 Eh      5.17 kcal/mol
Rotational entropy                ...      0.01203581 Eh      7.55 kcal/mol
Translational entropy             ...      0.01887324 Eh     11.84 kcal/mol
-----------------------------------------------------------------------
Final entropy term                ...      0.03915108 Eh     24.57 kcal/mol

CAUTION: The rotational entropy is not quite correctly treated here
         because it includes a symmetry number that is not yet correctly
         implemented in ORCA!
For a nonlinear molecule the correct rotational entropy is:
    S(rot) = R*(ln(qrot/sn)+1.5)
    R    = 8.31441 J/mol/K = 1.987191683e-3 kcal/mol/K
    qrot = 230030.3159500
    sn is the rotational symmetry number. We have assumed 3 here
       if it is different for your molecule then you should correct
       the printed rotational entropy by manually evaluating the equation
       as given above

For convenience we print out the resulting values for sn=1 - 12:
 sn= 1  qrot/sn=  230030.3159 T*S(rot)=     8.20 kcal/mol T*S(tot)=    25.22 kcal/mol
 sn= 2  qrot/sn=  115015.1580 T*S(rot)=     7.79 kcal/mol T*S(tot)=    24.81 kcal/mol
 sn= 3  qrot/sn=   76676.7720 T*S(rot)=     7.55 kcal/mol T*S(tot)=    24.57 kcal/mol
 sn= 4  qrot/sn=   57507.5790 T*S(rot)=     7.38 kcal/mol T*S(tot)=    24.40 kcal/mol
 sn= 5  qrot/sn=   46006.0632 T*S(rot)=     7.25 kcal/mol T*S(tot)=    24.26 kcal/mol
 sn= 6  qrot/sn=   38338.3860 T*S(rot)=     7.14 kcal/mol T*S(tot)=    24.16 kcal/mol
 sn= 7  qrot/sn=   32861.4737 T*S(rot)=     7.05 kcal/mol T*S(tot)=    24.07 kcal/mol
 sn= 8  qrot/sn=   28753.7895 T*S(rot)=     6.97 kcal/mol T*S(tot)=    23.99 kcal/mol
 sn= 9  qrot/sn=   25558.9240 T*S(rot)=     6.90 kcal/mol T*S(tot)=    23.92 kcal/mol
 sn=10  qrot/sn=   23003.0316 T*S(rot)=     6.84 kcal/mol T*S(tot)=    23.85 kcal/mol
 sn=11  qrot/sn=   20911.8469 T*S(rot)=     6.78 kcal/mol T*S(tot)=    23.80 kcal/mol
 sn=12  qrot/sn=   19169.1930 T*S(rot)=     6.73 kcal/mol T*S(tot)=    23.75 kcal/mol

-------------------
GIBBS FREE ENTHALPY
-------------------

The Gibbs free enthalpy is G = H - T*S

Total enthalpy                    ...   -325.81150470 Eh
Total entropy correction          ...     -0.03915108 Eh    -24.57 kcal/mol
-----------------------------------------------------------------------
Final Gibbs free enthalpy         ...   -325.85065578 Eh

For completeness - the Gibbs free enthalpy minus the electronic energy
G-E(el)                           ...      0.12067788 Eh     75.73 kcal/mol

                             ****ORCA TERMINATED NORMALLY****
TOTAL RUN TIME: 0 days 0 hours 31 minutes 19 seconds 306 msec
