                         Program Version 3.0.3 - RELEASE   -
|  1> ! NORI PBE0 def2-TZVP UseSym TightOPT Freq TightSCF Grid3 FinalGrid5 XYZFile
|  2> % pal
|  3>     nprocs 8
|  4> end
|  5> %method
|  6>     SymThresh 5.0e-2
|  7> end
|  8> % geom
|  9>     MaxIter 10
| 10> end
| 11> % maxcore 2000
| 12> % output
| 13>     printlevel mini
| 14>     print[ P_Basis ] 0
| 15>     print[ P_SCFInfo ] 1
| 16>     print[ P_SCFIterInfo ] 1
| 17>     print[ P_OrbEn ] 0
| 18>     print[ P_Cartesian ] 0
| 19> end
| 20> % elprop
| 21>     Dipole false
| 22> end
| 23> *xyz 1 1
| 24>  O        1.0905983086     0.2101350281    -0.1318213734
| 25>  C        2.4521958232    -0.0384814062     0.0859437917
| 26>  C        2.9821202258    -1.1118685256    -0.7546416067
| 27>  C        3.3983043849    -1.9750368780    -1.4780796266
| 28>  C        3.1333056491     1.2779904578    -0.2214905251
| 29>  C        4.5288667569     1.3750615998    -0.6625272253
| 30>  N        3.4367091080     1.5085494586    -1.6543964508
| 31>  H        0.5752659397    -0.5765686234     0.0774060059
| 32>  H        2.6663827189    -0.2652806327     1.1407961041
| 33>  H        3.7540516379    -2.7715466517    -2.0948810232
| 34>  H        2.6786578777     2.1361832607     0.2599219748
| 35>  H        5.0811605812     2.2873215892    -0.4787602693
| 36>  H        5.1058523259     0.4667900401    -0.7872040664
| 37>  H        3.2792586875     0.7044998913    -2.2632907613
| 38>  H        3.2372199748     2.4144613920    -2.0634749482
| 39> *
| 40>
| 41>                          ****END OF INPUT****
 Total Charge           Charge          ....    1
 Multiplicity           Mult            ....    1
 Number of Electrons    NEL             ....   52
FINAL SINGLE POINT ENERGY      -324.708896346437

CARTESIAN COORDINATES (ANGSTROEM)
---------------------------------
  O      0.000012   -0.000164    1.950437
  C     -0.542507   -0.369320    0.712356
  C     -1.118209    0.757157   -0.022074
  C     -1.555547    1.703995   -0.616742
  C      0.619080   -0.974950   -0.046320
  C      0.695759   -0.997688   -1.511073
  N      1.485022    0.000168   -0.752284
  H     -0.689139    0.366044    2.515305
  H     -1.299768   -1.160808    0.813414
  H     -1.979940    2.543054   -1.123923
  H      1.180254   -1.712467    0.515907
  H      1.288338   -1.759926   -1.999501
  H     -0.107047   -0.553888   -2.087033
  H      1.133478    0.958298   -0.765618
  H      2.492410   -0.096722   -0.691396

FINAL SINGLE POINT ENERGY      -324.708896609515
                    ***********************HURRAY********************
 Multiplicity           Mult            ....    1
 Number of Electrons    NEL             ....   52
 Basis Dimension        Dim             ....  265
FINAL SINGLE POINT ENERGY      -324.708896703658

VIBRATIONAL FREQUENCIES
-----------------------

   0:         0.00 cm**-1
   1:         0.00 cm**-1
   2:         0.00 cm**-1
   3:         0.00 cm**-1
   4:         0.00 cm**-1
   5:         0.00 cm**-1
   6:        81.57 cm**-1
   7:       143.12 cm**-1
   8:       198.13 cm**-1
   9:       260.35 cm**-1
  10:       303.83 cm**-1
  11:       355.09 cm**-1
  12:       453.58 cm**-1
  13:       579.19 cm**-1
  14:       641.69 cm**-1
  15:       736.65 cm**-1
  16:       758.84 cm**-1
  17:       776.00 cm**-1
  18:       848.31 cm**-1
  19:       888.74 cm**-1
  20:       928.64 cm**-1
  21:       955.46 cm**-1
  22:       992.24 cm**-1
  23:      1051.11 cm**-1
  24:      1103.22 cm**-1
  25:      1153.23 cm**-1
  26:      1168.47 cm**-1
  27:      1184.36 cm**-1
  28:      1240.50 cm**-1
  29:      1248.61 cm**-1
  30:      1288.20 cm**-1
  31:      1343.99 cm**-1
  32:      1388.57 cm**-1
  33:      1428.15 cm**-1
  34:      1484.28 cm**-1
  35:      1605.55 cm**-1
  36:      2233.05 cm**-1
  37:      3019.38 cm**-1
  38:      3172.22 cm**-1
  39:      3211.87 cm**-1
  40:      3277.21 cm**-1
  41:      3444.42 cm**-1
  42:      3448.01 cm**-1
  43:      3594.61 cm**-1
  44:      3842.41 cm**-1

IR SPECTRUM
-----------

 Mode    freq (cm**-1)   T**2         TX         TY         TZ
-------------------------------------------------------------------
   6:        81.57    5.467560  ( -0.951795   0.886035  -1.943345)
   7:       143.12    1.848174  ( -1.271130   0.227260   0.425155)
   8:       198.13    8.361192  (  0.266280  -1.713696  -2.313770)
   9:       260.35    3.566612  (  1.289665  -0.477152  -1.294489)
  10:       303.83  134.088267  ( -1.227826 -10.247419   5.250820)
  11:       355.09   29.618778  ( -4.711898  -0.607633   2.654727)
  12:       453.58   12.152036  (  1.435065   2.242724   2.250070)
  13:       579.19   13.122574  ( -0.602689   3.030231   1.891307)
  14:       641.69    8.627914  ( -1.411840  -1.353010   2.191800)
  15:       736.65   38.610307  ( -4.786412  -3.734068  -1.325635)
  16:       758.84   24.663206  (  1.886716  -1.163392  -4.444100)
  17:       776.00   15.915033  ( -1.713541   0.428269   3.577065)
  18:       848.31    4.883706  ( -0.760455  -1.658550  -1.246846)
  19:       888.74   13.915986  (  3.490108   0.475257  -1.228522)
  20:       928.64   17.325421  ( -0.574217  -4.032130   0.858851)
  21:       955.46   19.772896  ( -2.208763  -3.731327  -0.985628)
  22:       992.24   14.111953  (  2.159128  -2.491113  -1.801243)
  23:      1051.11  105.876099  ( -1.372066   0.918678  10.156257)
  24:      1103.22   57.730960  (  4.523032   1.114169   6.002647)
  25:      1153.23   27.863811  ( -0.257162   0.850204   5.203348)
  26:      1168.47    7.908673  (  0.219551   0.343938  -2.782477)
  27:      1184.36    5.855829  ( -0.964192  -0.625795   2.129447)
  28:      1240.50   52.218645  ( -3.308696   0.134258  -6.422862)
  29:      1248.61    2.781389  (  1.281247  -0.556284   0.911232)
  30:      1288.20   11.093066  (  1.448384  -2.951288  -0.533997)
  31:      1343.99    6.131579  ( -0.236532   1.805334  -1.678214)
  32:      1388.57   35.480074  (  3.700452  -1.159914   4.521209)
  33:      1428.15    4.989344  (  1.778613   0.133952  -1.344595)
  34:      1484.28   11.835550  (  1.023355   1.979261   2.621225)
  35:      1605.55   81.593684  (  7.875229   4.339147  -0.863863)
  36:      2233.05   20.933828  (  2.686193  -3.287962   1.705140)
  37:      3019.38    5.351237  ( -0.360688  -1.444825  -1.770204)
  38:      3172.22    2.944507  ( -0.760359  -0.319580  -1.504736)
  39:      3211.87    5.079951  ( -0.887641   1.508029  -1.420525)
  40:      3277.21    9.862836  ( -2.357413   2.072958   0.091016)
  41:      3444.42   50.459006  ( -1.496921  -6.515774  -2.400608)
  42:      3448.01  141.176242  (  3.924441 -10.527286   3.866685)
  43:      3594.61  185.679525  ( 13.036915  -3.958775  -0.215592)
  44:      3842.41  111.380919  (  4.538671  -3.098007  -9.010202)

--------------------------
THERMOCHEMISTRY AT 298.15K
--------------------------

Temperature         ... 298.15 K
Pressure            ... 1.00 atm
Total Mass          ... 98.12 AMU

Throughout the following assumptions are being made:
  (1) The electronic state is orbitally nondegenerate
  (2) There are no thermally accessible electronically excited states
  (3) Hindered rotations indicated by low frequency modes) are not
      treated as such but are treated as vibrations and this may
      case some error
  (4) All equations used are the standard statistical mechanics
      equations for an ideal gas
  (5) All vibrations are strinctly harmonic

------------
INNER ENERGY
------------

The inner energy is: U= E(el) + E(ZPE) + E(vib) + E(rot) + E(trans)
    E(el)   - is the total energy from the electronic structure calculation
              = E(kin-el) + E(nuc-el) + E(el-el) + E(nuc-nuc)
    E(ZPE)  - the the zero temperature vibrational energy from the frequency calculation
    E(vib)  - the the finite temperature correction to E(ZPE) due to population
              of excietd vibrational states
    E(rot)  - is the rotational thermal energy
    E(trans)- is the translational thermal energy

Summary of contributions to the inner energy U:
Electronic energy                ...   -324.70889670 Eh
Zero point energy                ...      0.12719660 Eh      79.82 kcal/mol
Thermal vibrational correction   ...      0.00451556 Eh       2.83 kcal/mol
Thermal rotational correction    ...      0.00141627 Eh       0.89 kcal/mol
Thermal translational correction ...      0.00141627 Eh       0.89 kcal/mol
-----------------------------------------------------------------------
Total thermal energy                   -324.57435200 Eh

Summary of corrections to the electronic energy:
(perhaps to be used in another calculation)
Total thermal correction                  0.00734810 Eh       4.61 kcal/mol
Non-thermal (ZPE) correction              0.12719660 Eh      79.82 kcal/mol
-----------------------------------------------------------------------
Total correction                          0.13454470 Eh      84.43 kcal/mol

--------
ENTHALPY
--------

The enthalpy is H = U + kB*T
                kB is Boltzmann's constant
Total free energy                 ...   -324.57435200 Eh
Thermal Enthalpy correction       ...      0.00094421 Eh       0.59 kcal/mol
-----------------------------------------------------------------------
Total Enthalpy                    ...   -324.57340779 Eh

-------
ENTROPY
-------

The entropy contributions are T*S = T*(S(el)+S(vib)+S(rot)+S(trans)
     S(el)   - electronic entropy
     S(vib)  - vibrational entropy
     S(rot)  - rotational entropy
     S(trans)- translational entropy
The entropies will be listed as mutliplied by the temperature to get
units of energy

Electronic entropy                ...      0.00000000 Eh      0.00 kcal/mol
Vibrational entropy               ...      0.00782105 Eh      4.91 kcal/mol
Rotational entropy                ...      0.01198083 Eh      7.52 kcal/mol
Translational entropy             ...      0.01884443 Eh     11.83 kcal/mol
-----------------------------------------------------------------------
Final entropy term                ...      0.03864632 Eh     24.25 kcal/mol

CAUTION: The rotational entropy is not quite correctly treated here
         because it includes a symmetry number that is not yet correctly
         implemented in ORCA!
For a nonlinear molecule the correct rotational entropy is:
    S(rot) = R*(ln(qrot/sn)+1.5)
    R    = 8.31441 J/mol/K = 1.987191683e-3 kcal/mol/K
    qrot = 217019.4592829
    sn is the rotational symmetry number. We have assumed 3 here
       if it is different for your molecule then you should correct
       the printed rotational entropy by manually evaluating the equation
       as given above

For convenience we print out the resulting values for sn=1 - 12:
 sn= 1  qrot/sn=  217019.4593 T*S(rot)=     8.17 kcal/mol T*S(tot)=    24.90 kcal/mol
 sn= 2  qrot/sn=  108509.7296 T*S(rot)=     7.76 kcal/mol T*S(tot)=    24.49 kcal/mol
 sn= 3  qrot/sn=   72339.8198 T*S(rot)=     7.52 kcal/mol T*S(tot)=    24.25 kcal/mol
 sn= 4  qrot/sn=   54254.8648 T*S(rot)=     7.35 kcal/mol T*S(tot)=    24.08 kcal/mol
 sn= 5  qrot/sn=   43403.8919 T*S(rot)=     7.22 kcal/mol T*S(tot)=    23.95 kcal/mol
 sn= 6  qrot/sn=   36169.9099 T*S(rot)=     7.11 kcal/mol T*S(tot)=    23.84 kcal/mol
 sn= 7  qrot/sn=   31002.7799 T*S(rot)=     7.02 kcal/mol T*S(tot)=    23.75 kcal/mol
 sn= 8  qrot/sn=   27127.4324 T*S(rot)=     6.94 kcal/mol T*S(tot)=    23.67 kcal/mol
 sn= 9  qrot/sn=   24113.2733 T*S(rot)=     6.87 kcal/mol T*S(tot)=    23.60 kcal/mol
 sn=10  qrot/sn=   21701.9459 T*S(rot)=     6.80 kcal/mol T*S(tot)=    23.54 kcal/mol
 sn=11  qrot/sn=   19729.0418 T*S(rot)=     6.75 kcal/mol T*S(tot)=    23.48 kcal/mol
 sn=12  qrot/sn=   18084.9549 T*S(rot)=     6.70 kcal/mol T*S(tot)=    23.43 kcal/mol

-------------------
GIBBS FREE ENTHALPY
-------------------

The Gibbs free enthalpy is G = H - T*S

Total enthalpy                    ...   -324.57340779 Eh
Total entropy correction          ...     -0.03864632 Eh    -24.25 kcal/mol
-----------------------------------------------------------------------
Final Gibbs free enthalpy         ...   -324.61205411 Eh

For completeness - the Gibbs free enthalpy minus the electronic energy
G-E(el)                           ...      0.09684259 Eh     60.77 kcal/mol

                             ****ORCA TERMINATED NORMALLY****
TOTAL RUN TIME: 0 days 0 hours 28 minutes 33 seconds 92 msec
