                         Program Version 3.0.3 - RELEASE   -
|  1> ! NORI PBE0 def2-TZVP UseSym TightOPT Freq TightSCF Grid3 FinalGrid5 XYZFile
|  2> % pal
|  3>     nprocs 8
|  4> end
|  5> %method
|  6>     SymThresh 5.0e-2
|  7> end
|  8> % geom
|  9>     MaxIter 10
| 10> end
| 11> % maxcore 2000
| 12> % output
| 13>     printlevel mini
| 14>     print[ P_Basis ] 0
| 15>     print[ P_SCFInfo ] 1
| 16>     print[ P_SCFIterInfo ] 1
| 17>     print[ P_OrbEn ] 0
| 18>     print[ P_Cartesian ] 0
| 19> end
| 20> % elprop
| 21>     Dipole false
| 22> end
| 23> *xyz 1 1
| 24>  O        3.9065583967     1.0033970188    -0.2633699701
| 25>  C        2.8488353364     0.2027923128     0.1764056423
| 26>  C        3.2684962249    -1.2234466164     0.1653377787
| 27>  C        4.4648039853    -1.6277424404    -0.2434464101
| 28>  C        4.9128919262    -3.0331734885    -0.2787659607
| 29>  C        5.9297223579    -3.5369732112     0.6626422225
| 30>  N        4.5066433660    -3.9007592859     0.8677528515
| 31>  H        3.6122083263     1.9146836064    -0.3352971138
| 32>  H        1.9596566262     0.2978252091    -0.4656815955
| 33>  H        2.5272229522     0.4646306441     1.1962203099
| 34>  H        2.5117808532    -1.9297375458     0.5035576992
| 35>  H        5.1828329768    -0.9003424674    -0.6092145844
| 36>  H        4.8379472466    -3.5686230963    -1.2222901256
| 37>  H        6.3168233749    -2.8660452796     1.4193850604
| 38>  H        6.5613254357    -4.3705837734     0.3840786106
| 39>  H        4.2192406277    -4.8571150872     0.6934989853
| 40>  H        4.0167599873    -3.4395164991     1.6274965998
| 41> *
| 42>
| 43>                          ****END OF INPUT****
 Total Charge           Charge          ....    1
 Multiplicity           Mult            ....    1
 Number of Electrons    NEL             ....   54
FINAL SINGLE POINT ENERGY      -325.964072688273
FINAL SINGLE POINT ENERGY      -325.964073871280
FINAL SINGLE POINT ENERGY      -325.964075057866

CARTESIAN COORDINATES (ANGSTROEM)
---------------------------------
  O     -0.004960   -0.000751    2.742423
  C      0.383423   -1.131405    2.019544
  C      0.130591   -0.905076    0.572027
  C     -0.418007    0.204714    0.093432
  C     -0.690650    0.463361   -1.333172
  C      0.098525    1.446578   -2.097483
  N      0.336825   -0.001426   -2.313364
  H      0.093051   -0.170015    3.682615
  H     -0.172135   -2.032129    2.323445
  H      1.451576   -1.363409    2.154121
  H      0.415920   -1.728810   -0.080900
  H     -0.722686    0.991866    0.776362
  H     -1.696900    0.277735   -1.701310
  H      0.920334    1.950053   -1.604449
  H     -0.341131    1.951305   -2.947835
  H      0.039597   -0.417816   -3.188603
  H      1.186372   -0.394477   -1.921436

FINAL SINGLE POINT ENERGY      -325.964075799134
                    ***********************HURRAY********************
 Multiplicity           Mult            ....    1
 Number of Electrons    NEL             ....   54
 Basis Dimension        Dim             ....  277
FINAL SINGLE POINT ENERGY      -325.964076680368

VIBRATIONAL FREQUENCIES
-----------------------

   0:         0.00 cm**-1
   1:         0.00 cm**-1
   2:         0.00 cm**-1
   3:         0.00 cm**-1
   4:         0.00 cm**-1
   5:         0.00 cm**-1
   6:        47.14 cm**-1
   7:       120.92 cm**-1
   8:       155.49 cm**-1
   9:       204.89 cm**-1
  10:       252.80 cm**-1
  11:       277.72 cm**-1
  12:       403.22 cm**-1
  13:       503.12 cm**-1
  14:       636.18 cm**-1
  15:       763.10 cm**-1
  16:       805.86 cm**-1
  17:       845.86 cm**-1
  18:       890.59 cm**-1
  19:       926.85 cm**-1
  20:       968.58 cm**-1
  21:       993.54 cm**-1
  22:      1006.20 cm**-1
  23:      1026.39 cm**-1
  24:      1038.38 cm**-1
  25:      1140.75 cm**-1
  26:      1160.29 cm**-1
  27:      1168.78 cm**-1
  28:      1180.91 cm**-1
  29:      1206.92 cm**-1
  30:      1249.43 cm**-1
  31:      1260.96 cm**-1
  32:      1270.39 cm**-1
  33:      1310.11 cm**-1
  34:      1325.34 cm**-1
  35:      1414.80 cm**-1
  36:      1452.19 cm**-1
  37:      1485.57 cm**-1
  38:      1490.53 cm**-1
  39:      1618.03 cm**-1
  40:      1746.90 cm**-1
  41:      2988.42 cm**-1
  42:      3012.61 cm**-1
  43:      3151.42 cm**-1
  44:      3161.73 cm**-1
  45:      3172.59 cm**-1
  46:      3196.49 cm**-1
  47:      3278.00 cm**-1
  48:      3510.58 cm**-1
  49:      3618.10 cm**-1
  50:      3878.64 cm**-1

IR SPECTRUM
-----------

 Mode    freq (cm**-1)   T**2         TX         TY         TZ
-------------------------------------------------------------------
   6:        47.14    0.290070  (  0.076414   0.033462   0.532082)
   7:       120.92    1.888064  (  0.095363  -0.452143  -1.294039)
   8:       155.49    2.918963  ( -0.968235   1.375922  -0.297193)
   9:       204.89   88.127980  ( -8.876227  -3.034684  -0.362298)
  10:       252.80   17.498654  ( -1.718369  -0.393424   3.793558)
  11:       277.72   54.147151  (  6.748905   2.886984  -0.514551)
  12:       403.22    3.255836  (  1.217530   1.248023  -0.464645)
  13:       503.12    1.807675  (  0.416680   1.190532  -0.465495)
  14:       636.18   11.494902  (  0.587373  -2.023383  -2.656278)
  15:       763.10    2.390024  (  1.543346  -0.055741   0.070702)
  16:       805.86    3.089595  ( -0.923796  -1.188389   0.907704)
  17:       845.86   17.677861  ( -1.868151   3.101660   2.137190)
  18:       890.59    5.556468  (  0.106892  -0.804665  -2.213042)
  19:       926.85   16.859022  (  2.045955  -3.544469  -0.331409)
  20:       968.58   20.649894  (  0.626014   1.377877   4.284794)
  21:       993.54   58.497955  (  6.427906   3.025929  -2.832620)
  22:      1006.20    3.519132  ( -1.668456   0.625811  -0.586300)
  23:      1026.39   87.983555  ( -5.887183  -5.359540   4.959835)
  24:      1038.38    6.349981  ( -2.223805   0.534907  -1.057614)
  25:      1140.75    0.403823  ( -0.345670   0.011379   0.533110)
  26:      1160.29    6.334962  ( -0.167176   1.642017   1.900209)
  27:      1168.78   52.356231  ( -2.342886   4.963431   4.715026)
  28:      1180.91    8.969739  ( -0.076170   2.803425   1.051070)
  29:      1206.92   43.737406  ( -0.911942   4.864757   4.386332)
  30:      1249.43    3.630533  ( -0.281678   1.122480   1.513680)
  31:      1260.96    0.135817  ( -0.253969  -0.264979  -0.033209)
  32:      1270.39   16.772047  ( -2.472023   3.145376  -0.876219)
  33:      1310.11   20.207142  (  2.097156  -2.811797  -2.811206)
  34:      1325.34   11.547157  (  0.829615  -2.739632  -1.831205)
  35:      1414.80   18.407577  ( -1.618939   1.984202  -3.442319)
  36:      1452.19    3.106518  ( -0.251208   1.426907  -1.003668)
  37:      1485.57   27.024032  (  0.948095  -2.725885   4.323737)
  38:      1490.53   12.212451  (  1.089010   3.103869  -1.180046)
  39:      1618.03   65.646230  (  4.565496  -4.030859  -5.343655)
  40:      1746.90   23.674725  (  1.294182  -2.419405   4.018245)
  41:      2988.42   22.155661  (  2.178640  -3.951288  -1.340339)
  42:      3012.61   12.385696  ( -3.200500  -1.463593  -0.019852)
  43:      3151.42    7.735554  ( -0.465522   1.543641   2.266278)
  44:      3161.73    4.234165  ( -0.987337  -0.907624   1.560624)
  45:      3172.59    2.628668  ( -0.457295  -1.519648   0.331993)
  46:      3196.49    8.869039  ( -0.732074   1.715367   2.321771)
  47:      3278.00    5.599684  (  1.784722   0.312613   1.522079)
  48:      3510.58   81.688829  ( -4.299285   6.396865   4.720710)
  49:      3618.10  130.565845  (  6.482949   0.877424   9.368423)
  50:      3878.64  100.875363  (  0.169296   0.475871  10.030964)

--------------------------
THERMOCHEMISTRY AT 298.15K
--------------------------

Temperature         ... 298.15 K
Pressure            ... 1.00 atm
Total Mass          ... 100.14 AMU

Throughout the following assumptions are being made:
  (1) The electronic state is orbitally nondegenerate
  (2) There are no thermally accessible electronically excited states
  (3) Hindered rotations indicated by low frequency modes) are not
      treated as such but are treated as vibrations and this may
      case some error
  (4) All equations used are the standard statistical mechanics
      equations for an ideal gas
  (5) All vibrations are strinctly harmonic

------------
INNER ENERGY
------------

The inner energy is: U= E(el) + E(ZPE) + E(vib) + E(rot) + E(trans)
    E(el)   - is the total energy from the electronic structure calculation
              = E(kin-el) + E(nuc-el) + E(el-el) + E(nuc-nuc)
    E(ZPE)  - the the zero temperature vibrational energy from the frequency calculation
    E(vib)  - the the finite temperature correction to E(ZPE) due to population
              of excietd vibrational states
    E(rot)  - is the rotational thermal energy
    E(trans)- is the translational thermal energy

Summary of contributions to the inner energy U:
Electronic energy                ...   -325.96407668 Eh
Zero point energy                ...      0.15108196 Eh      94.81 kcal/mol
Thermal vibrational correction   ...      0.00502418 Eh       3.15 kcal/mol
Thermal rotational correction    ...      0.00141627 Eh       0.89 kcal/mol
Thermal translational correction ...      0.00141627 Eh       0.89 kcal/mol
-----------------------------------------------------------------------
Total thermal energy                   -325.80513800 Eh

Summary of corrections to the electronic energy:
(perhaps to be used in another calculation)
Total thermal correction                  0.00785672 Eh       4.93 kcal/mol
Non-thermal (ZPE) correction              0.15108196 Eh      94.81 kcal/mol
-----------------------------------------------------------------------
Total correction                          0.15893868 Eh      99.74 kcal/mol

--------
ENTHALPY
--------

The enthalpy is H = U + kB*T
                kB is Boltzmann's constant
Total free energy                 ...   -325.80513800 Eh
Thermal Enthalpy correction       ...      0.00094421 Eh       0.59 kcal/mol
-----------------------------------------------------------------------
Total Enthalpy                    ...   -325.80419379 Eh

-------
ENTROPY
-------

The entropy contributions are T*S = T*(S(el)+S(vib)+S(rot)+S(trans)
     S(el)   - electronic entropy
     S(vib)  - vibrational entropy
     S(rot)  - rotational entropy
     S(trans)- translational entropy
The entropies will be listed as mutliplied by the temperature to get
units of energy

Electronic entropy                ...      0.00000000 Eh      0.00 kcal/mol
Vibrational entropy               ...      0.00938652 Eh      5.89 kcal/mol
Rotational entropy                ...      0.01217703 Eh      7.64 kcal/mol
Translational entropy             ...      0.01887324 Eh     11.84 kcal/mol
-----------------------------------------------------------------------
Final entropy term                ...      0.04043679 Eh     25.37 kcal/mol

CAUTION: The rotational entropy is not quite correctly treated here
         because it includes a symmetry number that is not yet correctly
         implemented in ORCA!
For a nonlinear molecule the correct rotational entropy is:
    S(rot) = R*(ln(qrot/sn)+1.5)
    R    = 8.31441 J/mol/K = 1.987191683e-3 kcal/mol/K
    qrot = 267141.8286560
    sn is the rotational symmetry number. We have assumed 3 here
       if it is different for your molecule then you should correct
       the printed rotational entropy by manually evaluating the equation
       as given above

For convenience we print out the resulting values for sn=1 - 12:
 sn= 1  qrot/sn=  267141.8287 T*S(rot)=     8.29 kcal/mol T*S(tot)=    26.03 kcal/mol
 sn= 2  qrot/sn=  133570.9143 T*S(rot)=     7.88 kcal/mol T*S(tot)=    25.61 kcal/mol
 sn= 3  qrot/sn=   89047.2762 T*S(rot)=     7.64 kcal/mol T*S(tot)=    25.37 kcal/mol
 sn= 4  qrot/sn=   66785.4572 T*S(rot)=     7.47 kcal/mol T*S(tot)=    25.20 kcal/mol
 sn= 5  qrot/sn=   53428.3657 T*S(rot)=     7.34 kcal/mol T*S(tot)=    25.07 kcal/mol
 sn= 6  qrot/sn=   44523.6381 T*S(rot)=     7.23 kcal/mol T*S(tot)=    24.96 kcal/mol
 sn= 7  qrot/sn=   38163.1184 T*S(rot)=     7.14 kcal/mol T*S(tot)=    24.87 kcal/mol
 sn= 8  qrot/sn=   33392.7286 T*S(rot)=     7.06 kcal/mol T*S(tot)=    24.79 kcal/mol
 sn= 9  qrot/sn=   29682.4254 T*S(rot)=     6.99 kcal/mol T*S(tot)=    24.72 kcal/mol
 sn=10  qrot/sn=   26714.1829 T*S(rot)=     6.93 kcal/mol T*S(tot)=    24.66 kcal/mol
 sn=11  qrot/sn=   24285.6208 T*S(rot)=     6.87 kcal/mol T*S(tot)=    24.60 kcal/mol
 sn=12  qrot/sn=   22261.8191 T*S(rot)=     6.82 kcal/mol T*S(tot)=    24.55 kcal/mol

-------------------
GIBBS FREE ENTHALPY
-------------------

The Gibbs free enthalpy is G = H - T*S

Total enthalpy                    ...   -325.80419379 Eh
Total entropy correction          ...     -0.04043679 Eh    -25.37 kcal/mol
-----------------------------------------------------------------------
Final Gibbs free enthalpy         ...   -325.84463058 Eh

For completeness - the Gibbs free enthalpy minus the electronic energy
G-E(el)                           ...      0.11944610 Eh     74.95 kcal/mol

                             ****ORCA TERMINATED NORMALLY****
TOTAL RUN TIME: 0 days 0 hours 33 minutes 48 seconds 306 msec
