                         Program Version 3.0.3 - RELEASE   -
|  1> ! NORI PBE0 def2-TZVP UseSym TightOPT Freq TightSCF Grid3 FinalGrid5 XYZFile
|  2> % pal
|  3>     nprocs 8
|  4> end
|  5> %method
|  6>     SymThresh 5.0e-2
|  7> end
|  8> % geom
|  9>     MaxIter 10
| 10> end
| 11> % maxcore 2000
| 12> % output
| 13>     printlevel mini
| 14>     print[ P_Basis ] 0
| 15>     print[ P_SCFInfo ] 1
| 16>     print[ P_SCFIterInfo ] 1
| 17>     print[ P_OrbEn ] 0
| 18>     print[ P_Cartesian ] 0
| 19> end
| 20> % elprop
| 21>     Dipole false
| 22> end
| 23> *xyz 1 1
| 24>  O        1.0310676496    -0.1338559280     0.3020434204
| 25>  C        2.4186749099    -0.1788913055     0.4005446778
| 26>  C        2.9301993351    -1.3355854235    -0.4099724258
| 27>  C        2.1352509488    -2.2310723664    -0.9842542180
| 28>  C        4.4034503590    -1.4392078863    -0.4865315707
| 29>  C        5.1106703313    -2.1808343023    -1.5373582566
| 30>  N        5.0722808509    -0.7042013162    -1.6324555622
| 31>  H        0.6822972467     0.5260454872     0.9068188693
| 32>  H        2.8845019926     0.7538360700     0.0379647649
| 33>  H        2.7566748651    -0.3122106195     1.4410545513
| 34>  H        2.5176626285    -3.0889963548    -1.5243282755
| 35>  H        1.0606433236    -2.1312672579    -0.8989915343
| 36>  H        4.9573226373    -1.2685662441     0.4329578726
| 37>  H        6.0944462761    -2.5844067467    -1.3368429473
| 38>  H        4.5426658377    -2.6769938593    -2.3130888926
| 39>  H        4.4537653313    -0.3009405596    -2.3294569042
| 40>  H        5.9254654765    -0.1815813869    -1.4664035692
| 41> *
| 42>
| 43>                          ****END OF INPUT****
 Total Charge           Charge          ....    1
 Multiplicity           Mult            ....    1
 Number of Electrons    NEL             ....   54
FINAL SINGLE POINT ENERGY      -325.960609128024
FINAL SINGLE POINT ENERGY      -325.960610244595

CARTESIAN COORDINATES (ANGSTROEM)
---------------------------------
  O      0.000675   -0.000421    2.614550
  C      0.278880   -0.695508    1.441124
  C     -0.354543    0.023537    0.283999
  C     -1.166921    1.063702    0.430038
  C     -0.046689   -0.545900   -1.045698
  C     -0.174151    0.204446   -2.300845
  N      1.182798    0.001693   -1.745310
  H      0.294061   -0.511172    3.373456
  H      1.365090   -0.783230    1.266133
  H     -0.117287   -1.723487    1.464400
  H     -1.658554    1.542417   -0.408435
  H     -1.378802    1.446905    1.419770
  H     -0.067314   -1.628923   -1.133230
  H     -0.356537   -0.328150   -3.225073
  H     -0.500111    1.235614   -2.275433
  H      1.628791    0.802460   -1.308923
  H      1.815896   -0.631921   -2.221140

FINAL SINGLE POINT ENERGY      -325.960610908900
                    ***********************HURRAY********************
 Multiplicity           Mult            ....    1
 Number of Electrons    NEL             ....   54
 Basis Dimension        Dim             ....  277
FINAL SINGLE POINT ENERGY      -325.960611240324

VIBRATIONAL FREQUENCIES
-----------------------

   0:         0.00 cm**-1
   1:         0.00 cm**-1
   2:         0.00 cm**-1
   3:         0.00 cm**-1
   4:         0.00 cm**-1
   5:         0.00 cm**-1
   6:        66.05 cm**-1
   7:        86.19 cm**-1
   8:       201.34 cm**-1
   9:       234.23 cm**-1
  10:       263.51 cm**-1
  11:       332.40 cm**-1
  12:       423.01 cm**-1
  13:       501.40 cm**-1
  14:       552.87 cm**-1
  15:       712.34 cm**-1
  16:       762.26 cm**-1
  17:       817.19 cm**-1
  18:       883.86 cm**-1
  19:       902.64 cm**-1
  20:       916.10 cm**-1
  21:       966.07 cm**-1
  22:      1002.42 cm**-1
  23:      1012.75 cm**-1
  24:      1040.91 cm**-1
  25:      1120.03 cm**-1
  26:      1140.84 cm**-1
  27:      1160.56 cm**-1
  28:      1186.83 cm**-1
  29:      1222.58 cm**-1
  30:      1244.64 cm**-1
  31:      1256.04 cm**-1
  32:      1269.30 cm**-1
  33:      1285.87 cm**-1
  34:      1423.54 cm**-1
  35:      1448.52 cm**-1
  36:      1466.65 cm**-1
  37:      1493.99 cm**-1
  38:      1499.72 cm**-1
  39:      1622.44 cm**-1
  40:      1727.59 cm**-1
  41:      2959.43 cm**-1
  42:      2992.87 cm**-1
  43:      3172.55 cm**-1
  44:      3177.64 cm**-1
  45:      3180.53 cm**-1
  46:      3274.21 cm**-1
  47:      3279.27 cm**-1
  48:      3503.05 cm**-1
  49:      3614.64 cm**-1
  50:      3874.74 cm**-1

IR SPECTRUM
-----------

 Mode    freq (cm**-1)   T**2         TX         TY         TZ
-------------------------------------------------------------------
   6:        66.05    2.260740  ( -0.399343  -1.133424   0.903668)
   7:        86.19   10.363793  ( -2.989375  -0.469675   1.098560)
   8:       201.34    5.321482  (  2.154032   0.818838   0.105508)
   9:       234.23   78.696153  ( -7.505823  -4.431823  -1.648550)
  10:       263.51   50.275785  ( -6.249199  -2.789050   1.855936)
  11:       332.40    1.189730  (  0.009562  -0.213427  -1.069620)
  12:       423.01    8.708794  ( -1.402135  -0.430124   2.560821)
  13:       501.40    6.787271  ( -1.710647  -1.342870   1.434454)
  14:       552.87    7.541750  ( -0.364257  -1.551950  -2.236184)
  15:       712.34   13.660216  (  2.042567  -0.998088  -2.914096)
  16:       762.26   20.971360  (  3.944405  -0.436049  -2.285365)
  17:       817.19    8.135518  ( -2.187525  -0.905985  -1.590422)
  18:       883.86    2.938646  (  0.714869   0.098171  -1.554982)
  19:       902.64   16.384604  ( -3.086265   1.476266   2.163379)
  20:       916.10   13.733092  (  2.624430   0.608934  -2.544535)
  21:       966.07   12.318689  (  2.383777   2.405416   0.922101)
  22:      1002.42   39.005053  (  5.088146   3.619791  -0.113733)
  23:      1012.75  101.462325  ( -0.178489  -4.979302   8.754257)
  24:      1040.91    2.481060  (  0.895374  -1.206869   0.472051)
  25:      1120.03   24.893937  ( -0.102724  -2.053338  -4.546118)
  26:      1140.84   34.876236  ( -1.414194   1.790366   5.447098)
  27:      1160.56    2.515095  ( -0.079106   1.156299  -1.082502)
  28:      1186.83   16.118670  ( -1.316210   0.382722   3.773564)
  29:      1222.58   19.669163  ( -0.907820   1.467722   4.085440)
  30:      1244.64   32.248616  (  0.010200  -3.807152  -4.213562)
  31:      1256.04   22.053535  (  0.148026   3.279611   3.357943)
  32:      1269.30    4.158253  ( -1.521187   0.147025   1.350047)
  33:      1285.87    3.043013  (  0.281677   0.640359   1.598002)
  34:      1423.54    0.012088  ( -0.065374  -0.062136   0.062876)
  35:      1448.52   48.124658  (  4.308779  -5.259499  -1.377227)
  36:      1466.65    0.222971  (  0.396950   0.197489  -0.162482)
  37:      1493.99    4.450020  (  0.000454   0.056938  -2.108738)
  38:      1499.72   17.978902  ( -1.916823   2.044698  -3.181808)
  39:      1622.44   67.531588  (  7.872524   1.661927  -1.671211)
  40:      1727.59    5.481739  (  0.900042  -0.518257   2.098350)
  41:      2959.43   43.455254  (  4.871741  -2.791418  -3.453894)
  42:      2992.87   20.316110  (  2.716566   3.506492   0.800556)
  43:      3172.55    1.064491  ( -0.646008  -0.420191   0.686006)
  44:      3177.64    8.425282  (  0.158218   0.146870   2.894595)
  45:      3180.53    1.115022  ( -0.820053   0.500974   0.437677)
  46:      3274.21    4.598975  ( -0.609679   1.314945   1.580565)
  47:      3279.27    4.718863  ( -0.070608   1.893507   1.062312)
  48:      3503.05   99.858859  (  9.828767   1.212733  -1.335471)
  49:      3614.64  120.201194  ( -1.678308   8.989397   6.047746)
  50:      3874.74  105.375072  ( -1.905785   3.098526  -9.599072)

--------------------------
THERMOCHEMISTRY AT 298.15K
--------------------------

Temperature         ... 298.15 K
Pressure            ... 1.00 atm
Total Mass          ... 100.14 AMU

Throughout the following assumptions are being made:
  (1) The electronic state is orbitally nondegenerate
  (2) There are no thermally accessible electronically excited states
  (3) Hindered rotations indicated by low frequency modes) are not
      treated as such but are treated as vibrations and this may
      case some error
  (4) All equations used are the standard statistical mechanics
      equations for an ideal gas
  (5) All vibrations are strinctly harmonic

------------
INNER ENERGY
------------

The inner energy is: U= E(el) + E(ZPE) + E(vib) + E(rot) + E(trans)
    E(el)   - is the total energy from the electronic structure calculation
              = E(kin-el) + E(nuc-el) + E(el-el) + E(nuc-nuc)
    E(ZPE)  - the the zero temperature vibrational energy from the frequency calculation
    E(vib)  - the the finite temperature correction to E(ZPE) due to population
              of excietd vibrational states
    E(rot)  - is the rotational thermal energy
    E(trans)- is the translational thermal energy

Summary of contributions to the inner energy U:
Electronic energy                ...   -325.96061124 Eh
Zero point energy                ...      0.15098699 Eh      94.75 kcal/mol
Thermal vibrational correction   ...      0.00493860 Eh       3.10 kcal/mol
Thermal rotational correction    ...      0.00141627 Eh       0.89 kcal/mol
Thermal translational correction ...      0.00141627 Eh       0.89 kcal/mol
-----------------------------------------------------------------------
Total thermal energy                   -325.80185311 Eh

Summary of corrections to the electronic energy:
(perhaps to be used in another calculation)
Total thermal correction                  0.00777114 Eh       4.88 kcal/mol
Non-thermal (ZPE) correction              0.15098699 Eh      94.75 kcal/mol
-----------------------------------------------------------------------
Total correction                          0.15875813 Eh      99.62 kcal/mol

--------
ENTHALPY
--------

The enthalpy is H = U + kB*T
                kB is Boltzmann's constant
Total free energy                 ...   -325.80185311 Eh
Thermal Enthalpy correction       ...      0.00094421 Eh       0.59 kcal/mol
-----------------------------------------------------------------------
Total Enthalpy                    ...   -325.80090890 Eh

-------
ENTROPY
-------

The entropy contributions are T*S = T*(S(el)+S(vib)+S(rot)+S(trans)
     S(el)   - electronic entropy
     S(vib)  - vibrational entropy
     S(rot)  - rotational entropy
     S(trans)- translational entropy
The entropies will be listed as mutliplied by the temperature to get
units of energy

Electronic entropy                ...      0.00000000 Eh      0.00 kcal/mol
Vibrational entropy               ...      0.00898022 Eh      5.64 kcal/mol
Rotational entropy                ...      0.01208701 Eh      7.58 kcal/mol
Translational entropy             ...      0.01887324 Eh     11.84 kcal/mol
-----------------------------------------------------------------------
Final entropy term                ...      0.03994047 Eh     25.06 kcal/mol

CAUTION: The rotational entropy is not quite correctly treated here
         because it includes a symmetry number that is not yet correctly
         implemented in ORCA!
For a nonlinear molecule the correct rotational entropy is:
    S(rot) = R*(ln(qrot/sn)+1.5)
    R    = 8.31441 J/mol/K = 1.987191683e-3 kcal/mol/K
    qrot = 242848.4018421
    sn is the rotational symmetry number. We have assumed 3 here
       if it is different for your molecule then you should correct
       the printed rotational entropy by manually evaluating the equation
       as given above

For convenience we print out the resulting values for sn=1 - 12:
 sn= 1  qrot/sn=  242848.4018 T*S(rot)=     8.24 kcal/mol T*S(tot)=    25.71 kcal/mol
 sn= 2  qrot/sn=  121424.2009 T*S(rot)=     7.82 kcal/mol T*S(tot)=    25.30 kcal/mol
 sn= 3  qrot/sn=   80949.4673 T*S(rot)=     7.58 kcal/mol T*S(tot)=    25.06 kcal/mol
 sn= 4  qrot/sn=   60712.1005 T*S(rot)=     7.41 kcal/mol T*S(tot)=    24.89 kcal/mol
 sn= 5  qrot/sn=   48569.6804 T*S(rot)=     7.28 kcal/mol T*S(tot)=    24.76 kcal/mol
 sn= 6  qrot/sn=   40474.7336 T*S(rot)=     7.17 kcal/mol T*S(tot)=    24.65 kcal/mol
 sn= 7  qrot/sn=   34692.6288 T*S(rot)=     7.08 kcal/mol T*S(tot)=    24.56 kcal/mol
 sn= 8  qrot/sn=   30356.0502 T*S(rot)=     7.00 kcal/mol T*S(tot)=    24.48 kcal/mol
 sn= 9  qrot/sn=   26983.1558 T*S(rot)=     6.93 kcal/mol T*S(tot)=    24.41 kcal/mol
 sn=10  qrot/sn=   24284.8402 T*S(rot)=     6.87 kcal/mol T*S(tot)=    24.35 kcal/mol
 sn=11  qrot/sn=   22077.1274 T*S(rot)=     6.81 kcal/mol T*S(tot)=    24.29 kcal/mol
 sn=12  qrot/sn=   20237.3668 T*S(rot)=     6.76 kcal/mol T*S(tot)=    24.24 kcal/mol

-------------------
GIBBS FREE ENTHALPY
-------------------

The Gibbs free enthalpy is G = H - T*S

Total enthalpy                    ...   -325.80090890 Eh
Total entropy correction          ...     -0.03994047 Eh    -25.06 kcal/mol
-----------------------------------------------------------------------
Final Gibbs free enthalpy         ...   -325.84084937 Eh

For completeness - the Gibbs free enthalpy minus the electronic energy
G-E(el)                           ...      0.11976187 Eh     75.15 kcal/mol

                             ****ORCA TERMINATED NORMALLY****
TOTAL RUN TIME: 0 days 0 hours 32 minutes 12 seconds 97 msec
