                         Program Version 3.0.3 - RELEASE   -
|  1> ! NORI PBE0 def2-TZVP UseSym TightOPT Freq TightSCF Grid3 FinalGrid5 XYZFile
|  2> % pal
|  3>     nprocs 8
|  4> end
|  5> %method
|  6>     SymThresh 5.0e-2
|  7> end
|  8> % geom
|  9>     MaxIter 10
| 10> end
| 11> % maxcore 2000
| 12> % output
| 13>     printlevel mini
| 14>     print[ P_Basis ] 0
| 15>     print[ P_SCFInfo ] 1
| 16>     print[ P_SCFIterInfo ] 1
| 17>     print[ P_OrbEn ] 0
| 18>     print[ P_Cartesian ] 0
| 19> end
| 20> % elprop
| 21>     Dipole false
| 22> end
| 23> *xyz 1 1
| 24>  O        1.1082280870     0.3025013175     0.2312569457
| 25>  C        2.4303987597    -0.0376950383    -0.0927464719
| 26>  C        2.9544822265     0.9710615413    -0.9993817806
| 27>  C        3.3715753489     1.8096767649    -1.7528816225
| 28>  C        3.8235195067     2.8079076421    -2.6562727137
| 29>  C        2.8864876123     3.7760165219    -3.2637976510
| 30>  N        3.7495888538     4.2389627586    -2.1559736053
| 31>  H        0.7384238866    -0.3925309741     0.7839531935
| 32>  H        3.0827543693    -0.0793259922     0.7909435153
| 33>  H        2.5059626555    -1.0099558116    -0.6007759529
| 34>  H        4.7534020188     2.6239659323    -3.1859158414
| 35>  H        1.8374743215     3.7106716934    -3.0054511165
| 36>  H        3.1262239932     4.2158468100    -4.2230718391
| 37>  H        3.3226242561     4.3701025979    -1.2441977380
| 38>  H        4.5164441039     4.8702542362    -2.3629773216
| 39> *
| 40>
| 41>                          ****END OF INPUT****
 Total Charge           Charge          ....    1
 Multiplicity           Mult            ....    1
 Number of Electrons    NEL             ....   52
FINAL SINGLE POINT ENERGY      -324.706326481976
FINAL SINGLE POINT ENERGY      -324.706327398978
FINAL SINGLE POINT ENERGY      -324.706329481013
FINAL SINGLE POINT ENERGY      -324.706329917084

CARTESIAN COORDINATES (ANGSTROEM)
---------------------------------
  O     -0.030185    0.027603    2.972003
  C     -0.854424   -0.800087    2.194949
  C     -0.628393   -0.487406    0.793108
  C     -0.435331   -0.213925   -0.361419
  C     -0.200321    0.150150   -1.713723
  C      0.616377    1.332334   -2.060281
  N      1.226820   -0.006608   -2.206959
  H     -0.213040   -0.141146    3.901174
  H     -0.642945   -1.868071    2.347411
  H     -1.923830   -0.646808    2.399789
  H     -0.912938   -0.191310   -2.458438
  H      1.038102    1.921510   -1.256432
  H      0.440749    1.842298   -2.998525
  H      1.909127   -0.296162   -1.513030
  H      1.384758   -0.373671   -3.139521

FINAL SINGLE POINT ENERGY      -324.706330312603
                    ***********************HURRAY********************
 Multiplicity           Mult            ....    1
 Number of Electrons    NEL             ....   52
 Basis Dimension        Dim             ....  265
FINAL SINGLE POINT ENERGY      -324.706330401208

VIBRATIONAL FREQUENCIES
-----------------------

   0:         0.00 cm**-1
   1:         0.00 cm**-1
   2:         0.00 cm**-1
   3:         0.00 cm**-1
   4:         0.00 cm**-1
   5:         0.00 cm**-1
   6:        36.55 cm**-1
   7:        84.39 cm**-1
   8:       124.70 cm**-1
   9:       214.13 cm**-1
  10:       234.56 cm**-1
  11:       323.65 cm**-1
  12:       430.17 cm**-1
  13:       497.27 cm**-1
  14:       592.32 cm**-1
  15:       701.36 cm**-1
  16:       745.48 cm**-1
  17:       866.08 cm**-1
  18:       887.58 cm**-1
  19:       931.73 cm**-1
  20:      1004.86 cm**-1
  21:      1017.58 cm**-1
  22:      1039.08 cm**-1
  23:      1111.47 cm**-1
  24:      1145.80 cm**-1
  25:      1172.38 cm**-1
  26:      1203.62 cm**-1
  27:      1242.82 cm**-1
  28:      1250.87 cm**-1
  29:      1258.21 cm**-1
  30:      1265.49 cm**-1
  31:      1419.98 cm**-1
  32:      1459.36 cm**-1
  33:      1479.80 cm**-1
  34:      1489.29 cm**-1
  35:      1621.55 cm**-1
  36:      2374.96 cm**-1
  37:      3006.38 cm**-1
  38:      3036.00 cm**-1
  39:      3175.88 cm**-1
  40:      3183.16 cm**-1
  41:      3282.41 cm**-1
  42:      3502.20 cm**-1
  43:      3613.93 cm**-1
  44:      3857.75 cm**-1

IR SPECTRUM
-----------

 Mode    freq (cm**-1)   T**2         TX         TY         TZ
-------------------------------------------------------------------
   6:        36.55    4.876097  (  0.164085  -1.753277  -1.332363)
   7:        84.39   10.976952  ( -1.648852  -0.809786  -2.757261)
   8:       124.70   17.726059  ( -2.396704   3.357268  -0.842982)
   9:       214.13  130.925814  (  8.135664  -8.044702  -0.139814)
  10:       234.56    1.190795  (  0.458242   0.262073   0.955053)
  11:       323.65    1.346207  ( -1.066415   0.034910   0.455794)
  12:       430.17    7.288027  ( -2.330471  -1.202799   0.640472)
  13:       497.27    3.590659  (  1.168510  -1.488229   0.102063)
  14:       592.32    6.714657  (  1.378303   0.865234   2.016509)
  15:       701.36   12.865596  ( -0.581268   0.881341   3.427968)
  16:       745.48   45.756566  ( -5.210124   0.094925   4.313023)
  17:       866.08    4.198454  ( -0.052095   1.912636  -0.733187)
  18:       887.58    9.712307  ( -1.292609   1.296014   2.522264)
  19:       931.73   26.103496  ( -4.634112   0.586964   2.069776)
  20:      1004.86    2.925095  ( -0.033803  -1.675375   0.342158)
  21:      1017.58   83.870828  (  5.162011   7.337711  -1.839148)
  22:      1039.08    6.133534  (  0.256468   1.688910   1.793137)
  23:      1111.47   76.891169  ( -4.563122  -5.162376  -5.423925)
  24:      1145.80    9.349444  ( -1.205253   0.194070  -2.803417)
  25:      1172.38    5.743276  (  0.112370   0.068484  -2.392898)
  26:      1203.62   40.204598  (  3.607646   1.462585   5.005031)
  27:      1242.82   39.758753  ( -2.442756  -3.496989  -4.643572)
  28:      1250.87    1.185094  ( -0.634909  -0.652201   0.597175)
  29:      1258.21    8.815532  (  1.346731   2.517736   0.814159)
  30:      1265.49   11.313592  (  2.242255   0.097205   2.505282)
  31:      1419.98   30.096460  (  0.750890   0.044080  -5.434214)
  32:      1459.36   53.701391  ( -2.696914  -2.172463   6.458208)
  33:      1479.80   10.176414  (  1.438893   1.457192  -2.445934)
  34:      1489.29   27.861414  (  1.706049   3.942186  -3.067569)
  35:      1621.55   72.509824  ( -6.967948   3.693802   3.211440)
  36:      2374.96  120.434773  (  3.291807   2.693265 -10.116576)
  37:      3006.38   17.181453  (  2.190337   2.684978   2.274812)
  38:      3036.00    4.192135  (  1.292353  -1.573593   0.213923)
  39:      3175.88    5.746148  (  0.727054   2.236316  -0.465222)
  40:      3183.16    6.235041  ( -2.227877  -1.107804   0.210654)
  41:      3282.41    8.973748  ( -1.150179  -0.565062  -2.707682)
  42:      3502.20  121.010860  (  8.668832  -5.197571  -4.341368)
  43:      3613.93  135.211340  (  3.261404   0.619000  11.144121)
  44:      3857.75   92.260539  ( -0.127276  -0.323105  -9.598955)

--------------------------
THERMOCHEMISTRY AT 298.15K
--------------------------

Temperature         ... 298.15 K
Pressure            ... 1.00 atm
Total Mass          ... 98.12 AMU

Throughout the following assumptions are being made:
  (1) The electronic state is orbitally nondegenerate
  (2) There are no thermally accessible electronically excited states
  (3) Hindered rotations indicated by low frequency modes) are not
      treated as such but are treated as vibrations and this may
      case some error
  (4) All equations used are the standard statistical mechanics
      equations for an ideal gas
  (5) All vibrations are strinctly harmonic

------------
INNER ENERGY
------------

The inner energy is: U= E(el) + E(ZPE) + E(vib) + E(rot) + E(trans)
    E(el)   - is the total energy from the electronic structure calculation
              = E(kin-el) + E(nuc-el) + E(el-el) + E(nuc-nuc)
    E(ZPE)  - the the zero temperature vibrational energy from the frequency calculation
    E(vib)  - the the finite temperature correction to E(ZPE) due to population
              of excietd vibrational states
    E(rot)  - is the rotational thermal energy
    E(trans)- is the translational thermal energy

Summary of contributions to the inner energy U:
Electronic energy                ...   -324.70633040 Eh
Zero point energy                ...      0.12731494 Eh      79.89 kcal/mol
Thermal vibrational correction   ...      0.00506316 Eh       3.18 kcal/mol
Thermal rotational correction    ...      0.00141627 Eh       0.89 kcal/mol
Thermal translational correction ...      0.00141627 Eh       0.89 kcal/mol
-----------------------------------------------------------------------
Total thermal energy                   -324.57111976 Eh

Summary of corrections to the electronic energy:
(perhaps to be used in another calculation)
Total thermal correction                  0.00789570 Eh       4.95 kcal/mol
Non-thermal (ZPE) correction              0.12731494 Eh      79.89 kcal/mol
-----------------------------------------------------------------------
Total correction                          0.13521065 Eh      84.85 kcal/mol

--------
ENTHALPY
--------

The enthalpy is H = U + kB*T
                kB is Boltzmann's constant
Total free energy                 ...   -324.57111976 Eh
Thermal Enthalpy correction       ...      0.00094421 Eh       0.59 kcal/mol
-----------------------------------------------------------------------
Total Enthalpy                    ...   -324.57017555 Eh

-------
ENTROPY
-------

The entropy contributions are T*S = T*(S(el)+S(vib)+S(rot)+S(trans)
     S(el)   - electronic entropy
     S(vib)  - vibrational entropy
     S(rot)  - rotational entropy
     S(trans)- translational entropy
The entropies will be listed as mutliplied by the temperature to get
units of energy

Electronic entropy                ...      0.00000000 Eh      0.00 kcal/mol
Vibrational entropy               ...      0.00998855 Eh      6.27 kcal/mol
Rotational entropy                ...      0.01226078 Eh      7.69 kcal/mol
Translational entropy             ...      0.01884443 Eh     11.83 kcal/mol
-----------------------------------------------------------------------
Final entropy term                ...      0.04109377 Eh     25.79 kcal/mol

CAUTION: The rotational entropy is not quite correctly treated here
         because it includes a symmetry number that is not yet correctly
         implemented in ORCA!
For a nonlinear molecule the correct rotational entropy is:
    S(rot) = R*(ln(qrot/sn)+1.5)
    R    = 8.31441 J/mol/K = 1.987191683e-3 kcal/mol/K
    qrot = 291922.2542737
    sn is the rotational symmetry number. We have assumed 3 here
       if it is different for your molecule then you should correct
       the printed rotational entropy by manually evaluating the equation
       as given above

For convenience we print out the resulting values for sn=1 - 12:
 sn= 1  qrot/sn=  291922.2543 T*S(rot)=     8.34 kcal/mol T*S(tot)=    26.44 kcal/mol
 sn= 2  qrot/sn=  145961.1271 T*S(rot)=     7.93 kcal/mol T*S(tot)=    26.03 kcal/mol
 sn= 3  qrot/sn=   97307.4181 T*S(rot)=     7.69 kcal/mol T*S(tot)=    25.79 kcal/mol
 sn= 4  qrot/sn=   72980.5636 T*S(rot)=     7.52 kcal/mol T*S(tot)=    25.62 kcal/mol
 sn= 5  qrot/sn=   58384.4509 T*S(rot)=     7.39 kcal/mol T*S(tot)=    25.48 kcal/mol
 sn= 6  qrot/sn=   48653.7090 T*S(rot)=     7.28 kcal/mol T*S(tot)=    25.38 kcal/mol
 sn= 7  qrot/sn=   41703.1792 T*S(rot)=     7.19 kcal/mol T*S(tot)=    25.28 kcal/mol
 sn= 8  qrot/sn=   36490.2818 T*S(rot)=     7.11 kcal/mol T*S(tot)=    25.21 kcal/mol
 sn= 9  qrot/sn=   32435.8060 T*S(rot)=     7.04 kcal/mol T*S(tot)=    25.14 kcal/mol
 sn=10  qrot/sn=   29192.2254 T*S(rot)=     6.98 kcal/mol T*S(tot)=    25.07 kcal/mol
 sn=11  qrot/sn=   26538.3868 T*S(rot)=     6.92 kcal/mol T*S(tot)=    25.02 kcal/mol
 sn=12  qrot/sn=   24326.8545 T*S(rot)=     6.87 kcal/mol T*S(tot)=    24.97 kcal/mol

-------------------
GIBBS FREE ENTHALPY
-------------------

The Gibbs free enthalpy is G = H - T*S

Total enthalpy                    ...   -324.57017555 Eh
Total entropy correction          ...     -0.04109377 Eh    -25.79 kcal/mol
-----------------------------------------------------------------------
Final Gibbs free enthalpy         ...   -324.61126931 Eh

For completeness - the Gibbs free enthalpy minus the electronic energy
G-E(el)                           ...      0.09506109 Eh     59.65 kcal/mol

                             ****ORCA TERMINATED NORMALLY****
TOTAL RUN TIME: 0 days 0 hours 27 minutes 15 seconds 254 msec
