                         Program Version 3.0.3 - RELEASE   -
|  1> ! NORI PBE0 def2-TZVP UseSym TightOPT Freq TightSCF Grid3 FinalGrid5 XYZFile
|  2> % pal
|  3>     nprocs 8
|  4> end
|  5> %method
|  6>     SymThresh 5.0e-2
|  7> end
|  8> % geom
|  9>     MaxIter 10
| 10> end
| 11> % maxcore 2000
| 12> % output
| 13>     printlevel mini
| 14>     print[ P_Basis ] 0
| 15>     print[ P_SCFInfo ] 1
| 16>     print[ P_SCFIterInfo ] 1
| 17>     print[ P_OrbEn ] 0
| 18>     print[ P_Cartesian ] 0
| 19> end
| 20> % elprop
| 21>     Dipole false
| 22> end
| 23> *xyz 1 1
| 24>  O        1.3264733063    -3.5286224444     1.3427420953
| 25>  C        2.2110789132    -3.3270905327     0.2802287505
| 26>  C        3.0369759983    -2.1037909912     0.6346159043
| 27>  C        4.1308635831    -1.7822654396    -0.3574152089
| 28>  N        5.2242790483    -2.7847040549    -0.3143213257
| 29>  C        6.5882806677    -2.4682629488    -0.7793876239
| 30>  C        6.3320407938    -2.6718301954     0.6554227478
| 31>  H        0.6898805753    -4.2122529567     1.1171346045
| 32>  H        2.8580118181    -4.2128651455     0.1373057468
| 33>  H        1.6854260504    -3.1554348666    -0.6697296936
| 34>  H        2.3713606880    -1.2385809369     0.6880385083
| 35>  H        3.4546116839    -2.2302767586     1.6387308282
| 36>  H        3.7659425818    -1.7637703638    -1.3874427549
| 37>  H        4.5918157669    -0.8162335051    -0.1450430115
| 38>  H        4.9139930001    -3.7338560512    -0.4968945083
| 39>  H        6.6956373197    -1.4603664722    -1.1589592004
| 40>  H        7.0683024121    -3.2493612511    -1.3547106143
| 41>  H        6.2555143877    -1.8099368527     1.3059135656
| 42>  H        6.6259314051    -3.6014182326     1.1250211900
| 43> *
| 44>
| 45>                          ****END OF INPUT****
 Total Charge           Charge          ....    1
 Multiplicity           Mult            ....    1
 Number of Electrons    NEL             ....   56
FINAL SINGLE POINT ENERGY      -327.186361421361
FINAL SINGLE POINT ENERGY      -327.186363700208
FINAL SINGLE POINT ENERGY      -327.186366183425

CARTESIAN COORDINATES (ANGSTROEM)
---------------------------------
  O      0.010414    0.008785    3.053787
  C      0.213120   -0.632826    1.829383
  C     -0.857414   -0.110641    0.888176
  C     -0.727908   -0.603947   -0.534897
  N      0.440632    0.002685   -1.220030
  C      0.515406    0.098784   -2.691240
  C      0.338881    1.317345   -1.884723
  H      0.573637   -0.379937    3.728384
  H      1.224415   -0.416041    1.438193
  H      0.128411   -1.725111    1.913943
  H     -1.834133   -0.426242    1.263234
  H     -0.858833    0.983754    0.915715
  H     -0.595035   -1.687336   -0.590440
  H     -1.602281   -0.339288   -1.131752
  H      1.324548   -0.170486   -0.751405
  H     -0.340149   -0.327981   -3.198812
  H      1.484932   -0.127354   -3.115684
  H     -0.643491    1.765958   -1.811443
  H      1.179836    1.979231   -1.722991

FINAL SINGLE POINT ENERGY      -327.186366945531
                    ***********************HURRAY********************
 Multiplicity           Mult            ....    1
 Number of Electrons    NEL             ....   56
 Basis Dimension        Dim             ....  289
FINAL SINGLE POINT ENERGY      -327.186367711217

VIBRATIONAL FREQUENCIES
-----------------------

   0:         0.00 cm**-1
   1:         0.00 cm**-1
   2:         0.00 cm**-1
   3:         0.00 cm**-1
   4:         0.00 cm**-1
   5:         0.00 cm**-1
   6:        60.19 cm**-1
   7:        69.02 cm**-1
   8:       109.86 cm**-1
   9:       216.92 cm**-1
  10:       281.19 cm**-1
  11:       292.07 cm**-1
  12:       335.98 cm**-1
  13:       402.11 cm**-1
  14:       541.83 cm**-1
  15:       736.75 cm**-1
  16:       785.83 cm**-1
  17:       829.97 cm**-1
  18:       869.97 cm**-1
  19:       882.82 cm**-1
  20:       945.85 cm**-1
  21:       988.61 cm**-1
  22:      1034.12 cm**-1
  23:      1075.86 cm**-1
  24:      1126.75 cm**-1
  25:      1138.01 cm**-1
  26:      1150.34 cm**-1
  27:      1155.47 cm**-1
  28:      1172.49 cm**-1
  29:      1179.78 cm**-1
  30:      1215.55 cm**-1
  31:      1235.59 cm**-1
  32:      1265.16 cm**-1
  33:      1275.85 cm**-1
  34:      1316.53 cm**-1
  35:      1329.71 cm**-1
  36:      1363.13 cm**-1
  37:      1396.32 cm**-1
  38:      1456.46 cm**-1
  39:      1469.80 cm**-1
  40:      1474.67 cm**-1
  41:      1477.73 cm**-1
  42:      1489.21 cm**-1
  43:      1515.01 cm**-1
  44:      1520.56 cm**-1
  45:      2925.78 cm**-1
  46:      3020.30 cm**-1
  47:      3067.23 cm**-1
  48:      3083.58 cm**-1
  49:      3120.16 cm**-1
  50:      3140.93 cm**-1
  51:      3172.56 cm**-1
  52:      3174.38 cm**-1
  53:      3270.02 cm**-1
  54:      3280.17 cm**-1
  55:      3539.83 cm**-1
  56:      3868.13 cm**-1

IR SPECTRUM
-----------

 Mode    freq (cm**-1)   T**2         TX         TY         TZ
-------------------------------------------------------------------
   6:        60.19    2.101087  ( -0.104609  -1.177394   0.838979)
   7:        69.02    9.650316  ( -2.320657  -1.177261   1.696739)
   8:       109.86    1.677026  (  0.440669   0.788750   0.927745)
   9:       216.92    0.346072  ( -0.195896  -0.356125   0.425290)
  10:       281.19    2.511194  (  0.478889   1.389038   0.593659)
  11:       292.07  125.709310  ( -8.034904  -7.384485   2.572745)
  12:       335.98   12.086532  ( -0.120874   0.005024   3.474464)
  13:       402.11    3.476169  (  0.654869  -0.087781  -1.743448)
  14:       541.83    5.339401  (  0.084341  -0.492329  -2.256081)
  15:       736.75    2.810723  ( -0.143864   1.344255  -0.991465)
  16:       785.83    1.724926  (  0.898021  -0.215115   0.933921)
  17:       829.97    6.330417  (  1.194788  -1.501446   1.627440)
  18:       869.97    6.804765  (  0.433484  -0.050705  -2.571825)
  19:       882.82    4.748323  ( -0.750988   1.165497  -1.681058)
  20:       945.85   20.471181  (  0.907697  -3.229274  -3.036290)
  21:       988.61   41.021090  ( -0.697979  -2.009008   6.041341)
  22:      1034.12   14.123262  ( -1.521746  -3.408981   0.431736)
  23:      1075.86   40.139631  (  1.765540  -0.028422  -6.084545)
  24:      1126.75   69.534003  (  1.753216  -2.507558  -7.757086)
  25:      1138.01   18.551064  (  0.332588   3.062186   3.010559)
  26:      1150.34    7.485091  ( -0.616624  -0.605855  -2.595728)
  27:      1155.47    4.032567  (  1.276077  -1.329196  -0.798394)
  28:      1172.49    1.363052  ( -0.110459  -1.086855   0.411822)
  29:      1179.78    1.016218  (  0.348378   0.045520  -0.944870)
  30:      1215.55   10.030653  (  1.048986  -2.029399  -2.193586)
  31:      1235.59    6.431752  (  0.695780  -0.791433  -2.306789)
  32:      1265.16   46.974888  (  2.247804  -2.450052  -5.993289)
  33:      1275.85   12.119898  (  0.785725  -3.391485  -0.019028)
  34:      1316.53    4.197765  (  1.670669   0.947445   0.713428)
  35:      1329.71    7.763894  ( -1.911239  -1.085192  -1.712722)
  36:      1363.13    6.791719  (  1.325856  -1.764701  -1.385517)
  37:      1396.32    1.909797  (  0.148528  -0.505446  -1.277600)
  38:      1456.46   48.236194  (  2.163716   3.774601  -5.413587)
  39:      1469.80    7.412549  (  1.215227   0.455862  -2.393316)
  40:      1474.67   10.456134  (  1.938779  -2.352846  -1.077676)
  41:      1477.73   28.051278  ( -0.061801   2.923338   4.416056)
  42:      1489.21   13.569936  (  1.295633  -0.685419   3.379567)
  43:      1515.01    1.544635  ( -0.439538   0.643782  -0.967981)
  44:      1520.56    6.487146  ( -2.191297  -1.199071   0.497586)
  45:      2925.78  111.569622  (  7.730833  -0.140962  -7.196108)
  46:      3020.30   28.076942  (  0.882513   5.213926   0.336289)
  47:      3067.23    6.683316  ( -0.542516   2.305949  -1.035178)
  48:      3083.58    2.897200  ( -0.237347  -1.146271  -1.235690)
  49:      3120.16    3.081847  (  0.816557   1.554001   0.012705)
  50:      3140.93    2.485191  (  0.210033  -1.077917   1.131005)
  51:      3172.56    3.763229  (  0.184931  -1.720482  -0.876910)
  52:      3174.38    1.853981  ( -0.198488  -0.571971   1.219603)
  53:      3270.02    0.011066  (  0.079254  -0.063233  -0.028041)
  54:      3280.17   11.056214  (  3.295819   0.384024   0.215209)
  55:      3539.83   82.630923  (  6.466324  -2.390238   5.924891)
  56:      3868.13   86.866689  (  3.727110  -1.861758   8.337218)

--------------------------
THERMOCHEMISTRY AT 298.15K
--------------------------

Temperature         ... 298.15 K
Pressure            ... 1.00 atm
Total Mass          ... 102.16 AMU

Throughout the following assumptions are being made:
  (1) The electronic state is orbitally nondegenerate
  (2) There are no thermally accessible electronically excited states
  (3) Hindered rotations indicated by low frequency modes) are not
      treated as such but are treated as vibrations and this may
      case some error
  (4) All equations used are the standard statistical mechanics
      equations for an ideal gas
  (5) All vibrations are strinctly harmonic

------------
INNER ENERGY
------------

The inner energy is: U= E(el) + E(ZPE) + E(vib) + E(rot) + E(trans)
    E(el)   - is the total energy from the electronic structure calculation
              = E(kin-el) + E(nuc-el) + E(el-el) + E(nuc-nuc)
    E(ZPE)  - the the zero temperature vibrational energy from the frequency calculation
    E(vib)  - the the finite temperature correction to E(ZPE) due to population
              of excietd vibrational states
    E(rot)  - is the rotational thermal energy
    E(trans)- is the translational thermal energy

Summary of contributions to the inner energy U:
Electronic energy                ...   -327.18636771 Eh
Zero point energy                ...      0.17506839 Eh     109.86 kcal/mol
Thermal vibrational correction   ...      0.00537697 Eh       3.37 kcal/mol
Thermal rotational correction    ...      0.00141627 Eh       0.89 kcal/mol
Thermal translational correction ...      0.00141627 Eh       0.89 kcal/mol
-----------------------------------------------------------------------
Total thermal energy                   -327.00308981 Eh

Summary of corrections to the electronic energy:
(perhaps to be used in another calculation)
Total thermal correction                  0.00820952 Eh       5.15 kcal/mol
Non-thermal (ZPE) correction              0.17506839 Eh     109.86 kcal/mol
-----------------------------------------------------------------------
Total correction                          0.18327790 Eh     115.01 kcal/mol

--------
ENTHALPY
--------

The enthalpy is H = U + kB*T
                kB is Boltzmann's constant
Total free energy                 ...   -327.00308981 Eh
Thermal Enthalpy correction       ...      0.00094421 Eh       0.59 kcal/mol
-----------------------------------------------------------------------
Total Enthalpy                    ...   -327.00214560 Eh

-------
ENTROPY
-------

The entropy contributions are T*S = T*(S(el)+S(vib)+S(rot)+S(trans)
     S(el)   - electronic entropy
     S(vib)  - vibrational entropy
     S(rot)  - rotational entropy
     S(trans)- translational entropy
The entropies will be listed as mutliplied by the temperature to get
units of energy

Electronic entropy                ...      0.00000000 Eh      0.00 kcal/mol
Vibrational entropy               ...      0.01025260 Eh      6.43 kcal/mol
Rotational entropy                ...      0.01226230 Eh      7.69 kcal/mol
Translational entropy             ...      0.01890147 Eh     11.86 kcal/mol
-----------------------------------------------------------------------
Final entropy term                ...      0.04141637 Eh     25.99 kcal/mol

CAUTION: The rotational entropy is not quite correctly treated here
         because it includes a symmetry number that is not yet correctly
         implemented in ORCA!
For a nonlinear molecule the correct rotational entropy is:
    S(rot) = R*(ln(qrot/sn)+1.5)
    R    = 8.31441 J/mol/K = 1.987191683e-3 kcal/mol/K
    qrot = 292390.5999941
    sn is the rotational symmetry number. We have assumed 3 here
       if it is different for your molecule then you should correct
       the printed rotational entropy by manually evaluating the equation
       as given above

For convenience we print out the resulting values for sn=1 - 12:
 sn= 1  qrot/sn=  292390.6000 T*S(rot)=     8.35 kcal/mol T*S(tot)=    26.64 kcal/mol
 sn= 2  qrot/sn=  146195.3000 T*S(rot)=     7.93 kcal/mol T*S(tot)=    26.23 kcal/mol
 sn= 3  qrot/sn=   97463.5333 T*S(rot)=     7.69 kcal/mol T*S(tot)=    25.99 kcal/mol
 sn= 4  qrot/sn=   73097.6500 T*S(rot)=     7.52 kcal/mol T*S(tot)=    25.82 kcal/mol
 sn= 5  qrot/sn=   58478.1200 T*S(rot)=     7.39 kcal/mol T*S(tot)=    25.69 kcal/mol
 sn= 6  qrot/sn=   48731.7667 T*S(rot)=     7.28 kcal/mol T*S(tot)=    25.58 kcal/mol
 sn= 7  qrot/sn=   41770.0857 T*S(rot)=     7.19 kcal/mol T*S(tot)=    25.49 kcal/mol
 sn= 8  qrot/sn=   36548.8250 T*S(rot)=     7.11 kcal/mol T*S(tot)=    25.41 kcal/mol
 sn= 9  qrot/sn=   32487.8444 T*S(rot)=     7.04 kcal/mol T*S(tot)=    25.34 kcal/mol
 sn=10  qrot/sn=   29239.0600 T*S(rot)=     6.98 kcal/mol T*S(tot)=    25.28 kcal/mol
 sn=11  qrot/sn=   26580.9636 T*S(rot)=     6.92 kcal/mol T*S(tot)=    25.22 kcal/mol
 sn=12  qrot/sn=   24365.8833 T*S(rot)=     6.87 kcal/mol T*S(tot)=    25.17 kcal/mol

-------------------
GIBBS FREE ENTHALPY
-------------------

The Gibbs free enthalpy is G = H - T*S

Total enthalpy                    ...   -327.00214560 Eh
Total entropy correction          ...     -0.04141637 Eh    -25.99 kcal/mol
-----------------------------------------------------------------------
Final Gibbs free enthalpy         ...   -327.04356197 Eh

For completeness - the Gibbs free enthalpy minus the electronic energy
G-E(el)                           ...      0.14280574 Eh     89.61 kcal/mol

                             ****ORCA TERMINATED NORMALLY****
TOTAL RUN TIME: 0 days 0 hours 43 minutes 42 seconds 422 msec
