                         Program Version 3.0.3 - RELEASE   -
|  1> ! NORI PBE0 def2-TZVP UseSym TightOPT Freq TightSCF Grid3 FinalGrid5 XYZFile
|  2> % pal
|  3>     nprocs 8
|  4> end
|  5> %method
|  6>     SymThresh 5.0e-2
|  7> end
|  8> % geom
|  9>     MaxIter 10
| 10> end
| 11> % maxcore 2000
| 12> % output
| 13>     printlevel mini
| 14>     print[ P_Basis ] 0
| 15>     print[ P_SCFInfo ] 1
| 16>     print[ P_SCFIterInfo ] 1
| 17>     print[ P_OrbEn ] 0
| 18>     print[ P_Cartesian ] 0
| 19> end
| 20> % elprop
| 21>     Dipole false
| 22> end
| 23> *xyz 1 1
| 24>  O        2.5340458033    -0.7406577725    -0.7482365673
| 25>  C        2.0482496330     0.1848459862    -0.1648956372
| 26>  C        2.8891428693     1.2050250085     0.5726657278
| 27>  C        4.3478447495     0.8122844830     0.5034392488
| 28>  N        5.2255611627     1.8439375724     1.0953410115
| 29>  C        6.6586531564     1.9231616489     0.7419447167
| 30>  C        5.7349681868     2.9778805994     0.2948977918
| 31>  H        0.9559283333     0.3545852455    -0.1360313624
| 32>  H        2.5241270680     1.2696679608     1.6044231216
| 33>  H        2.7024828684     2.1851092934     0.1169633933
| 34>  H        4.6663746262     0.6676248468    -0.5297087641
| 35>  H        4.5368356707    -0.1211808770     1.0353946224
| 36>  H        5.0127814242     2.0661284530     2.0630796908
| 37>  H        7.3227403782     2.1114853043     1.5755451008
| 38>  H        6.9752174392     1.1635785448     0.0386779942
| 39>  H        5.3895262924     2.9749678412    -0.7309562453
| 40>  H        5.7290303383     3.9344358614     0.8013261565
| 41> *
| 42>
| 43>                          ****END OF INPUT****
 Total Charge           Charge          ....    1
 Multiplicity           Mult            ....    1
 Number of Electrons    NEL             ....   54
FINAL SINGLE POINT ENERGY      -325.973401636436
FINAL SINGLE POINT ENERGY      -325.973400313632
FINAL SINGLE POINT ENERGY      -325.973403181668

CARTESIAN COORDINATES (ANGSTROEM)
---------------------------------
  O      0.007541    0.005373    2.745125
  C     -0.546539    0.896967    2.169992
  C     -0.486399    1.045897    0.664226
  C      0.408096   -0.024369    0.079269
  N      0.403016    0.000287   -1.398601
  C      0.794177   -1.189643   -2.183810
  C     -0.607489   -0.743416   -2.181362
  H     -1.140024    1.662288    2.703166
  H     -0.131101    2.057080    0.433328
  H     -1.511845    0.983113    0.279852
  H      0.084760   -1.018860    0.389705
  H      1.442668    0.097028    0.403833
  H      0.686487    0.888519   -1.801194
  H      1.420276   -0.982620   -3.042071
  H      1.081426   -2.036407   -1.573699
  H     -1.327519   -1.272103   -1.569780
  H     -1.002515   -0.214085   -3.038789

FINAL SINGLE POINT ENERGY      -325.973403641217
                    ***********************HURRAY********************
 Multiplicity           Mult            ....    1
 Number of Electrons    NEL             ....   54
 Basis Dimension        Dim             ....  277
FINAL SINGLE POINT ENERGY      -325.973404286106

VIBRATIONAL FREQUENCIES
-----------------------

   0:         0.00 cm**-1
   1:         0.00 cm**-1
   2:         0.00 cm**-1
   3:         0.00 cm**-1
   4:         0.00 cm**-1
   5:         0.00 cm**-1
   6:        46.13 cm**-1
   7:        95.44 cm**-1
   8:       145.23 cm**-1
   9:       195.21 cm**-1
  10:       253.87 cm**-1
  11:       374.61 cm**-1
  12:       413.30 cm**-1
  13:       666.79 cm**-1
  14:       691.10 cm**-1
  15:       791.63 cm**-1
  16:       831.65 cm**-1
  17:       876.31 cm**-1
  18:       891.45 cm**-1
  19:       910.30 cm**-1
  20:       954.17 cm**-1
  21:      1020.71 cm**-1
  22:      1086.92 cm**-1
  23:      1107.73 cm**-1
  24:      1153.26 cm**-1
  25:      1155.60 cm**-1
  26:      1174.77 cm**-1
  27:      1179.82 cm**-1
  28:      1217.12 cm**-1
  29:      1263.59 cm**-1
  30:      1277.94 cm**-1
  31:      1314.63 cm**-1
  32:      1335.50 cm**-1
  33:      1394.52 cm**-1
  34:      1406.80 cm**-1
  35:      1456.19 cm**-1
  36:      1466.45 cm**-1
  37:      1474.68 cm**-1
  38:      1484.39 cm**-1
  39:      1519.98 cm**-1
  40:      1843.31 cm**-1
  41:      2979.78 cm**-1
  42:      3045.29 cm**-1
  43:      3086.24 cm**-1
  44:      3102.60 cm**-1
  45:      3156.54 cm**-1
  46:      3171.93 cm**-1
  47:      3174.09 cm**-1
  48:      3270.13 cm**-1
  49:      3280.43 cm**-1
  50:      3539.11 cm**-1

IR SPECTRUM
-----------

 Mode    freq (cm**-1)   T**2         TX         TY         TZ
-------------------------------------------------------------------
   6:        46.13    2.827990  ( -0.973338  -1.313169  -0.395211)
   7:        95.44    0.566383  (  0.308771   0.685312   0.037280)
   8:       145.23    5.537377  ( -0.569703   0.901933   2.097458)
   9:       195.21    4.365729  (  1.805752   1.043539   0.126547)
  10:       253.87   12.486816  (  0.598752  -0.889701  -3.367008)
  11:       374.61    4.063070  ( -0.573142  -0.478357   1.872366)
  12:       413.30    0.155317  ( -0.164238   0.255196   0.251431)
  13:       666.79    6.797065  (  1.468921   0.511555  -2.092283)
  14:       691.10    7.098961  ( -1.653931  -1.653204  -1.276868)
  15:       791.63    1.545362  (  0.036638   0.326246  -1.198992)
  16:       831.65    8.005442  ( -1.073339  -1.996485  -1.693350)
  17:       876.31    7.778198  ( -1.225394  -1.279699  -2.153829)
  18:       891.45   23.962961  (  0.791452  -1.408690  -4.620839)
  19:       910.30   18.260855  ( -1.550702   0.180616   3.977884)
  20:       954.17   15.800592  (  3.421075  -1.914154   0.657915)
  21:      1020.71   38.658682  ( -1.253002  -4.167471  -4.440817)
  22:      1086.92   13.001823  (  0.202300  -1.381200  -3.324633)
  23:      1107.73    7.844187  (  1.775301  -0.650615  -2.066203)
  24:      1153.26    3.670008  ( -1.206745  -0.665113   1.330939)
  25:      1155.60    8.287915  ( -2.695555   0.827194   0.581073)
  26:      1174.77    1.671218  (  1.052496  -0.388462  -0.642314)
  27:      1179.82    0.633165  (  0.616295  -0.157717   0.477987)
  28:      1217.12    8.363928  ( -2.793066   0.635432   0.398668)
  29:      1263.59    0.889623  (  0.333792   0.697562   0.540012)
  30:      1277.94   14.633250  (  0.136618   2.777836   2.626445)
  31:      1314.63   36.516813  (  0.679641   0.369002  -5.993224)
  32:      1335.50    2.918865  (  0.988231   1.275841   0.560799)
  33:      1394.52   31.000558  (  0.205696  -0.982479  -5.476585)
  34:      1406.80    9.594703  ( -1.824001   2.497205  -0.178012)
  35:      1456.19   20.976518  ( -1.080968  -0.225624  -4.444898)
  36:      1466.45   18.049678  (  0.775118   2.581243   3.284213)
  37:      1474.68   27.696546  ( -3.985042   3.401242  -0.497538)
  38:      1484.39    4.733682  (  1.455174   1.210698  -1.072549)
  39:      1519.98    7.294024  (  0.437759  -0.556648   2.606249)
  40:      1843.31  140.326002  (  4.208637  -6.855381   8.695811)
  41:      2979.78   48.903386  ( -3.523397   4.680441   3.818708)
  42:      3045.29    3.102348  (  1.096437  -1.177348  -0.716955)
  43:      3086.24    0.694985  ( -0.581480  -0.594550   0.058101)
  44:      3102.60    1.300669  (  0.244546  -0.502231  -0.994299)
  45:      3156.54    0.650011  ( -0.236547   0.234733   0.734137)
  46:      3171.93    3.929763  (  1.908966  -0.343753   0.409200)
  47:      3174.09    2.658276  ( -0.413696   1.196512   1.027370)
  48:      3270.13    0.015894  (  0.116434   0.028075  -0.039350)
  49:      3280.43   12.243575  ( -0.558434  -2.103874   2.739606)
  50:      3539.11   80.779446  (  2.879854   8.097666  -2.629389)

--------------------------
THERMOCHEMISTRY AT 298.15K
--------------------------

Temperature         ... 298.15 K
Pressure            ... 1.00 atm
Total Mass          ... 100.14 AMU

Throughout the following assumptions are being made:
  (1) The electronic state is orbitally nondegenerate
  (2) There are no thermally accessible electronically excited states
  (3) Hindered rotations indicated by low frequency modes) are not
      treated as such but are treated as vibrations and this may
      case some error
  (4) All equations used are the standard statistical mechanics
      equations for an ideal gas
  (5) All vibrations are strinctly harmonic

------------
INNER ENERGY
------------

The inner energy is: U= E(el) + E(ZPE) + E(vib) + E(rot) + E(trans)
    E(el)   - is the total energy from the electronic structure calculation
              = E(kin-el) + E(nuc-el) + E(el-el) + E(nuc-nuc)
    E(ZPE)  - the the zero temperature vibrational energy from the frequency calculation
    E(vib)  - the the finite temperature correction to E(ZPE) due to population
              of excietd vibrational states
    E(rot)  - is the rotational thermal energy
    E(trans)- is the translational thermal energy

Summary of contributions to the inner energy U:
Electronic energy                ...   -325.97340429 Eh
Zero point energy                ...      0.15099068 Eh      94.75 kcal/mol
Thermal vibrational correction   ...      0.00478869 Eh       3.00 kcal/mol
Thermal rotational correction    ...      0.00141627 Eh       0.89 kcal/mol
Thermal translational correction ...      0.00141627 Eh       0.89 kcal/mol
-----------------------------------------------------------------------
Total thermal energy                   -325.81479238 Eh

Summary of corrections to the electronic energy:
(perhaps to be used in another calculation)
Total thermal correction                  0.00762123 Eh       4.78 kcal/mol
Non-thermal (ZPE) correction              0.15099068 Eh      94.75 kcal/mol
-----------------------------------------------------------------------
Total correction                          0.15861190 Eh      99.53 kcal/mol

--------
ENTHALPY
--------

The enthalpy is H = U + kB*T
                kB is Boltzmann's constant
Total free energy                 ...   -325.81479238 Eh
Thermal Enthalpy correction       ...      0.00094421 Eh       0.59 kcal/mol
-----------------------------------------------------------------------
Total Enthalpy                    ...   -325.81384817 Eh

-------
ENTROPY
-------

The entropy contributions are T*S = T*(S(el)+S(vib)+S(rot)+S(trans)
     S(el)   - electronic entropy
     S(vib)  - vibrational entropy
     S(rot)  - rotational entropy
     S(trans)- translational entropy
The entropies will be listed as mutliplied by the temperature to get
units of energy

Electronic entropy                ...      0.00000000 Eh      0.00 kcal/mol
Vibrational entropy               ...      0.00920578 Eh      5.78 kcal/mol
Rotational entropy                ...      0.01215965 Eh      7.63 kcal/mol
Translational entropy             ...      0.01887324 Eh     11.84 kcal/mol
-----------------------------------------------------------------------
Final entropy term                ...      0.04023866 Eh     25.25 kcal/mol

CAUTION: The rotational entropy is not quite correctly treated here
         because it includes a symmetry number that is not yet correctly
         implemented in ORCA!
For a nonlinear molecule the correct rotational entropy is:
    S(rot) = R*(ln(qrot/sn)+1.5)
    R    = 8.31441 J/mol/K = 1.987191683e-3 kcal/mol/K
    qrot = 262269.0115935
    sn is the rotational symmetry number. We have assumed 3 here
       if it is different for your molecule then you should correct
       the printed rotational entropy by manually evaluating the equation
       as given above

For convenience we print out the resulting values for sn=1 - 12:
 sn= 1  qrot/sn=  262269.0116 T*S(rot)=     8.28 kcal/mol T*S(tot)=    25.90 kcal/mol
 sn= 2  qrot/sn=  131134.5058 T*S(rot)=     7.87 kcal/mol T*S(tot)=    25.49 kcal/mol
 sn= 3  qrot/sn=   87423.0039 T*S(rot)=     7.63 kcal/mol T*S(tot)=    25.25 kcal/mol
 sn= 4  qrot/sn=   65567.2529 T*S(rot)=     7.46 kcal/mol T*S(tot)=    25.08 kcal/mol
 sn= 5  qrot/sn=   52453.8023 T*S(rot)=     7.33 kcal/mol T*S(tot)=    24.95 kcal/mol
 sn= 6  qrot/sn=   43711.5019 T*S(rot)=     7.22 kcal/mol T*S(tot)=    24.84 kcal/mol
 sn= 7  qrot/sn=   37467.0017 T*S(rot)=     7.13 kcal/mol T*S(tot)=    24.75 kcal/mol
 sn= 8  qrot/sn=   32783.6264 T*S(rot)=     7.05 kcal/mol T*S(tot)=    24.67 kcal/mol
 sn= 9  qrot/sn=   29141.0013 T*S(rot)=     6.98 kcal/mol T*S(tot)=    24.60 kcal/mol
 sn=10  qrot/sn=   26226.9012 T*S(rot)=     6.92 kcal/mol T*S(tot)=    24.54 kcal/mol
 sn=11  qrot/sn=   23842.6374 T*S(rot)=     6.86 kcal/mol T*S(tot)=    24.48 kcal/mol
 sn=12  qrot/sn=   21855.7510 T*S(rot)=     6.81 kcal/mol T*S(tot)=    24.43 kcal/mol

-------------------
GIBBS FREE ENTHALPY
-------------------

The Gibbs free enthalpy is G = H - T*S

Total enthalpy                    ...   -325.81384817 Eh
Total entropy correction          ...     -0.04023866 Eh    -25.25 kcal/mol
-----------------------------------------------------------------------
Final Gibbs free enthalpy         ...   -325.85408684 Eh

For completeness - the Gibbs free enthalpy minus the electronic energy
G-E(el)                           ...      0.11931745 Eh     74.87 kcal/mol

                             ****ORCA TERMINATED NORMALLY****
TOTAL RUN TIME: 0 days 0 hours 35 minutes 38 seconds 884 msec
