                         Program Version 3.0.3 - RELEASE   -
|  1> ! NORI PBE0 def2-TZVP UseSym TightOPT Freq TightSCF Grid3 FinalGrid5 XYZFile
|  2> % pal
|  3>     nprocs 8
|  4> end
|  5> %method
|  6>     SymThresh 5.0e-2
|  7> end
|  8> % geom
|  9>     MaxIter 10
| 10> end
| 11> % maxcore 2000
| 12> % output
| 13>     printlevel mini
| 14>     print[ P_Basis ] 0
| 15>     print[ P_SCFInfo ] 1
| 16>     print[ P_SCFIterInfo ] 1
| 17>     print[ P_OrbEn ] 0
| 18>     print[ P_Cartesian ] 0
| 19> end
| 20> % elprop
| 21>     Dipole false
| 22> end
| 23> *xyz 1 1
| 24>  O        1.4444739945    -2.6493673972     1.8004366565
| 25>  C        2.3409730527    -2.1803149391     0.8400892321
| 26>  C        3.5158718327    -1.6486669415     1.6382564434
| 27>  N        4.5779594681    -1.1135819593     0.7625857961
| 28>  C        5.8487422463    -0.5790116964     1.3956282804
| 29>  C        6.6766958452    -1.2468922704     0.2928337821
| 30>  C        5.4301645181    -2.0649341104    -0.0592791540
| 31>  H        0.6608054340    -3.0097602812     1.3761930360
| 32>  H        2.6745110751    -2.9772094421     0.1590341969
| 33>  H        1.9096453706    -1.3723517065     0.2285616536
| 34>  H        3.1901205395    -0.8435960011     2.3005174011
| 35>  H        3.9543126661    -2.4419639562     2.2461450483
| 36>  H        4.1773134219    -0.4010267824     0.1515173706
| 37>  H        5.8528247810     0.5054892857     1.4858067577
| 38>  H        5.9615045766    -1.0382621768     2.3764873198
| 39>  H        6.9709640486    -0.5571226692    -0.4967767034
| 40>  H        7.5462315507    -1.8106823723     0.6193291938
| 41>  H        5.3950235707    -3.0464562898     0.4112706802
| 42>  H        5.1146520074    -2.1332782938    -1.0981169914
| 43> *
| 44>
| 45>                          ****END OF INPUT****
 Total Charge           Charge          ....    1
 Multiplicity           Mult            ....    1
 Number of Electrons    NEL             ....   56
FINAL SINGLE POINT ENERGY      -327.197610244388
FINAL SINGLE POINT ENERGY      -327.197611604191
FINAL SINGLE POINT ENERGY      -327.197612415558

CARTESIAN COORDINATES (ANGSTROEM)
---------------------------------
  O      0.005602   -0.003579    3.025960
  C      0.203939    0.629174    1.798550
  C      0.189081   -0.496337    0.781939
  N      0.385190    0.001179   -0.595407
  C      0.350750   -0.991550   -1.742310
  C     -0.453857    0.007861   -2.579908
  C     -0.721823    0.780393   -1.284404
  H     -0.003120    0.644172    3.736138
  H     -0.590646    1.355310    1.572526
  H      1.168008    1.159414    1.755011
  H      0.987971   -1.209469    0.997172
  H     -0.764905   -1.025391    0.811452
  H      1.253233    0.536091   -0.635544
  H      1.342929   -1.291072   -2.073344
  H     -0.218344   -1.862924   -1.421366
  H      0.160530    0.562784   -3.287584
  H     -1.325672   -0.386923   -3.094266
  H     -1.666288    0.527940   -0.803899
  H     -0.564371    1.856482   -1.264340

FINAL SINGLE POINT ENERGY      -327.197612737028
                    ***********************HURRAY********************
 Multiplicity           Mult            ....    1
 Number of Electrons    NEL             ....   56
 Basis Dimension        Dim             ....  289
FINAL SINGLE POINT ENERGY      -327.197613286468

VIBRATIONAL FREQUENCIES
-----------------------

   0:         0.00 cm**-1
   1:         0.00 cm**-1
   2:         0.00 cm**-1
   3:         0.00 cm**-1
   4:         0.00 cm**-1
   5:         0.00 cm**-1
   6:        65.65 cm**-1
   7:       105.37 cm**-1
   8:       116.62 cm**-1
   9:       176.08 cm**-1
  10:       261.20 cm**-1
  11:       340.90 cm**-1
  12:       376.74 cm**-1
  13:       458.47 cm**-1
  14:       682.80 cm**-1
  15:       783.67 cm**-1
  16:       808.12 cm**-1
  17:       817.29 cm**-1
  18:       915.56 cm**-1
  19:       953.96 cm**-1
  20:       978.44 cm**-1
  21:      1009.99 cm**-1
  22:      1029.01 cm**-1
  23:      1065.78 cm**-1
  24:      1104.36 cm**-1
  25:      1119.88 cm**-1
  26:      1152.03 cm**-1
  27:      1188.20 cm**-1
  28:      1222.19 cm**-1
  29:      1228.64 cm**-1
  30:      1257.67 cm**-1
  31:      1291.62 cm**-1
  32:      1294.36 cm**-1
  33:      1305.51 cm**-1
  34:      1325.67 cm**-1
  35:      1333.56 cm**-1
  36:      1350.93 cm**-1
  37:      1376.89 cm**-1
  38:      1440.20 cm**-1
  39:      1477.07 cm**-1
  40:      1483.20 cm**-1
  41:      1486.64 cm**-1
  42:      1494.75 cm**-1
  43:      1515.72 cm**-1
  44:      1523.54 cm**-1
  45:      2983.96 cm**-1
  46:      3020.67 cm**-1
  47:      3089.51 cm**-1
  48:      3116.14 cm**-1
  49:      3118.72 cm**-1
  50:      3122.91 cm**-1
  51:      3149.87 cm**-1
  52:      3180.60 cm**-1
  53:      3188.27 cm**-1
  54:      3195.98 cm**-1
  55:      3471.20 cm**-1
  56:      3867.04 cm**-1

IR SPECTRUM
-----------

 Mode    freq (cm**-1)   T**2         TX         TY         TZ
-------------------------------------------------------------------
   6:        65.65   12.005053  (  3.453676  -0.095363   0.260921)
   7:       105.37    4.117152  (  1.959771   0.232765   0.471453)
   8:       116.62    1.265447  ( -0.448515   0.879348   0.539471)
   9:       176.08    0.245974  ( -0.299072  -0.319737  -0.233020)
  10:       261.20  124.432491  (-11.052215   1.053045  -1.082646)
  11:       340.90    8.637249  ( -0.354890   0.380311  -2.892519)
  12:       376.74    0.789127  ( -0.395498   0.698845   0.379900)
  13:       458.47    8.269033  ( -0.474820  -0.223496   2.827300)
  14:       682.80   11.193958  ( -1.538103  -0.840627   2.849832)
  15:       783.67    1.332775  ( -0.586122   0.925893   0.363259)
  16:       808.12    1.400643  ( -0.521892   1.023549   0.283933)
  17:       817.29    1.147936  ( -0.262873   0.167287  -1.025109)
  18:       915.56    4.413651  ( -1.693517   0.064820  -1.241552)
  19:       953.96    7.564658  (  0.372893  -2.139819  -1.687242)
  20:       978.44    3.972579  (  0.891990  -1.748459  -0.346154)
  21:      1009.99   20.692142  (  0.579134  -1.365720   4.300181)
  22:      1029.01   43.353159  ( -0.039269  -1.607060   6.385059)
  23:      1065.78    5.583351  ( -1.899650   1.356362  -0.367371)
  24:      1104.36   17.894856  (  0.860281   3.762609  -1.731341)
  25:      1119.88   16.908038  (  0.719230  -1.207132   3.864399)
  26:      1152.03   48.198479  ( -0.615331  -1.331181   6.785853)
  27:      1188.20    1.729205  (  0.720107  -0.491689   0.984323)
  28:      1222.19    1.153616  ( -0.689820   0.646782  -0.509350)
  29:      1228.64   10.772330  (  0.122955  -3.256303   0.392047)
  30:      1257.67   38.733306  (  1.442947   3.143413  -5.173989)
  31:      1291.62    3.597087  ( -0.955785   1.634250   0.113092)
  32:      1294.36    1.323860  (  0.239028   0.015025  -1.125389)
  33:      1305.51    1.379328  (  0.000629   0.040344   1.173755)
  34:      1325.67    4.872375  (  0.503366   1.689676   1.328154)
  35:      1333.56   12.376368  (  2.286175  -0.066298  -2.673083)
  36:      1350.93   16.223794  (  3.051970  -2.260584  -1.341280)
  37:      1376.89    8.544596  ( -0.494876   2.858511  -0.358617)
  38:      1440.20   35.876251  ( -1.151203   0.333560  -5.868536)
  39:      1477.07    2.980341  (  0.285264  -1.699858   0.097209)
  40:      1483.20   14.602213  ( -1.282921   3.083404   1.857134)
  41:      1486.64    3.946723  (  0.864950  -0.044584   1.787903)
  42:      1494.75    9.810918  (  0.743486   2.377628  -1.898692)
  43:      1515.72    3.507710  ( -1.036219  -1.172657   1.028998)
  44:      1523.54    3.553785  ( -0.163758  -1.789792  -0.568871)
  45:      2983.96   45.254929  (  2.149164   4.783165  -4.213948)
  46:      3020.67   27.246046  ( -4.834997   1.266191  -1.505193)
  47:      3089.51    1.062392  (  0.191162   0.872910   0.513690)
  48:      3116.14    1.762059  ( -0.555328   1.015014   0.650705)
  49:      3118.72    0.350773  (  0.280937  -0.251407   0.456773)
  50:      3122.91    1.854992  (  0.295726   0.495573  -1.233671)
  51:      3149.87    0.779991  (  0.786890   0.149101   0.372243)
  52:      3180.60    0.028729  ( -0.099067  -0.035520  -0.132863)
  53:      3188.27    0.652671  ( -0.358713   0.695104   0.202057)
  54:      3195.98    0.039787  (  0.147882   0.094875   0.094425)
  55:      3471.20   46.669163  ( -5.960473  -3.272613  -0.657213)
  56:      3867.04  109.675744  ( -0.479015   4.172067   9.593755)

--------------------------
THERMOCHEMISTRY AT 298.15K
--------------------------

Temperature         ... 298.15 K
Pressure            ... 1.00 atm
Total Mass          ... 102.16 AMU

Throughout the following assumptions are being made:
  (1) The electronic state is orbitally nondegenerate
  (2) There are no thermally accessible electronically excited states
  (3) Hindered rotations indicated by low frequency modes) are not
      treated as such but are treated as vibrations and this may
      case some error
  (4) All equations used are the standard statistical mechanics
      equations for an ideal gas
  (5) All vibrations are strinctly harmonic

------------
INNER ENERGY
------------

The inner energy is: U= E(el) + E(ZPE) + E(vib) + E(rot) + E(trans)
    E(el)   - is the total energy from the electronic structure calculation
              = E(kin-el) + E(nuc-el) + E(el-el) + E(nuc-nuc)
    E(ZPE)  - the the zero temperature vibrational energy from the frequency calculation
    E(vib)  - the the finite temperature correction to E(ZPE) due to population
              of excietd vibrational states
    E(rot)  - is the rotational thermal energy
    E(trans)- is the translational thermal energy

Summary of contributions to the inner energy U:
Electronic energy                ...   -327.19761329 Eh
Zero point energy                ...      0.17638291 Eh     110.68 kcal/mol
Thermal vibrational correction   ...      0.00508227 Eh       3.19 kcal/mol
Thermal rotational correction    ...      0.00141627 Eh       0.89 kcal/mol
Thermal translational correction ...      0.00141627 Eh       0.89 kcal/mol
-----------------------------------------------------------------------
Total thermal energy                   -327.01331557 Eh

Summary of corrections to the electronic energy:
(perhaps to be used in another calculation)
Total thermal correction                  0.00791481 Eh       4.97 kcal/mol
Non-thermal (ZPE) correction              0.17638291 Eh     110.68 kcal/mol
-----------------------------------------------------------------------
Total correction                          0.18429772 Eh     115.65 kcal/mol

--------
ENTHALPY
--------

The enthalpy is H = U + kB*T
                kB is Boltzmann's constant
Total free energy                 ...   -327.01331557 Eh
Thermal Enthalpy correction       ...      0.00094421 Eh       0.59 kcal/mol
-----------------------------------------------------------------------
Total Enthalpy                    ...   -327.01237136 Eh

-------
ENTROPY
-------

The entropy contributions are T*S = T*(S(el)+S(vib)+S(rot)+S(trans)
     S(el)   - electronic entropy
     S(vib)  - vibrational entropy
     S(rot)  - rotational entropy
     S(trans)- translational entropy
The entropies will be listed as mutliplied by the temperature to get
units of energy

Electronic entropy                ...      0.00000000 Eh      0.00 kcal/mol
Vibrational entropy               ...      0.00948137 Eh      5.95 kcal/mol
Rotational entropy                ...      0.01214165 Eh      7.62 kcal/mol
Translational entropy             ...      0.01890147 Eh     11.86 kcal/mol
-----------------------------------------------------------------------
Final entropy term                ...      0.04052449 Eh     25.43 kcal/mol

CAUTION: The rotational entropy is not quite correctly treated here
         because it includes a symmetry number that is not yet correctly
         implemented in ORCA!
For a nonlinear molecule the correct rotational entropy is:
    S(rot) = R*(ln(qrot/sn)+1.5)
    R    = 8.31441 J/mol/K = 1.987191683e-3 kcal/mol/K
    qrot = 257317.7997960
    sn is the rotational symmetry number. We have assumed 3 here
       if it is different for your molecule then you should correct
       the printed rotational entropy by manually evaluating the equation
       as given above

For convenience we print out the resulting values for sn=1 - 12:
 sn= 1  qrot/sn=  257317.7998 T*S(rot)=     8.27 kcal/mol T*S(tot)=    26.08 kcal/mol
 sn= 2  qrot/sn=  128658.8999 T*S(rot)=     7.86 kcal/mol T*S(tot)=    25.67 kcal/mol
 sn= 3  qrot/sn=   85772.5999 T*S(rot)=     7.62 kcal/mol T*S(tot)=    25.43 kcal/mol
 sn= 4  qrot/sn=   64329.4499 T*S(rot)=     7.45 kcal/mol T*S(tot)=    25.26 kcal/mol
 sn= 5  qrot/sn=   51463.5600 T*S(rot)=     7.32 kcal/mol T*S(tot)=    25.13 kcal/mol
 sn= 6  qrot/sn=   42886.3000 T*S(rot)=     7.21 kcal/mol T*S(tot)=    25.02 kcal/mol
 sn= 7  qrot/sn=   36759.6857 T*S(rot)=     7.12 kcal/mol T*S(tot)=    24.93 kcal/mol
 sn= 8  qrot/sn=   32164.7250 T*S(rot)=     7.04 kcal/mol T*S(tot)=    24.85 kcal/mol
 sn= 9  qrot/sn=   28590.8666 T*S(rot)=     6.97 kcal/mol T*S(tot)=    24.78 kcal/mol
 sn=10  qrot/sn=   25731.7800 T*S(rot)=     6.91 kcal/mol T*S(tot)=    24.72 kcal/mol
 sn=11  qrot/sn=   23392.5273 T*S(rot)=     6.85 kcal/mol T*S(tot)=    24.66 kcal/mol
 sn=12  qrot/sn=   21443.1500 T*S(rot)=     6.80 kcal/mol T*S(tot)=    24.61 kcal/mol

-------------------
GIBBS FREE ENTHALPY
-------------------

The Gibbs free enthalpy is G = H - T*S

Total enthalpy                    ...   -327.01237136 Eh
Total entropy correction          ...     -0.04052449 Eh    -25.43 kcal/mol
-----------------------------------------------------------------------
Final Gibbs free enthalpy         ...   -327.05289585 Eh

For completeness - the Gibbs free enthalpy minus the electronic energy
G-E(el)                           ...      0.14471744 Eh     90.81 kcal/mol

                             ****ORCA TERMINATED NORMALLY****
TOTAL RUN TIME: 0 days 0 hours 43 minutes 49 seconds 424 msec
