                         Program Version 3.0.3 - RELEASE   -
|  1> ! NORI PBE0 def2-TZVP UseSym TightOPT Freq TightSCF Grid3 FinalGrid5 XYZFile
|  2> % pal
|  3>     nprocs 8
|  4> end
|  5> %method
|  6>     SymThresh 5.0e-2
|  7> end
|  8> % geom
|  9>     MaxIter 10
| 10> end
| 11> % maxcore 2000
| 12> % output
| 13>     printlevel mini
| 14>     print[ P_Basis ] 0
| 15>     print[ P_SCFInfo ] 1
| 16>     print[ P_SCFIterInfo ] 1
| 17>     print[ P_OrbEn ] 0
| 18>     print[ P_Cartesian ] 0
| 19> end
| 20> % elprop
| 21>     Dipole false
| 22> end
| 23> *xyz 1 1
| 24>  O        1.3774650443    -0.5542641015    -0.5253076605
| 25>  C        2.2609103483     0.2274144295    -0.6753939721
| 26>  C        3.1094637912     0.7080781891     0.4944565283
| 27>  N        4.5177989212     0.9183546374     0.1049066287
| 28>  C        5.5232305845     1.3649804579     1.1549135649
| 29>  C        6.5583692176     0.4045397183     0.5617093883
| 30>  C        5.4063961425    -0.2849978430    -0.1756854052
| 31>  H        2.4962339334     0.6719903079    -1.6681986723
| 32>  H        3.0678139469    -0.0168223603     1.3078486379
| 33>  H        2.7097246002     1.6642323244     0.8499325672
| 34>  H        4.5568463100     1.5592711784    -0.6895590942
| 35>  H        5.1493937748     1.0644071001     2.1328821154
| 36>  H        5.7086201139     2.4374285587     1.1336505216
| 37>  H        7.2587896631     0.8982247911    -0.1112440263
| 38>  H        7.1110259016    -0.2067090569     1.2701854806
| 39>  H        5.5035177226    -0.5046328614    -1.2371072110
| 40>  H        4.9920799841    -1.1435454695     0.3515306087
| 41> *
| 42>
| 43>                          ****END OF INPUT****
 Total Charge           Charge          ....    1
 Multiplicity           Mult            ....    1
 Number of Electrons    NEL             ....   54
FINAL SINGLE POINT ENERGY      -325.971311571293
FINAL SINGLE POINT ENERGY      -325.971312958845
FINAL SINGLE POINT ENERGY      -325.971314130566
FINAL SINGLE POINT ENERGY      -325.971316457958
FINAL SINGLE POINT ENERGY      -325.971319102231
FINAL SINGLE POINT ENERGY      -325.971321874144
FINAL SINGLE POINT ENERGY      -325.971323664185

CARTESIAN COORDINATES (ANGSTROEM)
---------------------------------
  O     -0.073062    0.051446    2.905223
  C      0.556803    0.180971    1.904683
  C      0.361088   -0.742755    0.709583
  N      0.387589    0.000121   -0.566663
  C      0.153562   -0.749351   -1.869444
  C     -0.713574    0.409224   -2.372428
  C     -0.780012    0.908252   -0.925906
  H      1.341596    0.961678    1.795795
  H     -0.591020   -1.266135    0.795936
  H      1.174849   -1.476046    0.691109
  H      1.259667    0.526951   -0.634784
  H     -0.406252   -1.656051   -1.644423
  H      1.078581   -0.994575   -2.387480
  H     -0.175594    1.087940   -3.032889
  H     -1.660318    0.136636   -2.830586
  H     -0.585004    1.956962   -0.710744
  H     -1.657231    0.568084   -0.376812

FINAL SINGLE POINT ENERGY      -325.971324422325
                    ***********************HURRAY********************
 Multiplicity           Mult            ....    1
 Number of Electrons    NEL             ....   54
 Basis Dimension        Dim             ....  277
FINAL SINGLE POINT ENERGY      -325.971324576029

VIBRATIONAL FREQUENCIES
-----------------------

   0:         0.00 cm**-1
   1:         0.00 cm**-1
   2:         0.00 cm**-1
   3:         0.00 cm**-1
   4:         0.00 cm**-1
   5:         0.00 cm**-1
   6:        35.60 cm**-1
   7:        84.32 cm**-1
   8:       123.04 cm**-1
   9:       188.53 cm**-1
  10:       360.37 cm**-1
  11:       388.67 cm**-1
  12:       499.33 cm**-1
  13:       663.35 cm**-1
  14:       745.27 cm**-1
  15:       805.44 cm**-1
  16:       815.94 cm**-1
  17:       912.85 cm**-1
  18:       935.38 cm**-1
  19:       977.64 cm**-1
  20:      1004.25 cm**-1
  21:      1032.14 cm**-1
  22:      1052.52 cm**-1
  23:      1098.97 cm**-1
  24:      1113.18 cm**-1
  25:      1171.84 cm**-1
  26:      1219.24 cm**-1
  27:      1232.08 cm**-1
  28:      1291.97 cm**-1
  29:      1298.63 cm**-1
  30:      1314.17 cm**-1
  31:      1322.76 cm**-1
  32:      1347.30 cm**-1
  33:      1363.40 cm**-1
  34:      1415.77 cm**-1
  35:      1446.24 cm**-1
  36:      1462.20 cm**-1
  37:      1483.95 cm**-1
  38:      1491.91 cm**-1
  39:      1515.09 cm**-1
  40:      1875.28 cm**-1
  41:      2905.50 cm**-1
  42:      3069.47 cm**-1
  43:      3115.95 cm**-1
  44:      3118.62 cm**-1
  45:      3123.91 cm**-1
  46:      3157.64 cm**-1
  47:      3181.52 cm**-1
  48:      3188.34 cm**-1
  49:      3196.66 cm**-1
  50:      3464.27 cm**-1

IR SPECTRUM
-----------

 Mode    freq (cm**-1)   T**2         TX         TY         TZ
-------------------------------------------------------------------
   6:        35.60   11.640471  ( -2.605855   1.583950  -1.530064)
   7:        84.32    3.845149  (  0.996212   1.583271  -0.588186)
   8:       123.04    0.896556  (  0.804705   0.293335   0.403685)
   9:       188.53    3.769859  ( -1.226411  -1.500015  -0.125424)
  10:       360.37    1.946519  ( -1.235111  -0.026774   0.648307)
  11:       388.67    0.893756  ( -0.227600  -0.844851  -0.358025)
  12:       499.33   11.977235  ( -1.134153  -2.274913  -2.348554)
  13:       663.35    4.881538  ( -1.448156   0.024963   1.668460)
  14:       745.27    4.066241  (  0.603639  -1.799140   0.681878)
  15:       805.44    3.228641  (  0.406260  -1.266027  -1.208623)
  16:       815.94    0.904410  ( -0.364270   0.473297   0.740072)
  17:       912.85    7.924006  ( -1.981664   0.243576  -1.984359)
  18:       935.38   16.353806  (  0.263220   2.698400   3.000526)
  19:       977.64    2.197162  (  0.763769  -1.142809  -0.554803)
  20:      1004.25    3.468768  (  0.128554  -1.741592  -0.647378)
  21:      1032.14   52.819054  ( -2.691074  -2.057742  -6.429842)
  22:      1052.52    3.047216  (  0.969211  -1.004906  -1.047860)
  23:      1098.97    8.143855  (  0.163260   0.785102   2.738762)
  24:      1113.18   11.681003  (  1.823082  -2.293540   1.759843)
  25:      1171.84    5.296462  (  1.067494   0.872614   1.842678)
  26:      1219.24    2.336975  (  0.748831  -1.213405  -0.551251)
  27:      1232.08    3.599875  (  0.655336  -1.600115  -0.781052)
  28:      1291.97    2.459079  ( -0.851752   1.180752   0.582599)
  29:      1298.63    3.816779  (  0.536761   1.724933   0.743822)
  30:      1314.17    2.155192  (  0.839055   1.141146   0.385959)
  31:      1322.76    9.973704  (  1.602441  -1.625129  -2.182851)
  32:      1347.30   14.048707  ( -2.553556   2.279424   1.527182)
  33:      1363.40    1.976934  ( -0.460048   0.982078   0.894882)
  34:      1415.77    6.084802  (  0.359599   2.195174   1.066162)
  35:      1446.24   29.547283  ( -1.549824   2.296604  -4.676638)
  36:      1462.20   19.913401  ( -0.937233  -3.356380  -2.787420)
  37:      1483.95   10.901892  ( -1.569433   2.545353   1.399981)
  38:      1491.91   11.005320  ( -0.198881  -2.261997   2.418499)
  39:      1515.09    2.948779  ( -0.884075  -1.345506   0.597331)
  40:      1875.28  142.416548  ( -4.531838   0.078644  11.039602)
  41:      2905.50   53.184494  (  5.278143   4.892044  -1.180511)
  42:      3069.47    2.416591  ( -0.221406   1.337849   0.760086)
  43:      3115.95    0.744063  (  0.135358  -0.521350  -0.673747)
  44:      3118.62    0.612718  (  0.433950  -0.401581   0.512970)
  45:      3123.91    1.114661  (  0.241898   0.636607  -0.806770)
  46:      3157.64    1.113801  ( -0.885507   0.093126   0.566574)
  47:      3181.52    0.044563  ( -0.162999  -0.081878   0.106256)
  48:      3188.34    0.562740  ( -0.373596   0.469885   0.449861)
  49:      3196.66    0.395038  (  0.522564   0.342839   0.066525)
  50:      3464.27   50.421120  (  6.332740   3.184078   0.423285)

--------------------------
THERMOCHEMISTRY AT 298.15K
--------------------------

Temperature         ... 298.15 K
Pressure            ... 1.00 atm
Total Mass          ... 100.14 AMU

Throughout the following assumptions are being made:
  (1) The electronic state is orbitally nondegenerate
  (2) There are no thermally accessible electronically excited states
  (3) Hindered rotations indicated by low frequency modes) are not
      treated as such but are treated as vibrations and this may
      case some error
  (4) All equations used are the standard statistical mechanics
      equations for an ideal gas
  (5) All vibrations are strinctly harmonic

------------
INNER ENERGY
------------

The inner energy is: U= E(el) + E(ZPE) + E(vib) + E(rot) + E(trans)
    E(el)   - is the total energy from the electronic structure calculation
              = E(kin-el) + E(nuc-el) + E(el-el) + E(nuc-nuc)
    E(ZPE)  - the the zero temperature vibrational energy from the frequency calculation
    E(vib)  - the the finite temperature correction to E(ZPE) due to population
              of excietd vibrational states
    E(rot)  - is the rotational thermal energy
    E(trans)- is the translational thermal energy

Summary of contributions to the inner energy U:
Electronic energy                ...   -325.97132458 Eh
Zero point energy                ...      0.15174992 Eh      95.22 kcal/mol
Thermal vibrational correction   ...      0.00460264 Eh       2.89 kcal/mol
Thermal rotational correction    ...      0.00141627 Eh       0.89 kcal/mol
Thermal translational correction ...      0.00141627 Eh       0.89 kcal/mol
-----------------------------------------------------------------------
Total thermal energy                   -325.81213948 Eh

Summary of corrections to the electronic energy:
(perhaps to be used in another calculation)
Total thermal correction                  0.00743518 Eh       4.67 kcal/mol
Non-thermal (ZPE) correction              0.15174992 Eh      95.22 kcal/mol
-----------------------------------------------------------------------
Total correction                          0.15918510 Eh      99.89 kcal/mol

--------
ENTHALPY
--------

The enthalpy is H = U + kB*T
                kB is Boltzmann's constant
Total free energy                 ...   -325.81213948 Eh
Thermal Enthalpy correction       ...      0.00094421 Eh       0.59 kcal/mol
-----------------------------------------------------------------------
Total Enthalpy                    ...   -325.81119527 Eh

-------
ENTROPY
-------

The entropy contributions are T*S = T*(S(el)+S(vib)+S(rot)+S(trans)
     S(el)   - electronic entropy
     S(vib)  - vibrational entropy
     S(rot)  - rotational entropy
     S(trans)- translational entropy
The entropies will be listed as mutliplied by the temperature to get
units of energy

Electronic entropy                ...      0.00000000 Eh      0.00 kcal/mol
Vibrational entropy               ...      0.00923978 Eh      5.80 kcal/mol
Rotational entropy                ...      0.01207098 Eh      7.57 kcal/mol
Translational entropy             ...      0.01887324 Eh     11.84 kcal/mol
-----------------------------------------------------------------------
Final entropy term                ...      0.04018400 Eh     25.22 kcal/mol

CAUTION: The rotational entropy is not quite correctly treated here
         because it includes a symmetry number that is not yet correctly
         implemented in ORCA!
For a nonlinear molecule the correct rotational entropy is:
    S(rot) = R*(ln(qrot/sn)+1.5)
    R    = 8.31441 J/mol/K = 1.987191683e-3 kcal/mol/K
    qrot = 238760.2696234
    sn is the rotational symmetry number. We have assumed 3 here
       if it is different for your molecule then you should correct
       the printed rotational entropy by manually evaluating the equation
       as given above

For convenience we print out the resulting values for sn=1 - 12:
 sn= 1  qrot/sn=  238760.2696 T*S(rot)=     8.23 kcal/mol T*S(tot)=    25.87 kcal/mol
 sn= 2  qrot/sn=  119380.1348 T*S(rot)=     7.81 kcal/mol T*S(tot)=    25.46 kcal/mol
 sn= 3  qrot/sn=   79586.7565 T*S(rot)=     7.57 kcal/mol T*S(tot)=    25.22 kcal/mol
 sn= 4  qrot/sn=   59690.0674 T*S(rot)=     7.40 kcal/mol T*S(tot)=    25.05 kcal/mol
 sn= 5  qrot/sn=   47752.0539 T*S(rot)=     7.27 kcal/mol T*S(tot)=    24.91 kcal/mol
 sn= 6  qrot/sn=   39793.3783 T*S(rot)=     7.16 kcal/mol T*S(tot)=    24.81 kcal/mol
 sn= 7  qrot/sn=   34108.6099 T*S(rot)=     7.07 kcal/mol T*S(tot)=    24.71 kcal/mol
 sn= 8  qrot/sn=   29845.0337 T*S(rot)=     6.99 kcal/mol T*S(tot)=    24.63 kcal/mol
 sn= 9  qrot/sn=   26528.9188 T*S(rot)=     6.92 kcal/mol T*S(tot)=    24.56 kcal/mol
 sn=10  qrot/sn=   23876.0270 T*S(rot)=     6.86 kcal/mol T*S(tot)=    24.50 kcal/mol
 sn=11  qrot/sn=   21705.4791 T*S(rot)=     6.80 kcal/mol T*S(tot)=    24.45 kcal/mol
 sn=12  qrot/sn=   19896.6891 T*S(rot)=     6.75 kcal/mol T*S(tot)=    24.39 kcal/mol

-------------------
GIBBS FREE ENTHALPY
-------------------

The Gibbs free enthalpy is G = H - T*S

Total enthalpy                    ...   -325.81119527 Eh
Total entropy correction          ...     -0.04018400 Eh    -25.22 kcal/mol
-----------------------------------------------------------------------
Final Gibbs free enthalpy         ...   -325.85137926 Eh

For completeness - the Gibbs free enthalpy minus the electronic energy
G-E(el)                           ...      0.11994531 Eh     75.27 kcal/mol

                             ****ORCA TERMINATED NORMALLY****
TOTAL RUN TIME: 0 days 0 hours 44 minutes 41 seconds 72 msec
