                         Program Version 3.0.3 - RELEASE   -
|  1> ! NORI PBE0 def2-TZVP UseSym TightOPT Freq TightSCF Grid3 FinalGrid5 XYZFile
|  2> % pal
|  3>     nprocs 8
|  4> end
|  5> %method
|  6>     SymThresh 5.0e-2
|  7> end
|  8> % geom
|  9>     MaxIter 10
| 10> end
| 11> % maxcore 2000
| 12> % output
| 13>     printlevel mini
| 14>     print[ P_Basis ] 0
| 15>     print[ P_SCFInfo ] 1
| 16>     print[ P_SCFIterInfo ] 1
| 17>     print[ P_OrbEn ] 0
| 18>     print[ P_Cartesian ] 0
| 19> end
| 20> % elprop
| 21>     Dipole false
| 22> end
| 23> *xyz 1 1
| 24>  O        2.9613805294    -0.2662620995    -0.1309221871
| 25>  C        1.8662165895     0.4958151673    -0.5852441422
| 26>  C        2.4797185940     1.6581234616    -1.3316375036
| 27>  N        3.5332720103     2.2742255762    -0.4656482623
| 28>  C        4.4232781816     3.2252458772    -1.1513503535
| 29>  C        3.9921858315     4.6450820295    -1.2695094251
| 30>  C        5.1101006442     4.2705264758    -0.3434391815
| 31>  H        2.6661532769    -1.0730344585     0.3002246591
| 32>  H        1.2226927929    -0.0601384983    -1.2747772511
| 33>  H        1.2453712305     0.8477836726     0.2498260247
| 34>  H        1.7525984706     2.4235614785    -1.5982113587
| 35>  H        2.9885739465     1.3114149583    -2.2314897713
| 36>  H        4.0650889380     1.4860762977    -0.0719604987
| 37>  H        3.0920430043     2.7386813360     0.3308423940
| 38>  H        4.9438258639     2.7449484297    -1.9699187222
| 39>  H        3.0484947977     4.9361211869    -0.8213366292
| 40>  H        4.2206102635     5.1583964951    -2.1939778494
| 41>  H        4.9153018363     4.3123271441     0.7227990245
| 42>  H        6.1277631982     4.5146354698    -0.6173689663
| 43> *
| 44>
| 45>                          ****END OF INPUT****
 Total Charge           Charge          ....    1
 Multiplicity           Mult            ....    1
 Number of Electrons    NEL             ....   56
FINAL SINGLE POINT ENERGY      -327.202413406181
FINAL SINGLE POINT ENERGY      -327.202414983348

CARTESIAN COORDINATES (ANGSTROEM)
---------------------------------
  O      0.000347   -0.001631    2.619371
  C     -0.652775    1.078787    1.992549
  C     -0.970454    0.589160    0.598265
  N      0.272808   -0.000231    0.010302
  C      0.070625   -0.783864   -1.219759
  C      0.049702   -0.067070   -2.524566
  C      1.213553   -0.939811   -2.160684
  H      0.184577    0.194466    3.542150
  H     -1.589734    1.350394    2.488806
  H     -0.014122    1.971651    1.959450
  H     -1.329838    1.379613   -0.059068
  H     -1.704111   -0.216723    0.632066
  H      0.683918   -0.579397    0.754944
  H      0.949953    0.743811   -0.170762
  H     -0.602396   -1.612936   -1.043152
  H      0.211391    1.005498   -2.526358
  H     -0.656793   -0.409978   -3.268484
  H      2.151769   -0.452159   -1.920759
  H      1.325159   -1.901179   -2.644008

FINAL SINGLE POINT ENERGY      -327.202415639869
                    ***********************HURRAY********************
 Multiplicity           Mult            ....    1
 Number of Electrons    NEL             ....   56
 Basis Dimension        Dim             ....  289
FINAL SINGLE POINT ENERGY      -327.202415854055

VIBRATIONAL FREQUENCIES
-----------------------

   0:         0.00 cm**-1
   1:         0.00 cm**-1
   2:         0.00 cm**-1
   3:         0.00 cm**-1
   4:         0.00 cm**-1
   5:         0.00 cm**-1
   6:        60.84 cm**-1
   7:        82.91 cm**-1
   8:       168.57 cm**-1
   9:       184.89 cm**-1
  10:       275.53 cm**-1
  11:       304.17 cm**-1
  12:       387.78 cm**-1
  13:       433.65 cm**-1
  14:       527.01 cm**-1
  15:       757.08 cm**-1
  16:       796.89 cm**-1
  17:       839.77 cm**-1
  18:       856.27 cm**-1
  19:       888.46 cm**-1
  20:       928.42 cm**-1
  21:       986.30 cm**-1
  22:      1008.94 cm**-1
  23:      1051.78 cm**-1
  24:      1074.56 cm**-1
  25:      1083.56 cm**-1
  26:      1102.17 cm**-1
  27:      1124.91 cm**-1
  28:      1134.60 cm**-1
  29:      1173.48 cm**-1
  30:      1192.91 cm**-1
  31:      1218.55 cm**-1
  32:      1251.18 cm**-1
  33:      1263.93 cm**-1
  34:      1300.62 cm**-1
  35:      1346.37 cm**-1
  36:      1378.99 cm**-1
  37:      1423.39 cm**-1
  38:      1444.86 cm**-1
  39:      1454.04 cm**-1
  40:      1464.43 cm**-1
  41:      1486.74 cm**-1
  42:      1513.65 cm**-1
  43:      1518.84 cm**-1
  44:      1652.21 cm**-1
  45:      3022.86 cm**-1
  46:      3087.38 cm**-1
  47:      3111.65 cm**-1
  48:      3155.29 cm**-1
  49:      3159.70 cm**-1
  50:      3176.16 cm**-1
  51:      3211.65 cm**-1
  52:      3244.66 cm**-1
  53:      3255.86 cm**-1
  54:      3364.45 cm**-1
  55:      3466.78 cm**-1
  56:      3869.27 cm**-1

IR SPECTRUM
-----------

 Mode    freq (cm**-1)   T**2         TX         TY         TZ
-------------------------------------------------------------------
   6:        60.84    3.481558  ( -1.337543  -1.212403  -0.471823)
   7:        82.91    3.737556  (  0.875837  -1.503052  -0.843385)
   8:       168.57    5.987183  ( -0.840940  -1.015020   2.061489)
   9:       184.89   15.984663  (  2.500097   1.800791  -2.547809)
  10:       275.53   49.655643  (  5.921551   3.725731  -0.842496)
  11:       304.17   77.643113  (  7.692996   3.234327  -2.828436)
  12:       387.78   19.384072  ( -0.537175   0.041437   4.369645)
  13:       433.65    4.372410  ( -1.713712   0.980093  -0.689216)
  14:       527.01   11.183890  ( -2.193063   2.076295  -1.436442)
  15:       757.08    0.134314  ( -0.349601  -0.048639  -0.098627)
  16:       796.89    6.407787  ( -0.766945  -1.758725   1.651202)
  17:       839.77   13.820509  ( -2.996132   2.186027   0.254931)
  18:       856.27    1.838031  (  0.633478   0.434448  -1.117136)
  19:       888.46   15.950593  ( -0.465862  -2.488192   3.089088)
  20:       928.42    0.722508  (  0.453521  -0.608257  -0.383210)
  21:       986.30    8.614122  ( -1.037275  -0.251915   2.733993)
  22:      1008.94    2.087466  (  0.623024  -0.332795   1.260379)
  23:      1051.78   57.359427  ( -4.287047   5.088239  -3.618077)
  24:      1074.56   13.309799  ( -1.559932  -1.320883   3.021867)
  25:      1083.56    6.786609  ( -0.387094   0.741025   2.467316)
  26:      1102.17    3.318423  (  1.213520  -0.829481  -1.075990)
  27:      1124.91   11.883240  (  1.025088  -1.824613   2.739201)
  28:      1134.60   21.625616  ( -2.301516   3.664222  -1.703560)
  29:      1173.48    6.624094  (  0.767058  -1.570697   1.889081)
  30:      1192.91    0.501943  ( -0.532778   0.466994  -0.002546)
  31:      1218.55   23.825786  (  0.407914  -2.392847   4.234817)
  32:      1251.18    3.261322  (  1.074714   0.940022  -1.105744)
  33:      1263.93    2.431472  (  0.000646   1.505288   0.406914)
  34:      1300.62   49.403114  (  3.084260  -6.312294  -0.213057)
  35:      1346.37   25.230104  (  2.128616  -3.540941  -2.856718)
  36:      1378.99   18.332881  ( -1.264857  -0.801519   4.011307)
  37:      1423.39   57.659494  (  3.390747  -3.612070  -5.754587)
  38:      1444.86   34.164449  (  2.097284  -3.266926  -4.369558)
  39:      1454.04    2.477280  ( -0.526880   0.956135   1.133792)
  40:      1464.43    9.947531  ( -1.899040   0.876912  -2.360552)
  41:      1486.74   16.439044  ( -2.089911  -1.119264  -3.289158)
  42:      1513.65    8.372986  ( -1.081169  -0.282971   2.669080)
  43:      1518.84    3.399940  (  1.196491   1.373756   0.284855)
  44:      1652.21   44.096844  ( -5.761812  -1.505130  -2.938188)
  45:      3022.86   24.739141  (  0.714364   4.843843  -0.875218)
  46:      3087.38    6.644951  ( -2.523183   0.218002   0.480596)
  47:      3111.65    1.222535  (  0.907792   0.336464   0.534078)
  48:      3155.29    0.736277  (  0.148479  -0.600804  -0.594362)
  49:      3159.70    3.584537  ( -0.233262  -1.047181  -1.559980)
  50:      3176.16    0.283933  ( -0.006548  -0.506403   0.165669)
  51:      3211.65    0.532099  (  0.299576   0.608582   0.268293)
  52:      3244.66    0.148824  (  0.314396  -0.222152   0.025049)
  53:      3255.86    0.788868  ( -0.387679  -0.688936  -0.404896)
  54:      3364.45  110.436305  ( -3.470980   2.898779  -9.486078)
  55:      3466.78   48.563981  (  3.362276   5.013554  -3.481861)
  56:      3869.27  131.167191  (  2.787243  -0.097545  11.108058)

--------------------------
THERMOCHEMISTRY AT 298.15K
--------------------------

Temperature         ... 298.15 K
Pressure            ... 1.00 atm
Total Mass          ... 102.16 AMU

Throughout the following assumptions are being made:
  (1) The electronic state is orbitally nondegenerate
  (2) There are no thermally accessible electronically excited states
  (3) Hindered rotations indicated by low frequency modes) are not
      treated as such but are treated as vibrations and this may
      case some error
  (4) All equations used are the standard statistical mechanics
      equations for an ideal gas
  (5) All vibrations are strinctly harmonic

------------
INNER ENERGY
------------

The inner energy is: U= E(el) + E(ZPE) + E(vib) + E(rot) + E(trans)
    E(el)   - is the total energy from the electronic structure calculation
              = E(kin-el) + E(nuc-el) + E(el-el) + E(nuc-nuc)
    E(ZPE)  - the the zero temperature vibrational energy from the frequency calculation
    E(vib)  - the the finite temperature correction to E(ZPE) due to population
              of excietd vibrational states
    E(rot)  - is the rotational thermal energy
    E(trans)- is the translational thermal energy

Summary of contributions to the inner energy U:
Electronic energy                ...   -327.20241585 Eh
Zero point energy                ...      0.17603165 Eh     110.46 kcal/mol
Thermal vibrational correction   ...      0.00523105 Eh       3.28 kcal/mol
Thermal rotational correction    ...      0.00141627 Eh       0.89 kcal/mol
Thermal translational correction ...      0.00141627 Eh       0.89 kcal/mol
-----------------------------------------------------------------------
Total thermal energy                   -327.01832061 Eh

Summary of corrections to the electronic energy:
(perhaps to be used in another calculation)
Total thermal correction                  0.00806360 Eh       5.06 kcal/mol
Non-thermal (ZPE) correction              0.17603165 Eh     110.46 kcal/mol
-----------------------------------------------------------------------
Total correction                          0.18409524 Eh     115.52 kcal/mol

--------
ENTHALPY
--------

The enthalpy is H = U + kB*T
                kB is Boltzmann's constant
Total free energy                 ...   -327.01832061 Eh
Thermal Enthalpy correction       ...      0.00094421 Eh       0.59 kcal/mol
-----------------------------------------------------------------------
Total Enthalpy                    ...   -327.01737640 Eh

-------
ENTROPY
-------

The entropy contributions are T*S = T*(S(el)+S(vib)+S(rot)+S(trans)
     S(el)   - electronic entropy
     S(vib)  - vibrational entropy
     S(rot)  - rotational entropy
     S(trans)- translational entropy
The entropies will be listed as mutliplied by the temperature to get
units of energy

Electronic entropy                ...      0.00000000 Eh      0.00 kcal/mol
Vibrational entropy               ...      0.00968739 Eh      6.08 kcal/mol
Rotational entropy                ...      0.01220354 Eh      7.66 kcal/mol
Translational entropy             ...      0.01890147 Eh     11.86 kcal/mol
-----------------------------------------------------------------------
Final entropy term                ...      0.04079240 Eh     25.60 kcal/mol

CAUTION: The rotational entropy is not quite correctly treated here
         because it includes a symmetry number that is not yet correctly
         implemented in ORCA!
For a nonlinear molecule the correct rotational entropy is:
    S(rot) = R*(ln(qrot/sn)+1.5)
    R    = 8.31441 J/mol/K = 1.987191683e-3 kcal/mol/K
    qrot = 274749.2965787
    sn is the rotational symmetry number. We have assumed 3 here
       if it is different for your molecule then you should correct
       the printed rotational entropy by manually evaluating the equation
       as given above

For convenience we print out the resulting values for sn=1 - 12:
 sn= 1  qrot/sn=  274749.2966 T*S(rot)=     8.31 kcal/mol T*S(tot)=    26.25 kcal/mol
 sn= 2  qrot/sn=  137374.6483 T*S(rot)=     7.90 kcal/mol T*S(tot)=    25.84 kcal/mol
 sn= 3  qrot/sn=   91583.0989 T*S(rot)=     7.66 kcal/mol T*S(tot)=    25.60 kcal/mol
 sn= 4  qrot/sn=   68687.3241 T*S(rot)=     7.49 kcal/mol T*S(tot)=    25.43 kcal/mol
 sn= 5  qrot/sn=   54949.8593 T*S(rot)=     7.36 kcal/mol T*S(tot)=    25.29 kcal/mol
 sn= 6  qrot/sn=   45791.5494 T*S(rot)=     7.25 kcal/mol T*S(tot)=    25.19 kcal/mol
 sn= 7  qrot/sn=   39249.8995 T*S(rot)=     7.16 kcal/mol T*S(tot)=    25.10 kcal/mol
 sn= 8  qrot/sn=   34343.6621 T*S(rot)=     7.08 kcal/mol T*S(tot)=    25.02 kcal/mol
 sn= 9  qrot/sn=   30527.6996 T*S(rot)=     7.01 kcal/mol T*S(tot)=    24.95 kcal/mol
 sn=10  qrot/sn=   27474.9297 T*S(rot)=     6.94 kcal/mol T*S(tot)=    24.88 kcal/mol
 sn=11  qrot/sn=   24977.2088 T*S(rot)=     6.89 kcal/mol T*S(tot)=    24.83 kcal/mol
 sn=12  qrot/sn=   22895.7747 T*S(rot)=     6.84 kcal/mol T*S(tot)=    24.78 kcal/mol

-------------------
GIBBS FREE ENTHALPY
-------------------

The Gibbs free enthalpy is G = H - T*S

Total enthalpy                    ...   -327.01737640 Eh
Total entropy correction          ...     -0.04079240 Eh    -25.60 kcal/mol
-----------------------------------------------------------------------
Final Gibbs free enthalpy         ...   -327.05816880 Eh

For completeness - the Gibbs free enthalpy minus the electronic energy
G-E(el)                           ...      0.14424705 Eh     90.52 kcal/mol

                             ****ORCA TERMINATED NORMALLY****
TOTAL RUN TIME: 0 days 0 hours 39 minutes 34 seconds 973 msec
