                         Program Version 3.0.3 - RELEASE   -
|  1> ! NORI PBE0 def2-TZVP UseSym TightOPT Freq TightSCF Grid3 FinalGrid5 XYZFile
|  2> % pal
|  3>     nprocs 8
|  4> end
|  5> %method
|  6>     SymThresh 5.0e-2
|  7> end
|  8> % geom
|  9>     MaxIter 10
| 10> end
| 11> % maxcore 2000
| 12> % output
| 13>     printlevel mini
| 14>     print[ P_Basis ] 0
| 15>     print[ P_SCFInfo ] 1
| 16>     print[ P_SCFIterInfo ] 1
| 17>     print[ P_OrbEn ] 0
| 18>     print[ P_Cartesian ] 0
| 19> end
| 20> % elprop
| 21>     Dipole false
| 22> end
| 23> *xyz 1 1
| 24>  O        2.0444945550     0.3565555151     1.1527787640
| 25>  C        2.0734084219     0.2637832339    -0.0315034529
| 26>  C        2.9405887379    -0.7816799472    -0.7198340827
| 27>  N        3.3364602119    -0.3710334061    -2.1002313044
| 28>  C        4.0739875972    -1.4141853704    -2.8500669623
| 29>  C        3.2859737187    -2.4307498213    -3.5987843628
| 30>  C        4.0460184593    -1.3693967637    -4.3372861323
| 31>  H        1.4497016438     0.9068178370    -0.6929065826
| 32>  H        3.8417474030    -0.9673700350    -0.1362201227
| 33>  H        2.3788114470    -1.7152997126    -0.8090328901
| 34>  H        2.5009716502    -0.1147088906    -2.6338399770
| 35>  H        3.9104792680     0.4759571572    -2.0567217128
| 36>  H        4.9779798629    -1.6964089149    -2.3257053720
| 37>  H        3.6592777015    -3.4462087019    -3.5944826369
| 38>  H        2.2032261022    -2.3555979322    -3.5931379090
| 39>  H        3.4693511891    -0.5887825663    -4.8218126054
| 40>  H        4.9595820306    -1.6317216809    -4.8538926580
| 41> *
| 42>
| 43>                          ****END OF INPUT****
 Total Charge           Charge          ....    1
 Multiplicity           Mult            ....    1
 Number of Electrons    NEL             ....   54
FINAL SINGLE POINT ENERGY      -325.963488747745
FINAL SINGLE POINT ENERGY      -325.963489774361
FINAL SINGLE POINT ENERGY      -325.963490711228
FINAL SINGLE POINT ENERGY      -325.963490875752
FINAL SINGLE POINT ENERGY      -325.963492239956

CARTESIAN COORDINATES (ANGSTROEM)
---------------------------------
  O     -0.014604    0.012545    3.296952
  C      0.225510    0.429841    2.210717
  C     -0.296273   -0.270858    0.963724
  N      0.549972    0.000542   -0.236521
  C     -0.000631   -0.549503   -1.496566
  C     -0.973043    0.279605   -2.259507
  C      0.416876    0.072061   -2.782858
  H      0.810809    1.363185    2.049578
  H     -0.340046   -1.347327    1.126900
  H     -1.302656    0.092689    0.739369
  H      0.672653    1.010872   -0.347467
  H      1.489184   -0.380248   -0.089080
  H     -0.131874   -1.621482   -1.422122
  H     -1.799850   -0.236315   -2.729330
  H     -1.221728    1.265984   -1.882256
  H      1.094447    0.918611   -2.755985
  H      0.574488   -0.593748   -3.620950

FINAL SINGLE POINT ENERGY      -325.963492773334
                    ***********************HURRAY********************
 Multiplicity           Mult            ....    1
 Number of Electrons    NEL             ....   54
 Basis Dimension        Dim             ....  277
FINAL SINGLE POINT ENERGY      -325.963493469735

VIBRATIONAL FREQUENCIES
-----------------------

   0:         0.00 cm**-1
   1:         0.00 cm**-1
   2:         0.00 cm**-1
   3:         0.00 cm**-1
   4:         0.00 cm**-1
   5:         0.00 cm**-1
   6:        33.00 cm**-1
   7:        65.87 cm**-1
   8:       104.23 cm**-1
   9:       144.61 cm**-1
  10:       298.23 cm**-1
  11:       340.88 cm**-1
  12:       413.28 cm**-1
  13:       535.71 cm**-1
  14:       722.16 cm**-1
  15:       756.04 cm**-1
  16:       809.45 cm**-1
  17:       845.23 cm**-1
  18:       871.92 cm**-1
  19:       963.92 cm**-1
  20:       987.97 cm**-1
  21:      1017.88 cm**-1
  22:      1041.05 cm**-1
  23:      1076.42 cm**-1
  24:      1096.72 cm**-1
  25:      1109.81 cm**-1
  26:      1129.10 cm**-1
  27:      1168.67 cm**-1
  28:      1192.34 cm**-1
  29:      1243.51 cm**-1
  30:      1256.90 cm**-1
  31:      1309.35 cm**-1
  32:      1373.95 cm**-1
  33:      1412.06 cm**-1
  34:      1416.81 cm**-1
  35:      1441.02 cm**-1
  36:      1460.71 cm**-1
  37:      1464.23 cm**-1
  38:      1511.72 cm**-1
  39:      1643.95 cm**-1
  40:      1879.51 cm**-1
  41:      2891.50 cm**-1
  42:      3091.85 cm**-1
  43:      3152.49 cm**-1
  44:      3157.71 cm**-1
  45:      3165.87 cm**-1
  46:      3211.57 cm**-1
  47:      3243.83 cm**-1
  48:      3254.72 cm**-1
  49:      3414.53 cm**-1
  50:      3463.93 cm**-1

IR SPECTRUM
-----------

 Mode    freq (cm**-1)   T**2         TX         TY         TZ
-------------------------------------------------------------------
   7:        65.87    7.248165  ( -0.315322  -2.673546  -0.029826)
   8:       104.23    0.749484  ( -0.641986   0.555327  -0.170145)
   9:       144.61    7.639468  ( -1.756349  -2.132766   0.077555)
  10:       298.23    2.855453  ( -1.632114  -0.355610   0.255339)
  11:       340.88    3.729510  (  0.850790   1.370394  -1.061926)
  12:       413.28    3.590777  ( -1.191186   1.047026  -1.037106)
  13:       535.71   18.803183  ( -1.027359  -1.511598  -3.932275)
  14:       722.16    9.074528  (  1.735936  -2.264068   0.966981)
  15:       756.04    0.778544  (  0.609679   0.111631   0.627992)
  16:       809.45   11.114959  (  1.746923  -2.389390   1.534286)
  17:       845.23   16.373132  (  2.184862  -0.369212  -3.385734)
  18:       871.92    4.881212  ( -1.006408  -1.793879  -0.806445)
  19:       963.92    8.661835  (  0.452167  -2.233959   1.861936)
  20:       987.97    9.749644  (  1.940938   0.680887   2.349212)
  21:      1017.88    9.286367  ( -1.451439  -1.631405  -2.125608)
  22:      1041.05   54.224506  (  1.178284   2.595965   6.789486)
  23:      1076.42   19.568481  (  0.997468  -2.265193   3.666393)
  24:      1096.72   10.811485  ( -2.518945   0.912272   1.906348)
  25:      1109.81    0.399858  (  0.587990   0.065509  -0.223237)
  26:      1129.10    0.752089  (  0.238313  -0.286245  -0.783172)
  27:      1168.67    0.337355  ( -0.407314  -0.388588  -0.143003)
  28:      1192.34    0.792388  ( -0.768366   0.239518   0.380305)
  29:      1243.51    3.884329  ( -0.348854   1.925594   0.233915)
  30:      1256.90    3.925905  ( -0.649509   0.174756   1.863734)
  31:      1309.35   11.435446  ( -0.540102   1.363126   3.047232)
  32:      1373.95    2.079269  (  1.098472  -0.906755   0.224551)
  33:      1412.06   29.913957  ( -1.641790   0.315415   5.207590)
  34:      1416.81    3.481055  (  1.370023   1.175741   0.470875)
  35:      1441.02   33.862107  (  0.268279   1.101279   5.707654)
  36:      1460.71   10.270551  ( -1.180032  -1.785999  -2.385012)
  37:      1464.23   19.989402  ( -4.242799  -0.631284  -1.260769)
  38:      1511.72    8.770431  (  0.394877  -2.002657   2.145662)
  39:      1643.95   46.299099  ( -5.181151  -4.254680  -1.162958)
  40:      1879.51  156.553131  ( -1.111579  -2.442249  12.221004)
  41:      2891.50   57.688052  (  4.184483   6.125389  -1.630265)
  42:      3091.85    4.668268  ( -1.438207  -0.873828  -1.355084)
  43:      3152.49    1.211176  ( -0.483403  -0.250473  -0.956431)
  44:      3157.71    4.597126  ( -0.602796  -0.500424  -1.995830)
  45:      3165.87    2.852424  (  0.627865  -1.398505   0.708797)
  46:      3211.57    1.113605  ( -0.292136  -0.926297  -0.412597)
  47:      3243.83    0.317294  ( -0.531486  -0.039803   0.182298)
  48:      3254.72    2.289726  (  0.466797   1.177260   0.828182)
  49:      3414.53   37.398880  ( -5.816397  -1.853023  -0.367026)
  50:      3463.93   64.001363  ( -4.277129   6.724442  -0.699576)

--------------------------
THERMOCHEMISTRY AT 298.15K
--------------------------

Temperature         ... 298.15 K
Pressure            ... 1.00 atm
Total Mass          ... 100.14 AMU

Throughout the following assumptions are being made:
  (1) The electronic state is orbitally nondegenerate
  (2) There are no thermally accessible electronically excited states
  (3) Hindered rotations indicated by low frequency modes) are not
      treated as such but are treated as vibrations and this may
      case some error
  (4) All equations used are the standard statistical mechanics
      equations for an ideal gas
  (5) All vibrations are strinctly harmonic

------------
INNER ENERGY
------------

The inner energy is: U= E(el) + E(ZPE) + E(vib) + E(rot) + E(trans)
    E(el)   - is the total energy from the electronic structure calculation
              = E(kin-el) + E(nuc-el) + E(el-el) + E(nuc-nuc)
    E(ZPE)  - the the zero temperature vibrational energy from the frequency calculation
    E(vib)  - the the finite temperature correction to E(ZPE) due to population
              of excietd vibrational states
    E(rot)  - is the rotational thermal energy
    E(trans)- is the translational thermal energy

Summary of contributions to the inner energy U:
Electronic energy                ...   -325.96349347 Eh
Zero point energy                ...      0.15070811 Eh      94.57 kcal/mol
Thermal vibrational correction   ...      0.00423773 Eh       2.66 kcal/mol
Thermal rotational correction    ...      0.00141627 Eh       0.89 kcal/mol
Thermal translational correction ...      0.00141627 Eh       0.89 kcal/mol
-----------------------------------------------------------------------
Total thermal energy                   -325.80571508 Eh

Summary of corrections to the electronic energy:
(perhaps to be used in another calculation)
Total thermal correction                  0.00707027 Eh       4.44 kcal/mol
Non-thermal (ZPE) correction              0.15070811 Eh      94.57 kcal/mol
-----------------------------------------------------------------------
Total correction                          0.15777839 Eh      99.01 kcal/mol

--------
ENTHALPY
--------

The enthalpy is H = U + kB*T
                kB is Boltzmann's constant
Total free energy                 ...   -325.80571508 Eh
Thermal Enthalpy correction       ...      0.00094421 Eh       0.59 kcal/mol
-----------------------------------------------------------------------
Total Enthalpy                    ...   -325.80477087 Eh

-------
ENTROPY
-------

The entropy contributions are T*S = T*(S(el)+S(vib)+S(rot)+S(trans)
     S(el)   - electronic entropy
     S(vib)  - vibrational entropy
     S(rot)  - rotational entropy
     S(trans)- translational entropy
The entropies will be listed as mutliplied by the temperature to get
units of energy

Electronic entropy                ...      0.00000000 Eh      0.00 kcal/mol
Vibrational entropy               ...      0.00783465 Eh      4.92 kcal/mol
Rotational entropy                ...      0.01215392 Eh      7.63 kcal/mol
Translational entropy             ...      0.01887324 Eh     11.84 kcal/mol
-----------------------------------------------------------------------
Final entropy term                ...      0.03886181 Eh     24.39 kcal/mol

CAUTION: The rotational entropy is not quite correctly treated here
         because it includes a symmetry number that is not yet correctly
         implemented in ORCA!
For a nonlinear molecule the correct rotational entropy is:
    S(rot) = R*(ln(qrot/sn)+1.5)
    R    = 8.31441 J/mol/K = 1.987191683e-3 kcal/mol/K
    qrot = 260682.3435556
    sn is the rotational symmetry number. We have assumed 3 here
       if it is different for your molecule then you should correct
       the printed rotational entropy by manually evaluating the equation
       as given above

For convenience we print out the resulting values for sn=1 - 12:
 sn= 1  qrot/sn=  260682.3436 T*S(rot)=     8.28 kcal/mol T*S(tot)=    25.04 kcal/mol
 sn= 2  qrot/sn=  130341.1718 T*S(rot)=     7.87 kcal/mol T*S(tot)=    24.63 kcal/mol
 sn= 3  qrot/sn=   86894.1145 T*S(rot)=     7.63 kcal/mol T*S(tot)=    24.39 kcal/mol
 sn= 4  qrot/sn=   65170.5859 T*S(rot)=     7.46 kcal/mol T*S(tot)=    24.22 kcal/mol
 sn= 5  qrot/sn=   52136.4687 T*S(rot)=     7.32 kcal/mol T*S(tot)=    24.08 kcal/mol
 sn= 6  qrot/sn=   43447.0573 T*S(rot)=     7.22 kcal/mol T*S(tot)=    23.98 kcal/mol
 sn= 7  qrot/sn=   37240.3348 T*S(rot)=     7.12 kcal/mol T*S(tot)=    23.88 kcal/mol
 sn= 8  qrot/sn=   32585.2929 T*S(rot)=     7.05 kcal/mol T*S(tot)=    23.80 kcal/mol
 sn= 9  qrot/sn=   28964.7048 T*S(rot)=     6.98 kcal/mol T*S(tot)=    23.74 kcal/mol
 sn=10  qrot/sn=   26068.2344 T*S(rot)=     6.91 kcal/mol T*S(tot)=    23.67 kcal/mol
 sn=11  qrot/sn=   23698.3949 T*S(rot)=     6.86 kcal/mol T*S(tot)=    23.62 kcal/mol
 sn=12  qrot/sn=   21723.5286 T*S(rot)=     6.81 kcal/mol T*S(tot)=    23.56 kcal/mol

-------------------
GIBBS FREE ENTHALPY
-------------------

The Gibbs free enthalpy is G = H - T*S

Total enthalpy                    ...   -325.80477087 Eh
Total entropy correction          ...     -0.03886181 Eh    -24.39 kcal/mol
-----------------------------------------------------------------------
Final Gibbs free enthalpy         ...   -325.84363268 Eh

For completeness - the Gibbs free enthalpy minus the electronic energy
G-E(el)                           ...      0.11986079 Eh     75.21 kcal/mol

                             ****ORCA TERMINATED NORMALLY****
TOTAL RUN TIME: 0 days 0 hours 38 minutes 21 seconds 976 msec
