                         Program Version 3.0.3 - RELEASE   -
|  1> ! NORI PBE0 def2-TZVP UseSym TightOPT Freq TightSCF Grid3 FinalGrid5 XYZFile
|  2> % pal
|  3>     nprocs 8
|  4> end
|  5> %method
|  6>     SymThresh 5.0e-2
|  7> end
|  8> % geom
|  9>     MaxIter 10
| 10> end
| 11> % maxcore 2000
| 12> % output
| 13>     printlevel mini
| 14>     print[ P_Basis ] 0
| 15>     print[ P_SCFInfo ] 1
| 16>     print[ P_SCFIterInfo ] 1
| 17>     print[ P_OrbEn ] 0
| 18>     print[ P_Cartesian ] 0
| 19> end
| 20> % elprop
| 21>     Dipole false
| 22> end
| 23> *xyz 1 1
| 24>  O        0.5017029450    -1.1637540372    -0.3882254933
| 25>  C        1.5388366276    -0.6328921565    -0.6703071618
| 26>  C        1.6917816571     0.7776072090    -0.9467234608
| 27>  N        1.8761798352     1.8907489190    -1.1720810512
| 28>  C        2.8115016204    -1.4503499973    -0.7179467097
| 29>  C        3.1816855397    -2.1783726289     0.5185088964
| 30>  N        2.5045866236    -2.8841970722    -0.5831104303
| 31>  H        3.5810443021    -1.1922936518    -1.4368127119
| 32>  H        2.5652507005    -2.0549677308     1.4011269961
| 33>  H        4.2156840756    -2.4589377058     0.6724614271
| 34>  H        3.0199344298    -3.5567715583    -1.1432235665
| 35>  H        1.5030816434    -3.0675095893    -0.4633767340
| 36> *
| 37>
| 38>                          ****END OF INPUT****
 Total Charge           Charge          ....    1
 Multiplicity           Mult            ....    1
 Number of Electrons    NEL             ....   50
FINAL SINGLE POINT ENERGY      -339.556881377234
FINAL SINGLE POINT ENERGY      -339.556880843000

CARTESIAN COORDINATES (ANGSTROEM)
---------------------------------
  O     -0.001068   -0.000066    1.540745
  C      0.365447    0.088421    0.402849
  C      1.745966    0.038278   -0.022518
  N      2.824537    0.001600   -0.421397
  C     -0.655346    0.229886   -0.705151
  C     -1.677888   -0.837403   -0.808320
  N     -1.998439    0.435268   -0.138741
  H     -0.410348    0.821282   -1.579832
  H     -1.619797   -1.682742   -0.133338
  H     -2.179298   -0.993405   -1.754955
  H     -2.629519    1.094691   -0.584602
  H     -2.003447    0.425999    0.886411

FINAL SINGLE POINT ENERGY      -339.556881898321
                    ***********************HURRAY********************
 Multiplicity           Mult            ....    1
 Number of Electrons    NEL             ....   50
 Basis Dimension        Dim             ....  247
FINAL SINGLE POINT ENERGY      -339.556881977024

VIBRATIONAL FREQUENCIES
-----------------------

   0:         0.00 cm**-1
   1:         0.00 cm**-1
   2:         0.00 cm**-1
   3:         0.00 cm**-1
   4:         0.00 cm**-1
   5:         0.00 cm**-1
   6:        77.35 cm**-1
   7:       143.60 cm**-1
   8:       216.37 cm**-1
   9:       284.91 cm**-1
  10:       319.42 cm**-1
  11:       485.85 cm**-1
  12:       601.54 cm**-1
  13:       731.68 cm**-1
  14:       770.18 cm**-1
  15:       870.93 cm**-1
  16:       890.74 cm**-1
  17:       908.11 cm**-1
  18:       951.87 cm**-1
  19:      1075.23 cm**-1
  20:      1110.24 cm**-1
  21:      1133.07 cm**-1
  22:      1156.61 cm**-1
  23:      1186.76 cm**-1
  24:      1249.72 cm**-1
  25:      1269.14 cm**-1
  26:      1407.74 cm**-1
  27:      1483.72 cm**-1
  28:      1591.23 cm**-1
  29:      1820.31 cm**-1
  30:      2368.44 cm**-1
  31:      3169.56 cm**-1
  32:      3213.44 cm**-1
  33:      3278.34 cm**-1
  34:      3398.75 cm**-1
  35:      3570.37 cm**-1

IR SPECTRUM
-----------

 Mode    freq (cm**-1)   T**2         TX         TY         TZ
-------------------------------------------------------------------
   6:        77.35    0.457777  (  0.006962   0.455684  -0.500080)
   7:       143.60    3.156447  ( -1.763613  -0.073928  -0.201622)
   8:       216.37    9.022240  (  0.649343   2.926773   0.185991)
   9:       284.91   37.723424  (  5.682604  -1.157572   2.022737)
  10:       319.42    7.996386  ( -2.302111  -1.025066  -1.282931)
  11:       485.85    4.866112  (  1.232969   0.241214  -1.813206)
  12:       601.54    4.392825  (  2.034125  -0.336670   0.376582)
  13:       731.68    2.599503  (  0.227076   1.525300   0.470531)
  14:       770.18    1.245672  ( -0.051761  -0.031938  -1.114438)
  15:       870.93    5.556156  ( -0.588431   1.715696   1.505420)
  16:       890.74   14.567815  ( -2.952038   2.324605   0.670446)
  17:       908.11    7.757956  ( -2.373838  -0.097509  -1.453734)
  18:       951.87   18.396320  ( -4.278873  -0.295836   0.006964)
  19:      1075.23   73.145527  (  5.861574   5.962406  -1.799220)
  20:      1110.24    4.529810  ( -1.609666  -0.955620  -1.012707)
  21:      1133.07  166.369057  (-12.641336  -0.390157  -2.532481)
  22:      1156.61    3.402542  ( -1.137978   1.243974   0.748383)
  23:      1186.76   33.190449  ( -5.726658   0.192633   0.598938)
  24:      1249.72    3.532237  (  1.475697   1.151630  -0.168233)
  25:      1269.14   14.770664  ( -1.652532  -1.138285  -3.277821)
  26:      1407.74   46.655731  (  6.341765   1.541015   2.015694)
  27:      1483.72    9.943333  ( -0.556198   3.103679  -0.033961)
  28:      1591.23  102.516408  ( -6.986364   4.627660   5.682595)
  29:      1820.31  116.802253  ( -3.550807  -0.263154  10.204155)
  30:      2368.44  112.550167  ( 10.318828  -0.105621  -2.461870)
  31:      3169.56    8.794983  ( -1.157441  -2.692132  -0.455782)
  32:      3213.44   13.025765  ( -0.658088  -1.843273   3.032331)
  33:      3278.34   17.115745  (  1.302703  -1.439852   3.653154)
  34:      3398.75  115.692804  (  2.210540  -3.709366  -9.851240)
  35:      3570.37  204.465245  (  9.582754  -7.424652   7.583576)

--------------------------
THERMOCHEMISTRY AT 298.15K
--------------------------

Temperature         ... 298.15 K
Pressure            ... 1.00 atm
Total Mass          ... 97.10 AMU

Throughout the following assumptions are being made:
  (1) The electronic state is orbitally nondegenerate
  (2) There are no thermally accessible electronically excited states
  (3) Hindered rotations indicated by low frequency modes) are not
      treated as such but are treated as vibrations and this may
      case some error
  (4) All equations used are the standard statistical mechanics
      equations for an ideal gas
  (5) All vibrations are strinctly harmonic

------------
INNER ENERGY
------------

The inner energy is: U= E(el) + E(ZPE) + E(vib) + E(rot) + E(trans)
    E(el)   - is the total energy from the electronic structure calculation
              = E(kin-el) + E(nuc-el) + E(el-el) + E(nuc-nuc)
    E(ZPE)  - the the zero temperature vibrational energy from the frequency calculation
    E(vib)  - the the finite temperature correction to E(ZPE) due to population
              of excietd vibrational states
    E(rot)  - is the rotational thermal energy
    E(trans)- is the translational thermal energy

Summary of contributions to the inner energy U:
Electronic energy                ...   -339.55688198 Eh
Zero point energy                ...      0.09280171 Eh      58.23 kcal/mol
Thermal vibrational correction   ...      0.00375421 Eh       2.36 kcal/mol
Thermal rotational correction    ...      0.00141627 Eh       0.89 kcal/mol
Thermal translational correction ...      0.00141627 Eh       0.89 kcal/mol
-----------------------------------------------------------------------
Total thermal energy                   -339.45749352 Eh

Summary of corrections to the electronic energy:
(perhaps to be used in another calculation)
Total thermal correction                  0.00658675 Eh       4.13 kcal/mol
Non-thermal (ZPE) correction              0.09280171 Eh      58.23 kcal/mol
-----------------------------------------------------------------------
Total correction                          0.09938846 Eh      62.37 kcal/mol

--------
ENTHALPY
--------

The enthalpy is H = U + kB*T
                kB is Boltzmann's constant
Total free energy                 ...   -339.45749352 Eh
Thermal Enthalpy correction       ...      0.00094421 Eh       0.59 kcal/mol
-----------------------------------------------------------------------
Total Enthalpy                    ...   -339.45654931 Eh

-------
ENTROPY
-------

The entropy contributions are T*S = T*(S(el)+S(vib)+S(rot)+S(trans)
     S(el)   - electronic entropy
     S(vib)  - vibrational entropy
     S(rot)  - rotational entropy
     S(trans)- translational entropy
The entropies will be listed as mutliplied by the temperature to get
units of energy

Electronic entropy                ...      0.00000000 Eh      0.00 kcal/mol
Vibrational entropy               ...      0.00669779 Eh      4.20 kcal/mol
Rotational entropy                ...      0.01193772 Eh      7.49 kcal/mol
Translational entropy             ...      0.01882952 Eh     11.82 kcal/mol
-----------------------------------------------------------------------
Final entropy term                ...      0.03746503 Eh     23.51 kcal/mol

CAUTION: The rotational entropy is not quite correctly treated here
         because it includes a symmetry number that is not yet correctly
         implemented in ORCA!
For a nonlinear molecule the correct rotational entropy is:
    S(rot) = R*(ln(qrot/sn)+1.5)
    R    = 8.31441 J/mol/K = 1.987191683e-3 kcal/mol/K
    qrot = 207333.1259144
    sn is the rotational symmetry number. We have assumed 3 here
       if it is different for your molecule then you should correct
       the printed rotational entropy by manually evaluating the equation
       as given above

For convenience we print out the resulting values for sn=1 - 12:
 sn= 1  qrot/sn=  207333.1259 T*S(rot)=     8.14 kcal/mol T*S(tot)=    24.16 kcal/mol
 sn= 2  qrot/sn=  103666.5630 T*S(rot)=     7.73 kcal/mol T*S(tot)=    23.75 kcal/mol
 sn= 3  qrot/sn=   69111.0420 T*S(rot)=     7.49 kcal/mol T*S(tot)=    23.51 kcal/mol
 sn= 4  qrot/sn=   51833.2815 T*S(rot)=     7.32 kcal/mol T*S(tot)=    23.34 kcal/mol
 sn= 5  qrot/sn=   41466.6252 T*S(rot)=     7.19 kcal/mol T*S(tot)=    23.21 kcal/mol
 sn= 6  qrot/sn=   34555.5210 T*S(rot)=     7.08 kcal/mol T*S(tot)=    23.10 kcal/mol
 sn= 7  qrot/sn=   29619.0180 T*S(rot)=     6.99 kcal/mol T*S(tot)=    23.01 kcal/mol
 sn= 8  qrot/sn=   25916.6407 T*S(rot)=     6.91 kcal/mol T*S(tot)=    22.93 kcal/mol
 sn= 9  qrot/sn=   23037.0140 T*S(rot)=     6.84 kcal/mol T*S(tot)=    22.86 kcal/mol
 sn=10  qrot/sn=   20733.3126 T*S(rot)=     6.78 kcal/mol T*S(tot)=    22.80 kcal/mol
 sn=11  qrot/sn=   18848.4660 T*S(rot)=     6.72 kcal/mol T*S(tot)=    22.74 kcal/mol
 sn=12  qrot/sn=   17277.7605 T*S(rot)=     6.67 kcal/mol T*S(tot)=    22.69 kcal/mol

-------------------
GIBBS FREE ENTHALPY
-------------------

The Gibbs free enthalpy is G = H - T*S

Total enthalpy                    ...   -339.45654931 Eh
Total entropy correction          ...     -0.03746503 Eh    -23.51 kcal/mol
-----------------------------------------------------------------------
Final Gibbs free enthalpy         ...   -339.49401434 Eh

For completeness - the Gibbs free enthalpy minus the electronic energy
G-E(el)                           ...      0.06286764 Eh     39.45 kcal/mol

                             ****ORCA TERMINATED NORMALLY****
TOTAL RUN TIME: 0 days 0 hours 22 minutes 57 seconds 527 msec
