                         Program Version 3.0.3 - RELEASE   -
|  1> ! NORI PBE0 def2-TZVP UseSym TightOPT Freq TightSCF Grid3 FinalGrid5 XYZFile
|  2> % pal
|  3>     nprocs 8
|  4> end
|  5> %method
|  6>     SymThresh 5.0e-2
|  7> end
|  8> % geom
|  9>     MaxIter 10
| 10> end
| 11> % maxcore 2000
| 12> % output
| 13>     printlevel mini
| 14>     print[ P_Basis ] 0
| 15>     print[ P_SCFInfo ] 1
| 16>     print[ P_SCFIterInfo ] 1
| 17>     print[ P_OrbEn ] 0
| 18>     print[ P_Cartesian ] 0
| 19> end
| 20> % elprop
| 21>     Dipole false
| 22> end
| 23> *xyz 1 1
| 24>  O        3.1606126775     0.8715461712    -0.8302613941
| 25>  C        2.4446250002     0.0366640732     0.0217922671
| 26>  C        1.1254534796    -0.3315025192    -0.5200541343
| 27>  N        0.1539546505    -0.7291469785    -0.9886998191
| 28>  C        3.2813966001    -1.2179682252     0.1688094781
| 29>  C        2.7200959028    -2.5448477489     0.4553566562
| 30>  N        3.1617236568    -2.2183850739    -0.9210723769
| 31>  H        2.7772459909     1.7562194273    -0.8467586328
| 32>  H        2.3102837378     0.4566898483     1.0285474918
| 33>  H        4.3103113402    -1.0189569202     0.4467526867
| 34>  H        3.3327535549    -3.2787006588     0.9622203568
| 35>  H        1.6459453432    -2.6632077297     0.5408491357
| 36>  H        4.0071317708    -2.6436001452    -1.2876064045
| 37>  H        2.4276262948    -2.0639635204    -1.6122753106
| 38> *
| 39>
| 40>                          ****END OF INPUT****
 Total Charge           Charge          ....    1
 Multiplicity           Mult            ....    1
 Number of Electrons    NEL             ....   52
FINAL SINGLE POINT ENERGY      -340.784175216884

CARTESIAN COORDINATES (ANGSTROEM)
---------------------------------
  O     -0.000749    0.000958    1.963992
  C      0.070586    0.662624    0.742217
  C      1.297041    0.340803   -0.007096
  N      2.182306   -0.002464   -0.655188
  C     -1.128420    0.188278   -0.053862
  C     -1.165372    0.134117   -1.521370
  N     -0.981508   -1.116065   -0.747040
  H      0.633119    0.368073    2.591147
  H     -0.012835    1.754513    0.835051
  H     -2.064849    0.275417    0.485724
  H     -2.118238    0.213399   -2.028087
  H     -0.286141    0.416195   -2.088875
  H     -1.742370   -1.785514   -0.692474
  H     -0.049349   -1.529992   -0.761462

FINAL SINGLE POINT ENERGY      -340.784176013006
                    ***********************HURRAY********************
 Multiplicity           Mult            ....    1
 Number of Electrons    NEL             ....   52
 Basis Dimension        Dim             ....  259
FINAL SINGLE POINT ENERGY      -340.784176726257

VIBRATIONAL FREQUENCIES
-----------------------

   0:         0.00 cm**-1
   1:         0.00 cm**-1
   2:         0.00 cm**-1
   3:         0.00 cm**-1
   4:         0.00 cm**-1
   5:         0.00 cm**-1
   6:        75.18 cm**-1
   7:       139.92 cm**-1
   8:       200.78 cm**-1
   9:       264.06 cm**-1
  10:       309.69 cm**-1
  11:       372.34 cm**-1
  12:       462.19 cm**-1
  13:       601.40 cm**-1
  14:       649.09 cm**-1
  15:       768.20 cm**-1
  16:       852.94 cm**-1
  17:       886.86 cm**-1
  18:       920.26 cm**-1
  19:       957.23 cm**-1
  20:       984.93 cm**-1
  21:      1057.73 cm**-1
  22:      1119.35 cm**-1
  23:      1156.49 cm**-1
  24:      1167.39 cm**-1
  25:      1188.09 cm**-1
  26:      1238.06 cm**-1
  27:      1248.35 cm**-1
  28:      1286.06 cm**-1
  29:      1350.33 cm**-1
  30:      1386.63 cm**-1
  31:      1432.09 cm**-1
  32:      1489.68 cm**-1
  33:      1620.98 cm**-1
  34:      2373.87 cm**-1
  35:      3038.16 cm**-1
  36:      3169.76 cm**-1
  37:      3208.95 cm**-1
  38:      3274.58 cm**-1
  39:      3459.40 cm**-1
  40:      3586.34 cm**-1
  41:      3831.05 cm**-1

IR SPECTRUM
-----------

 Mode    freq (cm**-1)   T**2         TX         TY         TZ
-------------------------------------------------------------------
   6:        75.18    8.098918  (  1.702381   1.260076  -1.900796)
   7:       139.92   18.764750  ( -2.868364  -1.425029  -2.916596)
   8:       200.78    5.507416  (  1.504140   1.552122   0.914274)
   9:       264.06   11.163626  ( -2.019860   0.900091  -2.504721)
  10:       309.69  144.022130  (  8.019395  -7.813540  -4.319725)
  11:       372.34    7.228602  (  0.518462  -2.121345  -1.568341)
  12:       462.19    4.941474  ( -0.070221   0.274947  -2.204756)
  13:       601.40    0.728256  ( -0.582967   0.574279   0.242094)
  14:       649.09    1.892936  (  0.294669  -0.503875  -1.245880)
  15:       768.20    8.408804  ( -0.437003   0.388670  -2.840206)
  16:       852.94    4.747553  (  0.424013  -1.588588   1.429740)
  17:       886.86   12.046547  ( -1.014259  -3.190188  -0.916802)
  18:       920.26   17.038479  (  3.408732  -1.835411  -1.431883)
  19:       957.23   21.300536  ( -0.766671   4.396565  -1.175997)
  20:       984.93   11.888756  (  3.115473  -0.090590   1.474577)
  21:      1057.73   97.116091  (  1.007194   0.565809   9.786803)
  22:      1119.35   43.352281  (  1.122609   3.858704  -5.215595)
  23:      1156.49   38.424663  (  0.348149  -1.055224   6.098357)
  24:      1167.39    9.203256  (  0.528463   0.041703  -2.987013)
  25:      1188.09    6.461001  (  0.062548  -1.133351  -2.274336)
  26:      1238.06   50.844148  ( -2.006612  -2.755738   6.262872)
  27:      1248.35    4.921940  ( -1.566947  -0.960660   1.242477)
  28:      1286.06    8.575315  (  2.513846  -1.074617   1.049328)
  29:      1350.33    4.789460  (  1.108300  -0.432049  -1.836972)
  30:      1386.63   25.260267  ( -2.325606  -2.656358   3.577092)
  31:      1432.09    6.210722  ( -0.015410  -1.508885  -1.983368)
  32:      1489.68   11.608007  ( -0.732099   1.818416  -2.786647)
  33:      1620.98   79.122632  ( -0.764996  -8.819323  -0.870029)
  34:      2373.87    3.968760  ( -1.686981   0.152005   1.048690)
  35:      3038.16    4.471735  (  0.533835   0.001301   2.046156)
  36:      3169.76    6.366117  ( -0.173223  -0.940788   2.334744)
  37:      3208.95    8.062956  ( -2.325579   0.450214   1.565868)
  38:      3274.58   13.003553  (  3.585005   0.384902  -0.056065)
  39:      3459.40  100.630876  ( -4.968752   8.705442  -0.397059)
  40:      3586.34  176.089528  ( 11.833142   6.002810   0.180433)
  41:      3831.05  142.041301  ( -5.299214  -2.350815 -10.413131)

--------------------------
THERMOCHEMISTRY AT 298.15K
--------------------------

Temperature         ... 298.15 K
Pressure            ... 1.00 atm
Total Mass          ... 99.11 AMU

Throughout the following assumptions are being made:
  (1) The electronic state is orbitally nondegenerate
  (2) There are no thermally accessible electronically excited states
  (3) Hindered rotations indicated by low frequency modes) are not
      treated as such but are treated as vibrations and this may
      case some error
  (4) All equations used are the standard statistical mechanics
      equations for an ideal gas
  (5) All vibrations are strinctly harmonic

------------
INNER ENERGY
------------

The inner energy is: U= E(el) + E(ZPE) + E(vib) + E(rot) + E(trans)
    E(el)   - is the total energy from the electronic structure calculation
              = E(kin-el) + E(nuc-el) + E(el-el) + E(nuc-nuc)
    E(ZPE)  - the the zero temperature vibrational energy from the frequency calculation
    E(vib)  - the the finite temperature correction to E(ZPE) due to population
              of excietd vibrational states
    E(rot)  - is the rotational thermal energy
    E(trans)- is the translational thermal energy

Summary of contributions to the inner energy U:
Electronic energy                ...   -340.78417673 Eh
Zero point energy                ...      0.11647899 Eh      73.09 kcal/mol
Thermal vibrational correction   ...      0.00428681 Eh       2.69 kcal/mol
Thermal rotational correction    ...      0.00141627 Eh       0.89 kcal/mol
Thermal translational correction ...      0.00141627 Eh       0.89 kcal/mol
-----------------------------------------------------------------------
Total thermal energy                   -340.66057838 Eh

Summary of corrections to the electronic energy:
(perhaps to be used in another calculation)
Total thermal correction                  0.00711935 Eh       4.47 kcal/mol
Non-thermal (ZPE) correction              0.11647899 Eh      73.09 kcal/mol
-----------------------------------------------------------------------
Total correction                          0.12359835 Eh      77.56 kcal/mol

--------
ENTHALPY
--------

The enthalpy is H = U + kB*T
                kB is Boltzmann's constant
Total free energy                 ...   -340.66057838 Eh
Thermal Enthalpy correction       ...      0.00094421 Eh       0.59 kcal/mol
-----------------------------------------------------------------------
Total Enthalpy                    ...   -340.65963417 Eh

-------
ENTROPY
-------

The entropy contributions are T*S = T*(S(el)+S(vib)+S(rot)+S(trans)
     S(el)   - electronic entropy
     S(vib)  - vibrational entropy
     S(rot)  - rotational entropy
     S(trans)- translational entropy
The entropies will be listed as mutliplied by the temperature to get
units of energy

Electronic entropy                ...      0.00000000 Eh      0.00 kcal/mol
Vibrational entropy               ...      0.00756826 Eh      4.75 kcal/mol
Rotational entropy                ...      0.01195071 Eh      7.50 kcal/mol
Translational entropy             ...      0.01885862 Eh     11.83 kcal/mol
-----------------------------------------------------------------------
Final entropy term                ...      0.03837759 Eh     24.08 kcal/mol

CAUTION: The rotational entropy is not quite correctly treated here
         because it includes a symmetry number that is not yet correctly
         implemented in ORCA!
For a nonlinear molecule the correct rotational entropy is:
    S(rot) = R*(ln(qrot/sn)+1.5)
    R    = 8.31441 J/mol/K = 1.987191683e-3 kcal/mol/K
    qrot = 210205.0877136
    sn is the rotational symmetry number. We have assumed 3 here
       if it is different for your molecule then you should correct
       the printed rotational entropy by manually evaluating the equation
       as given above

For convenience we print out the resulting values for sn=1 - 12:
 sn= 1  qrot/sn=  210205.0877 T*S(rot)=     8.15 kcal/mol T*S(tot)=    24.73 kcal/mol
 sn= 2  qrot/sn=  105102.5439 T*S(rot)=     7.74 kcal/mol T*S(tot)=    24.32 kcal/mol
 sn= 3  qrot/sn=   70068.3626 T*S(rot)=     7.50 kcal/mol T*S(tot)=    24.08 kcal/mol
 sn= 4  qrot/sn=   52551.2719 T*S(rot)=     7.33 kcal/mol T*S(tot)=    23.91 kcal/mol
 sn= 5  qrot/sn=   42041.0175 T*S(rot)=     7.20 kcal/mol T*S(tot)=    23.78 kcal/mol
 sn= 6  qrot/sn=   35034.1813 T*S(rot)=     7.09 kcal/mol T*S(tot)=    23.67 kcal/mol
 sn= 7  qrot/sn=   30029.2982 T*S(rot)=     7.00 kcal/mol T*S(tot)=    23.58 kcal/mol
 sn= 8  qrot/sn=   26275.6360 T*S(rot)=     6.92 kcal/mol T*S(tot)=    23.50 kcal/mol
 sn= 9  qrot/sn=   23356.1209 T*S(rot)=     6.85 kcal/mol T*S(tot)=    23.43 kcal/mol
 sn=10  qrot/sn=   21020.5088 T*S(rot)=     6.79 kcal/mol T*S(tot)=    23.37 kcal/mol
 sn=11  qrot/sn=   19109.5534 T*S(rot)=     6.73 kcal/mol T*S(tot)=    23.31 kcal/mol
 sn=12  qrot/sn=   17517.0906 T*S(rot)=     6.68 kcal/mol T*S(tot)=    23.26 kcal/mol

-------------------
GIBBS FREE ENTHALPY
-------------------

The Gibbs free enthalpy is G = H - T*S

Total enthalpy                    ...   -340.65963417 Eh
Total entropy correction          ...     -0.03837759 Eh    -24.08 kcal/mol
-----------------------------------------------------------------------
Final Gibbs free enthalpy         ...   -340.69801176 Eh

For completeness - the Gibbs free enthalpy minus the electronic energy
G-E(el)                           ...      0.08616496 Eh     54.07 kcal/mol

                             ****ORCA TERMINATED NORMALLY****
TOTAL RUN TIME: 0 days 0 hours 25 minutes 43 seconds 717 msec
