                         Program Version 3.0.3 - RELEASE   -
|  1> ! NORI PBE0 def2-TZVP UseSym TightOPT Freq TightSCF Grid3 FinalGrid5 XYZFile
|  2> % pal
|  3>     nprocs 8
|  4> end
|  5> %method
|  6>     SymThresh 5.0e-2
|  7> end
|  8> % geom
|  9>     MaxIter 10
| 10> end
| 11> % maxcore 2000
| 12> % output
| 13>     printlevel mini
| 14>     print[ P_Basis ] 0
| 15>     print[ P_SCFInfo ] 1
| 16>     print[ P_SCFIterInfo ] 1
| 17>     print[ P_OrbEn ] 0
| 18>     print[ P_Cartesian ] 0
| 19> end
| 20> % elprop
| 21>     Dipole false
| 22> end
| 23> *xyz 1 1
| 24>  O        0.8024825293    -0.9237365211     0.1224699220
| 25>  C        1.9677504633    -0.6975753916     0.0888907962
| 26>  C        2.8583658833    -1.3352093156    -0.9724294863
| 27>  N        4.2869487611    -1.3905718615    -0.5530691715
| 28>  C        5.2327253190    -1.9074036878    -1.6146019388
| 29>  C        6.5782455834    -1.9325804822    -1.0957676614
| 30>  C        7.6892569266    -1.9489619971    -0.6479833447
| 31>  H        2.4603412003     0.0043921856     0.7982834438
| 32>  H        2.5129233433    -2.3453912513    -1.1914215846
| 33>  H        2.8010716799    -0.7370062100    -1.8859591432
| 34>  H        4.6130355206    -0.4624523233    -0.2683600311
| 35>  H        4.3918033598    -1.9840706353     0.2746092546
| 36>  H        4.8805056121    -2.9017337698    -1.8977222733
| 37>  H        5.1341139680    -1.2446485992    -2.4774776114
| 38>  H        8.6848398500    -1.9703801399    -0.2610211703
| 39> *
| 40>
| 41>                          ****END OF INPUT****
 Total Charge           Charge          ....    1
 Multiplicity           Mult            ....    1
 Number of Electrons    NEL             ....   52
FINAL SINGLE POINT ENERGY      -324.707652348087
FINAL SINGLE POINT ENERGY      -324.707652981437
FINAL SINGLE POINT ENERGY      -324.707652337348

CARTESIAN COORDINATES (ANGSTROEM)
---------------------------------
  O     -0.004378   -0.000473    3.409473
  C      0.369943    0.265765    2.314378
  C     -0.575383    0.170232    1.120800
  N      0.154494    0.000417   -0.167294
  C     -0.730140    0.013522   -1.393888
  C      0.073327   -0.172504   -2.577057
  C      0.755067   -0.329969   -3.549391
  H      1.403023    0.622535    2.106789
  H     -1.260175   -0.667416    1.253831
  H     -1.156558    1.094504    1.055771
  H      0.857838    0.736272   -0.280492
  H      0.676256   -0.880632   -0.167316
  H     -1.465540   -0.784167   -1.264398
  H     -1.254625    0.972119   -1.396465
  H      1.350925   -0.470731   -4.425005

FINAL SINGLE POINT ENERGY      -324.707653367490
                    ***********************HURRAY********************
 Multiplicity           Mult            ....    1
 Number of Electrons    NEL             ....   52
 Basis Dimension        Dim             ....  265
FINAL SINGLE POINT ENERGY      -324.707653472426

VIBRATIONAL FREQUENCIES
-----------------------

   0:         0.00 cm**-1
   1:         0.00 cm**-1
   2:         0.00 cm**-1
   3:         0.00 cm**-1
   4:         0.00 cm**-1
   5:         0.00 cm**-1
   6:        24.93 cm**-1
   7:        76.25 cm**-1
   8:        89.00 cm**-1
   9:       106.91 cm**-1
  10:       222.74 cm**-1
  11:       326.93 cm**-1
  12:       337.54 cm**-1
  13:       450.72 cm**-1
  14:       577.05 cm**-1
  15:       723.28 cm**-1
  16:       731.98 cm**-1
  17:       782.73 cm**-1
  18:       815.94 cm**-1
  19:       940.62 cm**-1
  20:       970.15 cm**-1
  21:      1001.90 cm**-1
  22:      1019.46 cm**-1
  23:      1077.69 cm**-1
  24:      1110.48 cm**-1
  25:      1186.54 cm**-1
  26:      1292.70 cm**-1
  27:      1332.92 cm**-1
  28:      1382.40 cm**-1
  29:      1394.84 cm**-1
  30:      1415.73 cm**-1
  31:      1430.54 cm**-1
  32:      1457.88 cm**-1
  33:      1480.17 cm**-1
  34:      1651.64 cm**-1
  35:      1880.31 cm**-1
  36:      2258.82 cm**-1
  37:      2902.84 cm**-1
  38:      3081.60 cm**-1
  39:      3087.03 cm**-1
  40:      3132.95 cm**-1
  41:      3161.60 cm**-1
  42:      3418.81 cm**-1
  43:      3449.76 cm**-1
  44:      3467.22 cm**-1

IR SPECTRUM
-----------

 Mode    freq (cm**-1)   T**2         TX         TY         TZ
-------------------------------------------------------------------
   7:        76.25   11.147222  ( -1.734915  -2.850318   0.113927)
   8:        89.00    1.349747  ( -0.752263  -0.847725   0.255362)
   9:       106.91    2.319883  (  1.480335  -0.174773   0.312962)
  10:       222.74   16.250126  (  4.024746   0.157407   0.163624)
  11:       326.93   19.826937  ( -0.461891  -4.412481   0.378956)
  12:       337.54    1.054710  (  0.625391   0.245717  -0.776672)
  13:       450.72    1.846066  ( -0.528565   0.313737  -1.211715)
  14:       577.05   42.802018  ( -3.111829   0.260165  -5.748987)
  15:       723.28    8.349899  (  0.146067   2.885922   0.003969)
  16:       731.98   42.718923  (  0.789730   6.468793  -0.499969)
  17:       782.73   27.256443  (  4.622596  -0.473689   2.379846)
  18:       815.94    5.655471  ( -0.970763  -2.170141  -0.059798)
  19:       940.62   92.280924  (  4.175580   0.984333   8.595147)
  20:       970.15    1.680436  (  0.871496   0.911387   0.300508)
  21:      1001.90    3.739400  (  0.224715  -0.207432  -1.909417)
  22:      1019.46    7.147914  ( -2.363078   0.100485   1.246467)
  23:      1077.69   27.692671  ( -0.721600  -1.107470  -5.093670)
  24:      1110.48    3.553762  (  1.095041  -0.873578   1.261550)
  25:      1186.54    0.841051  (  0.650692   0.137048   0.631561)
  26:      1292.70    7.649295  (  1.215140   0.005571   2.484492)
  27:      1332.92    8.017723  (  0.242813   2.815191   0.182932)
  28:      1382.40    2.419336  (  1.129124  -0.437756  -0.976107)
  29:      1394.84    1.338194  (  0.811486  -0.097489  -0.818646)
  30:      1415.73    8.990030  ( -2.449371   0.077024   1.727623)
  31:      1430.54  123.211816  ( -1.186200   0.821269  11.005919)
  32:      1457.88   13.667398  ( -2.392183   0.070115  -2.817790)
  33:      1480.17   19.719690  (  4.350704  -0.483400   0.746586)
  34:      1651.64   39.248074  ( -6.222636   0.713138   0.135323)
  35:      1880.31  159.163990  ( -1.647602  -2.021673  12.343510)
  36:      2258.82   43.011667  (  2.511645  -0.779518  -6.007966)
  37:      2902.84   50.915647  ( -6.550171  -2.252040   1.714416)
  38:      3081.60    2.723888  (  0.168869  -0.217753  -1.627254)
  39:      3087.03    4.235861  ( -1.734718   0.278225  -1.072010)
  40:      3132.95    1.962945  ( -0.243246  -1.363765   0.209578)
  41:      3161.60    2.857888  ( -0.439203  -1.574581   0.430911)
  42:      3418.81   39.720619  ( -6.270668   0.561146  -0.290618)
  43:      3449.76  100.880642  (  5.415964  -1.285297  -8.360382)
  44:      3467.22   79.873620  (  0.436787   8.916630  -0.420172)

--------------------------
THERMOCHEMISTRY AT 298.15K
--------------------------

Temperature         ... 298.15 K
Pressure            ... 1.00 atm
Total Mass          ... 98.12 AMU

Throughout the following assumptions are being made:
  (1) The electronic state is orbitally nondegenerate
  (2) There are no thermally accessible electronically excited states
  (3) Hindered rotations indicated by low frequency modes) are not
      treated as such but are treated as vibrations and this may
      case some error
  (4) All equations used are the standard statistical mechanics
      equations for an ideal gas
  (5) All vibrations are strinctly harmonic

------------
INNER ENERGY
------------

The inner energy is: U= E(el) + E(ZPE) + E(vib) + E(rot) + E(trans)
    E(el)   - is the total energy from the electronic structure calculation
              = E(kin-el) + E(nuc-el) + E(el-el) + E(nuc-nuc)
    E(ZPE)  - the the zero temperature vibrational energy from the frequency calculation
    E(vib)  - the the finite temperature correction to E(ZPE) due to population
              of excietd vibrational states
    E(rot)  - is the rotational thermal energy
    E(trans)- is the translational thermal energy

Summary of contributions to the inner energy U:
Electronic energy                ...   -324.70765347 Eh
Zero point energy                ...      0.12581790 Eh      78.95 kcal/mol
Thermal vibrational correction   ...      0.00463789 Eh       2.91 kcal/mol
Thermal rotational correction    ...      0.00141627 Eh       0.89 kcal/mol
Thermal translational correction ...      0.00141627 Eh       0.89 kcal/mol
-----------------------------------------------------------------------
Total thermal energy                   -324.57436513 Eh

Summary of corrections to the electronic energy:
(perhaps to be used in another calculation)
Total thermal correction                  0.00747044 Eh       4.69 kcal/mol
Non-thermal (ZPE) correction              0.12581790 Eh      78.95 kcal/mol
-----------------------------------------------------------------------
Total correction                          0.13328834 Eh      83.64 kcal/mol

--------
ENTHALPY
--------

The enthalpy is H = U + kB*T
                kB is Boltzmann's constant
Total free energy                 ...   -324.57436513 Eh
Thermal Enthalpy correction       ...      0.00094421 Eh       0.59 kcal/mol
-----------------------------------------------------------------------
Total Enthalpy                    ...   -324.57342092 Eh

-------
ENTROPY
-------

The entropy contributions are T*S = T*(S(el)+S(vib)+S(rot)+S(trans)
     S(el)   - electronic entropy
     S(vib)  - vibrational entropy
     S(rot)  - rotational entropy
     S(trans)- translational entropy
The entropies will be listed as mutliplied by the temperature to get
units of energy

Electronic entropy                ...      0.00000000 Eh      0.00 kcal/mol
Vibrational entropy               ...      0.00874807 Eh      5.49 kcal/mol
Rotational entropy                ...      0.01216027 Eh      7.63 kcal/mol
Translational entropy             ...      0.01884443 Eh     11.83 kcal/mol
-----------------------------------------------------------------------
Final entropy term                ...      0.03975277 Eh     24.95 kcal/mol

CAUTION: The rotational entropy is not quite correctly treated here
         because it includes a symmetry number that is not yet correctly
         implemented in ORCA!
For a nonlinear molecule the correct rotational entropy is:
    S(rot) = R*(ln(qrot/sn)+1.5)
    R    = 8.31441 J/mol/K = 1.987191683e-3 kcal/mol/K
    qrot = 262441.1853976
    sn is the rotational symmetry number. We have assumed 3 here
       if it is different for your molecule then you should correct
       the printed rotational entropy by manually evaluating the equation
       as given above

For convenience we print out the resulting values for sn=1 - 12:
 sn= 1  qrot/sn=  262441.1854 T*S(rot)=     8.28 kcal/mol T*S(tot)=    25.60 kcal/mol
 sn= 2  qrot/sn=  131220.5927 T*S(rot)=     7.87 kcal/mol T*S(tot)=    25.19 kcal/mol
 sn= 3  qrot/sn=   87480.3951 T*S(rot)=     7.63 kcal/mol T*S(tot)=    24.95 kcal/mol
 sn= 4  qrot/sn=   65610.2963 T*S(rot)=     7.46 kcal/mol T*S(tot)=    24.77 kcal/mol
 sn= 5  qrot/sn=   52488.2371 T*S(rot)=     7.33 kcal/mol T*S(tot)=    24.64 kcal/mol
 sn= 6  qrot/sn=   43740.1976 T*S(rot)=     7.22 kcal/mol T*S(tot)=    24.53 kcal/mol
 sn= 7  qrot/sn=   37491.5979 T*S(rot)=     7.13 kcal/mol T*S(tot)=    24.44 kcal/mol
 sn= 8  qrot/sn=   32805.1482 T*S(rot)=     7.05 kcal/mol T*S(tot)=    24.36 kcal/mol
 sn= 9  qrot/sn=   29160.1317 T*S(rot)=     6.98 kcal/mol T*S(tot)=    24.29 kcal/mol
 sn=10  qrot/sn=   26244.1185 T*S(rot)=     6.92 kcal/mol T*S(tot)=    24.23 kcal/mol
 sn=11  qrot/sn=   23858.2896 T*S(rot)=     6.86 kcal/mol T*S(tot)=    24.18 kcal/mol
 sn=12  qrot/sn=   21870.0988 T*S(rot)=     6.81 kcal/mol T*S(tot)=    24.12 kcal/mol

-------------------
GIBBS FREE ENTHALPY
-------------------

The Gibbs free enthalpy is G = H - T*S

Total enthalpy                    ...   -324.57342092 Eh
Total entropy correction          ...     -0.03975277 Eh    -24.95 kcal/mol
-----------------------------------------------------------------------
Final Gibbs free enthalpy         ...   -324.61317369 Eh

For completeness - the Gibbs free enthalpy minus the electronic energy
G-E(el)                           ...      0.09447978 Eh     59.29 kcal/mol

                             ****ORCA TERMINATED NORMALLY****
TOTAL RUN TIME: 0 days 0 hours 26 minutes 27 seconds 404 msec
