                         Program Version 3.0.3 - RELEASE   -
|  1> ! NORI PBE0 def2-TZVP UseSym TightOPT Freq TightSCF Grid3 FinalGrid5 XYZFile
|  2> % pal
|  3>     nprocs 8
|  4> end
|  5> %method
|  6>     SymThresh 5.0e-2
|  7> end
|  8> % geom
|  9>     MaxIter 10
| 10> end
| 11> % maxcore 2000
| 12> % output
| 13>     printlevel mini
| 14>     print[ P_Basis ] 0
| 15>     print[ P_SCFInfo ] 1
| 16>     print[ P_SCFIterInfo ] 1
| 17>     print[ P_OrbEn ] 0
| 18>     print[ P_Cartesian ] 0
| 19> end
| 20> % elprop
| 21>     Dipole false
| 22> end
| 23> *xyz 1 1
| 24>  O        2.6409533174     0.9868283696    -0.0712711567
| 25>  C        1.8654949032    -0.1200608215     0.3277834114
| 26>  C        2.3175200566    -0.4252199412     1.7378416014
| 27>  N        3.8088816689    -0.4894825117     1.7477972595
| 28>  C        4.4387609381    -0.4632713747     3.0931730534
| 29>  C        5.9218390911    -0.6026395318     3.0325114964
| 30>  C        6.6667290767    -0.6683488624     1.9401607381
| 31>  H        2.3644927002     1.3100969789    -0.9331965736
| 32>  H        2.0266971245    -0.9840437590    -0.3308250639
| 33>  H        0.7934518131     0.1000553916     0.3447613877
| 34>  H        1.9187202379    -1.3676524644     2.1119842418
| 35>  H        2.0366225416     0.3833989036     2.4137383397
| 36>  H        4.1255950340     0.3099450345     1.1825969907
| 37>  H        4.1264784864    -1.3271369152     1.2537038748
| 38>  H        3.9916110803    -1.2731682426     3.6763836249
| 39>  H        4.1461670100     0.4785167384     3.5657804376
| 40>  H        6.3921422116    -0.6498330897     4.0101316523
| 41>  H        6.2744964415    -0.6188626024     0.9282513174
| 42>  H        7.7419262669    -0.7720612999     2.0130833671
| 43> *
| 44>
| 45>                          ****END OF INPUT****
 Total Charge           Charge          ....    1
 Multiplicity           Mult            ....    1
 Number of Electrons    NEL             ....   56
FINAL SINGLE POINT ENERGY      -327.204469260805
FINAL SINGLE POINT ENERGY      -327.204472146366
FINAL SINGLE POINT ENERGY      -327.204474160338
FINAL SINGLE POINT ENERGY      -327.204475087152

CARTESIAN COORDINATES (ANGSTROEM)
---------------------------------
  O     -0.002200   -0.009521    2.417571
  C      1.332465    0.141394    1.990238
  C      1.235024    0.775170    0.620672
  N      0.249488   -0.002528   -0.187460
  C     -0.210256    0.656322   -1.437855
  C     -1.153191   -0.193351   -2.219937
  C     -1.633399   -1.375767   -1.867718
  H     -0.041018   -0.348357    3.316283
  H      1.851784   -0.824707    1.939996
  H      1.911038    0.804726    2.640751
  H      2.190324    0.791426    0.097054
  H      0.843181    1.790032    0.696016
  H     -0.544621   -0.183533    0.441087
  H      0.635521   -0.920162   -0.421762
  H      0.680631    0.897483   -2.024037
  H     -0.676167    1.602191   -1.148238
  H     -1.448369    0.248769   -3.166783
  H     -1.394900   -1.880612   -0.935820
  H     -2.316524   -1.907174   -2.517827

FINAL SINGLE POINT ENERGY      -327.204475524333
                    ***********************HURRAY********************
 Multiplicity           Mult            ....    1
 Number of Electrons    NEL             ....   56
 Basis Dimension        Dim             ....  289
FINAL SINGLE POINT ENERGY      -327.204475685652

VIBRATIONAL FREQUENCIES
-----------------------

   0:         0.00 cm**-1
   1:         0.00 cm**-1
   2:         0.00 cm**-1
   3:         0.00 cm**-1
   4:         0.00 cm**-1
   5:         0.00 cm**-1
   6:        58.65 cm**-1
   7:        83.55 cm**-1
   8:       139.42 cm**-1
   9:       149.37 cm**-1
  10:       199.85 cm**-1
  11:       288.18 cm**-1
  12:       309.65 cm**-1
  13:       347.62 cm**-1
  14:       523.48 cm**-1
  15:       565.25 cm**-1
  16:       584.48 cm**-1
  17:       809.08 cm**-1
  18:       875.34 cm**-1
  19:       921.54 cm**-1
  20:       946.63 cm**-1
  21:       976.34 cm**-1
  22:       990.50 cm**-1
  23:      1012.67 cm**-1
  24:      1032.07 cm**-1
  25:      1057.40 cm**-1
  26:      1103.09 cm**-1
  27:      1133.89 cm**-1
  28:      1149.66 cm**-1
  29:      1172.58 cm**-1
  30:      1237.74 cm**-1
  31:      1290.91 cm**-1
  32:      1323.70 cm**-1
  33:      1334.11 cm**-1
  34:      1357.88 cm**-1
  35:      1386.78 cm**-1
  36:      1412.02 cm**-1
  37:      1431.65 cm**-1
  38:      1455.16 cm**-1
  39:      1467.92 cm**-1
  40:      1477.68 cm**-1
  41:      1494.61 cm**-1
  42:      1518.02 cm**-1
  43:      1663.07 cm**-1
  44:      1732.84 cm**-1
  45:      3025.80 cm**-1
  46:      3073.81 cm**-1
  47:      3088.09 cm**-1
  48:      3108.48 cm**-1
  49:      3118.62 cm**-1
  50:      3156.14 cm**-1
  51:      3171.68 cm**-1
  52:      3189.29 cm**-1
  53:      3251.28 cm**-1
  54:      3365.88 cm**-1
  55:      3459.30 cm**-1
  56:      3869.07 cm**-1

IR SPECTRUM
-----------

 Mode    freq (cm**-1)   T**2         TX         TY         TZ
-------------------------------------------------------------------
   6:        58.65    1.794354  (  0.719019   1.112693  -0.198191)
   7:        83.55    2.385971  ( -1.321641   0.509580  -0.616088)
   8:       139.42    1.381807  ( -1.171480   0.047051   0.085016)
   9:       149.37    1.634447  (  0.586329  -0.237105   1.111057)
  10:       199.85   31.765440  (  1.452552  -3.924603  -3.775318)
  11:       288.18   57.444827  ( -0.822709   7.529806   0.264576)
  12:       309.65   74.649132  ( -0.475617  -6.788135  -5.323922)
  13:       347.62    4.553972  ( -0.558764  -1.138057   1.716561)
  14:       523.48   10.905896  ( -2.510464  -1.045538   1.873584)
  15:       565.25   18.177928  ( -2.885670   1.888931   2.506547)
  16:       584.48   12.451403  (  3.221001   0.076553   1.438990)
  17:       809.08    5.232803  ( -1.000155   1.519973   1.386425)
  18:       875.34    7.559191  (  2.736050   0.166610  -0.213221)
  19:       921.54    2.576901  ( -0.696083  -1.223596  -0.771481)
  20:       946.63    0.412503  ( -0.152300   0.055089  -0.621509)
  21:       976.34   54.948440  (  5.516108  -3.440085  -3.561854)
  22:       990.50    1.969646  (  1.301617   0.378336  -0.363732)
  23:      1012.67    4.503349  (  0.967615  -0.285667  -1.866940)
  24:      1032.07    8.087045  ( -1.757122   1.708562   1.442354)
  25:      1057.40   38.811580  ( -6.207742  -0.402557   0.336856)
  26:      1103.09   50.790099  ( -4.857395  -1.966105   4.830139)
  27:      1133.89   14.760134  (  3.689184   0.114737  -1.066249)
  28:      1149.66    1.666590  ( -0.231517   1.149307  -0.540448)
  29:      1172.58    9.177022  ( -1.044527   0.181312   2.837800)
  30:      1237.74   15.643772  (  2.592703  -1.322941  -2.677964)
  31:      1290.91   38.790524  (  6.046095   0.276471   1.469292)
  32:      1323.70   19.800797  ( -2.667244   0.088601  -3.560724)
  33:      1334.11   27.869998  (  3.311942  -0.247384   4.103637)
  34:      1357.88   13.127056  ( -2.545623   1.068767   2.346187)
  35:      1386.78    6.782996  (  0.370183  -0.907260  -2.413056)
  36:      1412.02    8.731955  (  1.111551   0.125861   2.735063)
  37:      1431.65  119.036858  ( -5.950732  -1.900332  -8.945076)
  38:      1455.16    9.659550  (  1.589137  -0.433926   2.635508)
  39:      1467.92   12.176975  ( -0.028508   2.237488  -2.677650)
  40:      1477.68   15.050480  ( -2.383724  -1.522247  -2.655391)
  41:      1494.61   32.278104  (  1.969616   5.079624  -1.611252)
  42:      1518.02    3.770886  (  0.456997  -1.090967   1.540075)
  43:      1663.07   27.112772  ( -2.607132  -4.468863   0.587285)
  44:      1732.84    3.569621  (  0.681129   1.744190  -0.251966)
  45:      3025.80   23.648949  ( -4.089433   2.570459   0.564117)
  46:      3073.81    1.643852  ( -0.887789  -0.924687   0.025233)
  47:      3088.09    5.846854  ( -1.113930  -1.965208  -0.862537)
  48:      3108.48    1.448664  (  0.260275   1.122187  -0.348738)
  49:      3118.62    0.095450  (  0.040959  -0.151700   0.266006)
  50:      3156.14   10.641387  ( -1.636252  -0.004359  -2.822065)
  51:      3171.68    0.330957  (  0.474702  -0.248213  -0.209775)
  52:      3189.29    0.673842  (  0.227792  -0.315110   0.722952)
  53:      3251.28    1.099888  (  0.245106   0.882187  -0.511427)
  54:      3365.88   84.716350  ( -4.343672  -2.456582   7.733955)
  55:      3459.30   56.819682  (  3.362753  -5.102666  -4.412977)
  56:      3869.07  129.679599  ( -2.749262  -3.408694  10.511991)

--------------------------
THERMOCHEMISTRY AT 298.15K
--------------------------

Temperature         ... 298.15 K
Pressure            ... 1.00 atm
Total Mass          ... 102.16 AMU

Throughout the following assumptions are being made:
  (1) The electronic state is orbitally nondegenerate
  (2) There are no thermally accessible electronically excited states
  (3) Hindered rotations indicated by low frequency modes) are not
      treated as such but are treated as vibrations and this may
      case some error
  (4) All equations used are the standard statistical mechanics
      equations for an ideal gas
  (5) All vibrations are strinctly harmonic

------------
INNER ENERGY
------------

The inner energy is: U= E(el) + E(ZPE) + E(vib) + E(rot) + E(trans)
    E(el)   - is the total energy from the electronic structure calculation
              = E(kin-el) + E(nuc-el) + E(el-el) + E(nuc-nuc)
    E(ZPE)  - the the zero temperature vibrational energy from the frequency calculation
    E(vib)  - the the finite temperature correction to E(ZPE) due to population
              of excietd vibrational states
    E(rot)  - is the rotational thermal energy
    E(trans)- is the translational thermal energy

Summary of contributions to the inner energy U:
Electronic energy                ...   -327.20447569 Eh
Zero point energy                ...      0.17517245 Eh     109.92 kcal/mol
Thermal vibrational correction   ...      0.00581293 Eh       3.65 kcal/mol
Thermal rotational correction    ...      0.00141627 Eh       0.89 kcal/mol
Thermal translational correction ...      0.00141627 Eh       0.89 kcal/mol
-----------------------------------------------------------------------
Total thermal energy                   -327.02065777 Eh

Summary of corrections to the electronic energy:
(perhaps to be used in another calculation)
Total thermal correction                  0.00864547 Eh       5.43 kcal/mol
Non-thermal (ZPE) correction              0.17517245 Eh     109.92 kcal/mol
-----------------------------------------------------------------------
Total correction                          0.18381792 Eh     115.35 kcal/mol

--------
ENTHALPY
--------

The enthalpy is H = U + kB*T
                kB is Boltzmann's constant
Total free energy                 ...   -327.02065777 Eh
Thermal Enthalpy correction       ...      0.00094421 Eh       0.59 kcal/mol
-----------------------------------------------------------------------
Total Enthalpy                    ...   -327.01971356 Eh

-------
ENTROPY
-------

The entropy contributions are T*S = T*(S(el)+S(vib)+S(rot)+S(trans)
     S(el)   - electronic entropy
     S(vib)  - vibrational entropy
     S(rot)  - rotational entropy
     S(trans)- translational entropy
The entropies will be listed as mutliplied by the temperature to get
units of energy

Electronic entropy                ...      0.00000000 Eh      0.00 kcal/mol
Vibrational entropy               ...      0.01096074 Eh      6.88 kcal/mol
Rotational entropy                ...      0.01234796 Eh      7.75 kcal/mol
Translational entropy             ...      0.01890147 Eh     11.86 kcal/mol
-----------------------------------------------------------------------
Final entropy term                ...      0.04221017 Eh     26.49 kcal/mol

CAUTION: The rotational entropy is not quite correctly treated here
         because it includes a symmetry number that is not yet correctly
         implemented in ORCA!
For a nonlinear molecule the correct rotational entropy is:
    S(rot) = R*(ln(qrot/sn)+1.5)
    R    = 8.31441 J/mol/K = 1.987191683e-3 kcal/mol/K
    qrot = 320158.0851743
    sn is the rotational symmetry number. We have assumed 3 here
       if it is different for your molecule then you should correct
       the printed rotational entropy by manually evaluating the equation
       as given above

For convenience we print out the resulting values for sn=1 - 12:
 sn= 1  qrot/sn=  320158.0852 T*S(rot)=     8.40 kcal/mol T*S(tot)=    27.14 kcal/mol
 sn= 2  qrot/sn=  160079.0426 T*S(rot)=     7.99 kcal/mol T*S(tot)=    26.73 kcal/mol
 sn= 3  qrot/sn=  106719.3617 T*S(rot)=     7.75 kcal/mol T*S(tot)=    26.49 kcal/mol
 sn= 4  qrot/sn=   80039.5213 T*S(rot)=     7.58 kcal/mol T*S(tot)=    26.32 kcal/mol
 sn= 5  qrot/sn=   64031.6170 T*S(rot)=     7.45 kcal/mol T*S(tot)=    26.18 kcal/mol
 sn= 6  qrot/sn=   53359.6809 T*S(rot)=     7.34 kcal/mol T*S(tot)=    26.08 kcal/mol
 sn= 7  qrot/sn=   45736.8693 T*S(rot)=     7.25 kcal/mol T*S(tot)=    25.99 kcal/mol
 sn= 8  qrot/sn=   40019.7606 T*S(rot)=     7.17 kcal/mol T*S(tot)=    25.91 kcal/mol
 sn= 9  qrot/sn=   35573.1206 T*S(rot)=     7.10 kcal/mol T*S(tot)=    25.84 kcal/mol
 sn=10  qrot/sn=   32015.8085 T*S(rot)=     7.04 kcal/mol T*S(tot)=    25.77 kcal/mol
 sn=11  qrot/sn=   29105.2805 T*S(rot)=     6.98 kcal/mol T*S(tot)=    25.72 kcal/mol
 sn=12  qrot/sn=   26679.8404 T*S(rot)=     6.93 kcal/mol T*S(tot)=    25.67 kcal/mol

-------------------
GIBBS FREE ENTHALPY
-------------------

The Gibbs free enthalpy is G = H - T*S

Total enthalpy                    ...   -327.01971356 Eh
Total entropy correction          ...     -0.04221017 Eh    -26.49 kcal/mol
-----------------------------------------------------------------------
Final Gibbs free enthalpy         ...   -327.06192373 Eh

For completeness - the Gibbs free enthalpy minus the electronic energy
G-E(el)                           ...      0.14255196 Eh     89.45 kcal/mol

                             ****ORCA TERMINATED NORMALLY****
TOTAL RUN TIME: 0 days 0 hours 40 minutes 45 seconds 662 msec
