                         Program Version 3.0.3 - RELEASE   -
|  1> ! NORI PBE0 def2-TZVP UseSym TightOPT Freq TightSCF Grid3 FinalGrid5 XYZFile
|  2> % pal
|  3>     nprocs 8
|  4> end
|  5> %method
|  6>     SymThresh 5.0e-2
|  7> end
|  8> % geom
|  9>     MaxIter 10
| 10> end
| 11> % maxcore 2000
| 12> % output
| 13>     printlevel mini
| 14>     print[ P_Basis ] 0
| 15>     print[ P_SCFInfo ] 1
| 16>     print[ P_SCFIterInfo ] 1
| 17>     print[ P_OrbEn ] 0
| 18>     print[ P_Cartesian ] 0
| 19> end
| 20> % elprop
| 21>     Dipole false
| 22> end
| 23> *xyz 1 1
| 24>  O        2.7053852685    -0.4599312666     1.2192113830
| 25>  C        1.8146957891     0.0640095905     0.2612198092
| 26>  C        2.2618487104    -0.5365368740    -1.0531239375
| 27>  N        3.7355719342    -0.3316207205    -1.1808594069
| 28>  C        4.4114621800    -1.1745236850    -2.2218403185
| 29>  C        5.8160016768    -0.8463088072    -2.2937085318
| 30>  C        6.9794056703    -0.5653109331    -2.3408645085
| 31>  H        2.4772073744    -0.1606909730     2.1038950394
| 32>  H        0.7770125582    -0.2320853676     0.4437282623
| 33>  H        1.8569072860     1.1608627212     0.2267579079
| 34>  H        2.0969524023    -1.6147860411    -1.0543682914
| 35>  H        1.7631128565    -0.0893723687    -1.9122955822
| 36>  H        3.9446879774     0.6509156185    -1.3705772059
| 37>  H        4.1304920593    -0.5299012556    -0.2508983935
| 38>  H        4.2513096254    -2.2183058516    -1.9423644919
| 39>  H        3.9032502135    -0.9907793660    -3.1718870238
| 40>  H        8.0180364176    -0.3231644202    -2.3942747099
| 41> *
| 42>
| 43>                          ****END OF INPUT****
 Total Charge           Charge          ....    1
 Multiplicity           Mult            ....    1
 Number of Electrons    NEL             ....   54
FINAL SINGLE POINT ENERGY      -325.947407583041

CARTESIAN COORDINATES (ANGSTROEM)
---------------------------------
  O      0.000352   -0.001484    2.477174
  C      1.227462    0.544313    2.050661
  C      0.953520    1.075161    0.661042
  N      0.275126   -0.000145   -0.122580
  C     -0.402592    0.455372   -1.381376
  C     -0.968505   -0.674953   -2.079853
  C     -1.434516   -1.621317   -2.647165
  H      0.064211   -0.336046    3.376196
  H      1.561588    1.374643    2.680590
  H      2.022471   -0.212663    2.032284
  H      0.257417    1.913863    0.704554
  H      1.860499    1.379528    0.139584
  H      0.937251   -0.742450   -0.358765
  H     -0.410558   -0.426233    0.516536
  H     -1.168058    1.177993   -1.089505
  H      0.345815    0.972553   -1.986923
  H     -1.853368   -2.456671   -3.163790

FINAL SINGLE POINT ENERGY      -325.947408002074
                    ***********************HURRAY********************
 Multiplicity           Mult            ....    1
 Number of Electrons    NEL             ....   54
 Basis Dimension        Dim             ....  277
FINAL SINGLE POINT ENERGY      -325.947408171760

VIBRATIONAL FREQUENCIES
-----------------------

   0:         0.00 cm**-1
   1:         0.00 cm**-1
   2:         0.00 cm**-1
   3:         0.00 cm**-1
   4:         0.00 cm**-1
   5:         0.00 cm**-1
   6:        63.67 cm**-1
   7:        86.96 cm**-1
   8:       118.72 cm**-1
   9:       195.53 cm**-1
  10:       255.70 cm**-1
  11:       303.91 cm**-1
  12:       331.02 cm**-1
  13:       344.13 cm**-1
  14:       485.71 cm**-1
  15:       561.31 cm**-1
  16:       726.37 cm**-1
  17:       774.14 cm**-1
  18:       801.06 cm**-1
  19:       873.69 cm**-1
  20:       923.80 cm**-1
  21:       973.84 cm**-1
  22:       999.64 cm**-1
  23:      1022.60 cm**-1
  24:      1052.99 cm**-1
  25:      1128.29 cm**-1
  26:      1138.05 cm**-1
  27:      1171.67 cm**-1
  28:      1238.43 cm**-1
  29:      1287.22 cm**-1
  30:      1329.01 cm**-1
  31:      1348.22 cm**-1
  32:      1384.66 cm**-1
  33:      1408.42 cm**-1
  34:      1430.55 cm**-1
  35:      1454.55 cm**-1
  36:      1474.93 cm**-1
  37:      1490.39 cm**-1
  38:      1518.05 cm**-1
  39:      1659.32 cm**-1
  40:      2259.87 cm**-1
  41:      3028.03 cm**-1
  42:      3081.11 cm**-1
  43:      3088.46 cm**-1
  44:      3106.56 cm**-1
  45:      3131.11 cm**-1
  46:      3170.41 cm**-1
  47:      3358.43 cm**-1
  48:      3455.43 cm**-1
  49:      3467.70 cm**-1
  50:      3867.83 cm**-1

IR SPECTRUM
-----------

 Mode    freq (cm**-1)   T**2         TX         TY         TZ
-------------------------------------------------------------------
   6:        63.67    1.634620  ( -0.685622  -1.059193  -0.206525)
   7:        86.96    3.247467  ( -1.516473   0.683016  -0.693734)
   8:       118.72    0.841518  ( -0.678465  -0.605661   0.119912)
   9:       195.53   27.105713  ( -2.201058   3.011738   3.631871)
  10:       255.70    2.380202  ( -0.796140   1.317799  -0.098838)
  11:       303.91  124.165645  ( -3.669121   9.785933   3.865064)
  12:       331.02   20.567556  (  3.635236   0.002542  -2.711569)
  13:       344.13    7.888289  (  0.889650  -1.733079   2.023178)
  14:       485.71   32.979607  ( -0.030910   2.155527  -5.322815)
  15:       561.31   23.542360  (  3.784067   0.820888   2.923925)
  16:       726.37   40.996158  (  5.436157  -0.727245  -3.303857)
  17:       774.14   29.952596  (  1.719196  -3.749967   3.596486)
  18:       801.06    5.892076  ( -1.443812   0.986127   1.683757)
  19:       873.69   10.105597  ( -3.038201  -0.924233  -0.143973)
  20:       923.80    1.066046  (  0.175359   1.017418   0.012510)
  21:       973.84    7.737799  ( -1.103039   1.514618  -2.055976)
  22:       999.64    7.380069  (  0.423091   0.489097  -2.638531)
  23:      1022.60   23.511841  ( -0.758149  -0.705224  -4.737057)
  24:      1052.99   53.425371  (  6.010669   3.577250  -2.121440)
  25:      1128.29   35.117213  (  4.931973   1.970551  -2.628647)
  26:      1138.05    1.715780  (  1.037781   0.795389  -0.078394)
  27:      1171.67   12.056068  ( -1.557456  -0.246551   3.093479)
  28:      1238.43   14.007974  ( -3.008641   0.229645   2.214343)
  29:      1287.22   32.415670  (  5.155460   2.045751   1.285227)
  30:      1329.01   23.711524  ( -3.280442  -0.292119  -3.586766)
  31:      1348.22   16.394665  (  3.752924   0.635384  -1.380766)
  32:      1384.66   26.073766  ( -0.711057  -2.403203  -4.448908)
  33:      1408.42    3.918542  (  0.904996   1.729498   0.329182)
  34:      1430.55  156.314937  (  5.645241   4.979000   9.982773)
  35:      1454.55   12.075374  ( -1.917340  -1.171340  -2.650876)
  36:      1474.93    2.087251  ( -0.443840  -1.155084  -0.745679)
  37:      1490.39   24.359948  ( -0.804048   3.802356  -3.042292)
  38:      1518.05    3.847628  (  0.775073  -0.911447   1.554398)
  39:      1659.32   36.596621  ( -0.394004  -5.704927   1.973623)
  40:      2259.87   30.405493  (  2.527375   3.566925   3.360791)
  41:      3028.03   22.535805  (  4.601482  -1.071002  -0.463814)
  42:      3081.11    2.495174  ( -0.914477  -0.816760  -0.995896)
  43:      3088.46    5.136008  (  0.336028   2.140789   0.663412)
  44:      3106.56    1.706872  (  0.215101  -1.207215   0.450816)
  45:      3131.11    1.043142  ( -0.974378   0.203214   0.228985)
  46:      3170.41    0.224928  (  0.422873  -0.087734  -0.195984)
  47:      3358.43  113.468065  ( -3.263963  -3.875340   9.369971)
  48:      3455.43   93.400240  ( -4.084624  -7.314195  -4.818572)
  49:      3467.70   67.193173  (  5.499348  -4.501359  -4.085108)
  50:      3867.83  133.556120  ( -1.605100  -4.062025  10.699520)

--------------------------
THERMOCHEMISTRY AT 298.15K
--------------------------

Temperature         ... 298.15 K
Pressure            ... 1.00 atm
Total Mass          ... 100.14 AMU

Throughout the following assumptions are being made:
  (1) The electronic state is orbitally nondegenerate
  (2) There are no thermally accessible electronically excited states
  (3) Hindered rotations indicated by low frequency modes) are not
      treated as such but are treated as vibrations and this may
      case some error
  (4) All equations used are the standard statistical mechanics
      equations for an ideal gas
  (5) All vibrations are strinctly harmonic

------------
INNER ENERGY
------------

The inner energy is: U= E(el) + E(ZPE) + E(vib) + E(rot) + E(trans)
    E(el)   - is the total energy from the electronic structure calculation
              = E(kin-el) + E(nuc-el) + E(el-el) + E(nuc-nuc)
    E(ZPE)  - the the zero temperature vibrational energy from the frequency calculation
    E(vib)  - the the finite temperature correction to E(ZPE) due to population
              of excietd vibrational states
    E(rot)  - is the rotational thermal energy
    E(trans)- is the translational thermal energy

Summary of contributions to the inner energy U:
Electronic energy                ...   -325.94740817 Eh
Zero point energy                ...      0.15120537 Eh      94.88 kcal/mol
Thermal vibrational correction   ...      0.00556615 Eh       3.49 kcal/mol
Thermal rotational correction    ...      0.00141627 Eh       0.89 kcal/mol
Thermal translational correction ...      0.00141627 Eh       0.89 kcal/mol
-----------------------------------------------------------------------
Total thermal energy                   -325.78780410 Eh

Summary of corrections to the electronic energy:
(perhaps to be used in another calculation)
Total thermal correction                  0.00839870 Eh       5.27 kcal/mol
Non-thermal (ZPE) correction              0.15120537 Eh      94.88 kcal/mol
-----------------------------------------------------------------------
Total correction                          0.15960407 Eh     100.15 kcal/mol

--------
ENTHALPY
--------

The enthalpy is H = U + kB*T
                kB is Boltzmann's constant
Total free energy                 ...   -325.78780410 Eh
Thermal Enthalpy correction       ...      0.00094421 Eh       0.59 kcal/mol
-----------------------------------------------------------------------
Total Enthalpy                    ...   -325.78685989 Eh

-------
ENTROPY
-------

The entropy contributions are T*S = T*(S(el)+S(vib)+S(rot)+S(trans)
     S(el)   - electronic entropy
     S(vib)  - vibrational entropy
     S(rot)  - rotational entropy
     S(trans)- translational entropy
The entropies will be listed as mutliplied by the temperature to get
units of energy

Electronic entropy                ...      0.00000000 Eh      0.00 kcal/mol
Vibrational entropy               ...      0.01037785 Eh      6.51 kcal/mol
Rotational entropy                ...      0.01232008 Eh      7.73 kcal/mol
Translational entropy             ...      0.01887324 Eh     11.84 kcal/mol
-----------------------------------------------------------------------
Final entropy term                ...      0.04157117 Eh     26.09 kcal/mol

CAUTION: The rotational entropy is not quite correctly treated here
         because it includes a symmetry number that is not yet correctly
         implemented in ORCA!
For a nonlinear molecule the correct rotational entropy is:
    S(rot) = R*(ln(qrot/sn)+1.5)
    R    = 8.31441 J/mol/K = 1.987191683e-3 kcal/mol/K
    qrot = 310843.9864950
    sn is the rotational symmetry number. We have assumed 3 here
       if it is different for your molecule then you should correct
       the printed rotational entropy by manually evaluating the equation
       as given above

For convenience we print out the resulting values for sn=1 - 12:
 sn= 1  qrot/sn=  310843.9865 T*S(rot)=     8.38 kcal/mol T*S(tot)=    26.74 kcal/mol
 sn= 2  qrot/sn=  155421.9932 T*S(rot)=     7.97 kcal/mol T*S(tot)=    26.33 kcal/mol
 sn= 3  qrot/sn=  103614.6622 T*S(rot)=     7.73 kcal/mol T*S(tot)=    26.09 kcal/mol
 sn= 4  qrot/sn=   77710.9966 T*S(rot)=     7.56 kcal/mol T*S(tot)=    25.92 kcal/mol
 sn= 5  qrot/sn=   62168.7973 T*S(rot)=     7.43 kcal/mol T*S(tot)=    25.78 kcal/mol
 sn= 6  qrot/sn=   51807.3311 T*S(rot)=     7.32 kcal/mol T*S(tot)=    25.68 kcal/mol
 sn= 7  qrot/sn=   44406.2838 T*S(rot)=     7.23 kcal/mol T*S(tot)=    25.58 kcal/mol
 sn= 8  qrot/sn=   38855.4983 T*S(rot)=     7.15 kcal/mol T*S(tot)=    25.51 kcal/mol
 sn= 9  qrot/sn=   34538.2207 T*S(rot)=     7.08 kcal/mol T*S(tot)=    25.44 kcal/mol
 sn=10  qrot/sn=   31084.3986 T*S(rot)=     7.02 kcal/mol T*S(tot)=    25.37 kcal/mol
 sn=11  qrot/sn=   28258.5442 T*S(rot)=     6.96 kcal/mol T*S(tot)=    25.32 kcal/mol
 sn=12  qrot/sn=   25903.6655 T*S(rot)=     6.91 kcal/mol T*S(tot)=    25.26 kcal/mol

-------------------
GIBBS FREE ENTHALPY
-------------------

The Gibbs free enthalpy is G = H - T*S

Total enthalpy                    ...   -325.78685989 Eh
Total entropy correction          ...     -0.04157117 Eh    -26.09 kcal/mol
-----------------------------------------------------------------------
Final Gibbs free enthalpy         ...   -325.82843106 Eh

For completeness - the Gibbs free enthalpy minus the electronic energy
G-E(el)                           ...      0.11897711 Eh     74.66 kcal/mol

                             ****ORCA TERMINATED NORMALLY****
TOTAL RUN TIME: 0 days 0 hours 32 minutes 14 seconds 375 msec
