                         Program Version 3.0.3 - RELEASE   -
|  1> ! NORI PBE0 def2-TZVP UseSym TightOPT Freq TightSCF Grid3 FinalGrid5 XYZFile
|  2> % pal
|  3>     nprocs 8
|  4> end
|  5> %method
|  6>     SymThresh 5.0e-2
|  7> end
|  8> % geom
|  9>     MaxIter 10
| 10> end
| 11> % maxcore 2000
| 12> % output
| 13>     printlevel mini
| 14>     print[ P_Basis ] 0
| 15>     print[ P_SCFInfo ] 1
| 16>     print[ P_SCFIterInfo ] 1
| 17>     print[ P_OrbEn ] 0
| 18>     print[ P_Cartesian ] 0
| 19> end
| 20> % elprop
| 21>     Dipole false
| 22> end
| 23> *xyz 1 1
| 24>  O        3.5805374638    -3.0334799994     0.9466658730
| 25>  C        2.6793447835    -2.8909053571     0.1692653384
| 26>  C        2.9114354440    -2.0734214330    -1.0935264000
| 27>  N        4.3353939118    -1.6432552794    -1.0516753303
| 28>  C        5.2149041548    -2.2386390481    -2.1072972980
| 29>  C        6.5757328284    -1.7689987365    -1.9252552883
| 30>  N        7.6360131734    -1.3656143511    -1.7499400478
| 31>  H        1.6784384707    -3.3211884383     0.3183514818
| 32>  H        2.7160202060    -2.6704497940    -1.9869514327
| 33>  H        2.2502711865    -1.2046640611    -1.1172039475
| 34>  H        4.4220099069    -0.6259284751    -1.0710756888
| 35>  H        4.6544151012    -1.9728823460    -0.1097424810
| 36>  H        5.1649166820    -3.3258872935    -2.0146345560
| 37>  H        4.8333066869    -1.9443553873    -3.0872102228
| 38> *
| 39>
| 40>                          ****END OF INPUT****
 Total Charge           Charge          ....    1
 Multiplicity           Mult            ....    1
 Number of Electrons    NEL             ....   52
FINAL SINGLE POINT ENERGY      -340.793394930545

CARTESIAN COORDINATES (ANGSTROEM)
---------------------------------
  O      0.000949   -0.000230    2.331641
  C      0.671998    0.954565    2.058030
  C      1.150284    1.139273    0.624842
  N      0.587212   -0.000305   -0.149085
  C     -0.438249    0.368748   -1.176352
  C     -0.929402   -0.833311   -1.824046
  N     -1.282779   -1.808395   -2.315862
  H      0.969404    1.715560    2.794131
  H      0.802899    2.090828    0.216409
  H      2.241373    1.130729    0.578655
  H      1.322279   -0.557484   -0.587085
  H      0.137958   -0.589861    0.591496
  H     -1.250270    0.894454   -0.669024
  H      0.022313    1.038760   -1.905227

FINAL SINGLE POINT ENERGY      -340.793395213539
                    ***********************HURRAY********************
 Multiplicity           Mult            ....    1
 Number of Electrons    NEL             ....   52
 Basis Dimension        Dim             ....  259
FINAL SINGLE POINT ENERGY      -340.793394924531

VIBRATIONAL FREQUENCIES
-----------------------

   0:         0.00 cm**-1
   1:         0.00 cm**-1
   2:         0.00 cm**-1
   3:         0.00 cm**-1
   4:         0.00 cm**-1
   5:         0.00 cm**-1
   6:        51.81 cm**-1
   7:        67.59 cm**-1
   8:       137.33 cm**-1
   9:       229.02 cm**-1
  10:       322.09 cm**-1
  11:       350.95 cm**-1
  12:       369.95 cm**-1
  13:       531.55 cm**-1
  14:       725.85 cm**-1
  15:       741.94 cm**-1
  16:       851.17 cm**-1
  17:       888.27 cm**-1
  18:       967.41 cm**-1
  19:       992.02 cm**-1
  20:      1056.99 cm**-1
  21:      1075.78 cm**-1
  22:      1110.30 cm**-1
  23:      1234.77 cm**-1
  24:      1266.26 cm**-1
  25:      1343.29 cm**-1
  26:      1375.08 cm**-1
  27:      1377.27 cm**-1
  28:      1416.08 cm**-1
  29:      1438.95 cm**-1
  30:      1467.82 cm**-1
  31:      1473.21 cm**-1
  32:      1631.29 cm**-1
  33:      1834.63 cm**-1
  34:      2403.84 cm**-1
  35:      3055.41 cm**-1
  36:      3082.57 cm**-1
  37:      3091.32 cm**-1
  38:      3097.53 cm**-1
  39:      3146.46 cm**-1
  40:      3147.89 cm**-1
  41:      3483.51 cm**-1

IR SPECTRUM
-----------

 Mode    freq (cm**-1)   T**2         TX         TY         TZ
-------------------------------------------------------------------
   6:        51.81    3.262772  (  1.761183   0.399005  -0.042420)
   7:        67.59    7.518068  (  1.244347   2.028793  -1.361496)
   8:       137.33    2.326072  ( -1.268360   0.393050  -0.750231)
   9:       229.02   17.206760  (  3.110676  -0.408848   2.713540)
  10:       322.09   62.452475  (  0.920710  -1.770255  -7.646631)
  11:       350.95    1.967321  (  0.071648  -1.363718  -0.320095)
  12:       369.95    9.999594  ( -0.594979   0.585775   3.049994)
  13:       531.55   20.089733  (  0.939525   1.191054   4.217632)
  14:       725.85    8.570744  ( -2.664049   1.196017   0.207685)
  15:       741.94    5.480141  (  1.952118  -0.386340   1.232930)
  16:       851.17   34.935370  (  2.204574   0.473826  -5.463581)
  17:       888.27    9.590239  ( -0.141190  -0.115339   3.091440)
  18:       967.41    5.704572  (  1.162351  -0.706422   1.963283)
  19:       992.02   12.498599  ( -1.065745  -0.614712  -3.314350)
  20:      1056.99   12.487430  ( -1.920366  -1.195327  -2.714925)
  21:      1075.78   16.027384  (  1.672601   1.490910  -3.317676)
  22:      1110.30    2.307990  (  0.933635  -1.092518  -0.492666)
  23:      1234.77   11.164213  ( -1.582332  -0.178698   2.937432)
  24:      1266.26   32.399780  ( -0.176032   1.943738   5.347025)
  25:      1343.29   17.506108  (  0.016686   0.554841   4.147045)
  26:      1375.08    5.903435  (  0.560511  -2.077866  -1.127712)
  27:      1377.27   10.837763  ( -1.507508  -2.131774  -2.005174)
  28:      1416.08   37.744410  (  3.331405   4.723657   2.081639)
  29:      1438.95  137.247131  (  5.651596   7.656509   6.832603)
  30:      1467.82   47.222325  ( -0.295506  -1.259685  -6.748940)
  31:      1473.21   14.268172  ( -1.480891   2.508192  -2.405017)
  32:      1631.29   47.345091  (  1.757380  -6.638359   0.434630)
  33:      1834.63   87.376035  ( -4.913918  -5.805091   5.434184)
  34:      2403.84   10.965592  (  1.482558   2.305084   1.858548)
  35:      3055.41   38.185293  (  0.512610   1.188550   6.042340)
  36:      3082.57  135.783877  ( -1.186028  -1.506677  11.493787)
  37:      3091.32    2.550604  (  1.345504  -0.607560   0.609175)
  38:      3097.53  103.085863  (  1.680579   2.343047  -9.735073)
  39:      3146.46    6.365739  ( -2.192853   1.152450  -0.478536)
  40:      3147.89   12.319802  (  1.990821   0.478245  -2.850915)
  41:      3483.51   99.914449  (  6.954895  -5.124698  -5.028057)

--------------------------
THERMOCHEMISTRY AT 298.15K
--------------------------

Temperature         ... 298.15 K
Pressure            ... 1.00 atm
Total Mass          ... 99.11 AMU

Throughout the following assumptions are being made:
  (1) The electronic state is orbitally nondegenerate
  (2) There are no thermally accessible electronically excited states
  (3) Hindered rotations indicated by low frequency modes) are not
      treated as such but are treated as vibrations and this may
      case some error
  (4) All equations used are the standard statistical mechanics
      equations for an ideal gas
  (5) All vibrations are strinctly harmonic

------------
INNER ENERGY
------------

The inner energy is: U= E(el) + E(ZPE) + E(vib) + E(rot) + E(trans)
    E(el)   - is the total energy from the electronic structure calculation
              = E(kin-el) + E(nuc-el) + E(el-el) + E(nuc-nuc)
    E(ZPE)  - the the zero temperature vibrational energy from the frequency calculation
    E(vib)  - the the finite temperature correction to E(ZPE) due to population
              of excietd vibrational states
    E(rot)  - is the rotational thermal energy
    E(trans)- is the translational thermal energy

Summary of contributions to the inner energy U:
Electronic energy                ...   -340.79339492 Eh
Zero point energy                ...      0.11581563 Eh      72.68 kcal/mol
Thermal vibrational correction   ...      0.00467046 Eh       2.93 kcal/mol
Thermal rotational correction    ...      0.00141627 Eh       0.89 kcal/mol
Thermal translational correction ...      0.00141627 Eh       0.89 kcal/mol
-----------------------------------------------------------------------
Total thermal energy                   -340.67007629 Eh

Summary of corrections to the electronic energy:
(perhaps to be used in another calculation)
Total thermal correction                  0.00750301 Eh       4.71 kcal/mol
Non-thermal (ZPE) correction              0.11581563 Eh      72.68 kcal/mol
-----------------------------------------------------------------------
Total correction                          0.12331863 Eh      77.38 kcal/mol

--------
ENTHALPY
--------

The enthalpy is H = U + kB*T
                kB is Boltzmann's constant
Total free energy                 ...   -340.67007629 Eh
Thermal Enthalpy correction       ...      0.00094421 Eh       0.59 kcal/mol
-----------------------------------------------------------------------
Total Enthalpy                    ...   -340.66913208 Eh

-------
ENTROPY
-------

The entropy contributions are T*S = T*(S(el)+S(vib)+S(rot)+S(trans)
     S(el)   - electronic entropy
     S(vib)  - vibrational entropy
     S(rot)  - rotational entropy
     S(trans)- translational entropy
The entropies will be listed as mutliplied by the temperature to get
units of energy

Electronic entropy                ...      0.00000000 Eh      0.00 kcal/mol
Vibrational entropy               ...      0.00916030 Eh      5.75 kcal/mol
Rotational entropy                ...      0.01219860 Eh      7.65 kcal/mol
Translational entropy             ...      0.01885862 Eh     11.83 kcal/mol
-----------------------------------------------------------------------
Final entropy term                ...      0.04021753 Eh     25.24 kcal/mol

CAUTION: The rotational entropy is not quite correctly treated here
         because it includes a symmetry number that is not yet correctly
         implemented in ORCA!
For a nonlinear molecule the correct rotational entropy is:
    S(rot) = R*(ln(qrot/sn)+1.5)
    R    = 8.31441 J/mol/K = 1.987191683e-3 kcal/mol/K
    qrot = 273315.1400867
    sn is the rotational symmetry number. We have assumed 3 here
       if it is different for your molecule then you should correct
       the printed rotational entropy by manually evaluating the equation
       as given above

For convenience we print out the resulting values for sn=1 - 12:
 sn= 1  qrot/sn=  273315.1401 T*S(rot)=     8.31 kcal/mol T*S(tot)=    25.89 kcal/mol
 sn= 2  qrot/sn=  136657.5700 T*S(rot)=     7.89 kcal/mol T*S(tot)=    25.48 kcal/mol
 sn= 3  qrot/sn=   91105.0467 T*S(rot)=     7.65 kcal/mol T*S(tot)=    25.24 kcal/mol
 sn= 4  qrot/sn=   68328.7850 T*S(rot)=     7.48 kcal/mol T*S(tot)=    25.07 kcal/mol
 sn= 5  qrot/sn=   54663.0280 T*S(rot)=     7.35 kcal/mol T*S(tot)=    24.93 kcal/mol
 sn= 6  qrot/sn=   45552.5233 T*S(rot)=     7.24 kcal/mol T*S(tot)=    24.83 kcal/mol
 sn= 7  qrot/sn=   39045.0200 T*S(rot)=     7.15 kcal/mol T*S(tot)=    24.73 kcal/mol
 sn= 8  qrot/sn=   34164.3925 T*S(rot)=     7.07 kcal/mol T*S(tot)=    24.66 kcal/mol
 sn= 9  qrot/sn=   30368.3489 T*S(rot)=     7.00 kcal/mol T*S(tot)=    24.59 kcal/mol
 sn=10  qrot/sn=   27331.5140 T*S(rot)=     6.94 kcal/mol T*S(tot)=    24.52 kcal/mol
 sn=11  qrot/sn=   24846.8309 T*S(rot)=     6.88 kcal/mol T*S(tot)=    24.47 kcal/mol
 sn=12  qrot/sn=   22776.2617 T*S(rot)=     6.83 kcal/mol T*S(tot)=    24.42 kcal/mol

-------------------
GIBBS FREE ENTHALPY
-------------------

The Gibbs free enthalpy is G = H - T*S

Total enthalpy                    ...   -340.66913208 Eh
Total entropy correction          ...     -0.04021753 Eh    -25.24 kcal/mol
-----------------------------------------------------------------------
Final Gibbs free enthalpy         ...   -340.70934961 Eh

For completeness - the Gibbs free enthalpy minus the electronic energy
G-E(el)                           ...      0.08404532 Eh     52.74 kcal/mol

                             ****ORCA TERMINATED NORMALLY****
TOTAL RUN TIME: 0 days 0 hours 24 minutes 42 seconds 87 msec
