                         Program Version 3.0.3 - RELEASE   -
|  1> ! NORI PBE0 def2-TZVP UseSym TightOPT Freq TightSCF Grid3 FinalGrid5 XYZFile
|  2> % pal
|  3>     nprocs 8
|  4> end
|  5> %method
|  6>     SymThresh 5.0e-2
|  7> end
|  8> % geom
|  9>     MaxIter 10
| 10> end
| 11> % maxcore 2000
| 12> % output
| 13>     printlevel mini
| 14>     print[ P_Basis ] 0
| 15>     print[ P_SCFInfo ] 1
| 16>     print[ P_SCFIterInfo ] 1
| 17>     print[ P_OrbEn ] 0
| 18>     print[ P_Cartesian ] 0
| 19> end
| 20> % elprop
| 21>     Dipole false
| 22> end
| 23> *xyz 1 1
| 24>  O        2.8126477858     0.2033222364    -1.1854684803
| 25>  C        2.0363128392    -0.1515793002    -0.0642766025
| 26>  C        2.5346967984     0.7528930620     1.0418585594
| 27>  N        4.0311000287     0.6772946015     1.0433747278
| 28>  C        4.7160742315     1.7890578410     1.7663727903
| 29>  C        6.1525252303     1.5816420150     1.7377459308
| 30>  N        7.2807792169     1.3752584288     1.6932322014
| 31>  H        2.5441159884    -0.2856969058    -1.9688004038
| 32>  H        2.1663885525    -1.2089426060     0.2015058579
| 33>  H        0.9683340870     0.0353156047    -0.2125439229
| 34>  H        2.1601265918     0.4718318872     2.0254364612
| 35>  H        2.2769788819     1.7915839345     0.8305211668
| 36>  H        4.2986339872     0.6654077645     0.0456627195
| 37>  H        4.3388653364    -0.2186757216     1.4299641419
| 38>  H        4.3498367511     1.8128835772     2.7948296337
| 39>  H        4.4499436928     2.7274935809     1.2763252189
| 40> *
| 41>
| 42>                          ****END OF INPUT****
 Total Charge           Charge          ....    1
 Multiplicity           Mult            ....    1
 Number of Electrons    NEL             ....   54
FINAL SINGLE POINT ENERGY      -342.019644551860
FINAL SINGLE POINT ENERGY      -342.019645984678
FINAL SINGLE POINT ENERGY      -342.019647339357
FINAL SINGLE POINT ENERGY      -342.019648022056

CARTESIAN COORDINATES (ANGSTROEM)
---------------------------------
  O     -0.003203    0.002579    2.450975
  C      1.241652    0.534881    2.059619
  C      1.002899    1.070112    0.663574
  N      0.300207   -0.000677   -0.114625
  C     -0.390802    0.471377   -1.350531
  C     -0.993057   -0.656512   -2.038217
  N     -1.448749   -1.577536   -2.549682
  H      0.031087   -0.349297    3.345432
  H      2.028656   -0.229978    2.059837
  H      1.567397    1.362043    2.697643
  H      1.922537    1.344415    0.147872
  H      0.326654    1.925499    0.693586
  H     -0.373964   -0.413847    0.550427
  H      0.954955   -0.748720   -0.356391
  H      0.341582    0.967178   -1.991323
  H     -1.151512    1.197727   -1.057825

FINAL SINGLE POINT ENERGY      -342.019648473276
                    ***********************HURRAY********************
 Multiplicity           Mult            ....    1
 Number of Electrons    NEL             ....   54
 Basis Dimension        Dim             ....  271
FINAL SINGLE POINT ENERGY      -342.019648620945

VIBRATIONAL FREQUENCIES
-----------------------

   0:         0.00 cm**-1
   1:         0.00 cm**-1
   2:         0.00 cm**-1
   3:         0.00 cm**-1
   4:         0.00 cm**-1
   5:         0.00 cm**-1
   6:        63.82 cm**-1
   7:        89.32 cm**-1
   8:       122.82 cm**-1
   9:       202.63 cm**-1
  10:       266.45 cm**-1
  11:       310.43 cm**-1
  12:       347.62 cm**-1
  13:       365.62 cm**-1
  14:       504.45 cm**-1
  15:       578.59 cm**-1
  16:       804.64 cm**-1
  17:       875.46 cm**-1
  18:       922.18 cm**-1
  19:       969.72 cm**-1
  20:       987.64 cm**-1
  21:      1038.83 cm**-1
  22:      1047.37 cm**-1
  23:      1127.50 cm**-1
  24:      1139.55 cm**-1
  25:      1175.11 cm**-1
  26:      1238.75 cm**-1
  27:      1286.24 cm**-1
  28:      1330.95 cm**-1
  29:      1348.95 cm**-1
  30:      1386.24 cm**-1
  31:      1411.39 cm**-1
  32:      1439.40 cm**-1
  33:      1453.03 cm**-1
  34:      1469.97 cm**-1
  35:      1489.08 cm**-1
  36:      1518.21 cm**-1
  37:      1659.49 cm**-1
  38:      2403.36 cm**-1
  39:      3032.51 cm**-1
  40:      3092.53 cm**-1
  41:      3093.77 cm**-1
  42:      3107.71 cm**-1
  43:      3147.60 cm**-1
  44:      3173.35 cm**-1
  45:      3308.82 cm**-1
  46:      3458.54 cm**-1
  47:      3863.27 cm**-1

IR SPECTRUM
-----------

 Mode    freq (cm**-1)   T**2         TX         TY         TZ
-------------------------------------------------------------------
   6:        63.82    9.108684  ( -2.416776  -1.052819   1.469506)
   7:        89.32    1.443676  (  0.316068  -0.494103   1.048637)
   8:       122.82    9.817604  (  2.102242  -1.022626   2.086245)
   9:       202.63   31.107924  (  2.726667  -2.877762  -3.923226)
  10:       266.45   17.137647  ( -1.353633   2.327988  -3.144169)
  11:       310.43  123.007998  (  3.464505  -9.462075  -4.634041)
  12:       347.62   10.585387  ( -0.226666   2.339788  -2.249312)
  13:       365.62    0.135995  (  0.273254  -0.000775  -0.247643)
  14:       504.45   12.074862  (  1.309232   1.011015  -3.055916)
  15:       578.59   15.723016  (  2.948680   1.635961   2.086129)
  16:       804.64    7.852978  ( -1.677817   1.026265   1.996169)
  17:       875.46   11.318990  ( -3.220488  -0.843760   0.485298)
  18:       922.18    1.404188  (  0.768683   0.804677   0.407197)
  19:       969.72    5.126129  ( -0.220102  -2.064746   0.902502)
  20:       987.64    1.041007  ( -0.002973  -0.186775  -1.003052)
  21:      1038.83   19.488077  (  1.518618   0.419071   4.123864)
  22:      1047.37   54.289891  ( -5.927144  -3.479700   2.655286)
  23:      1127.50   33.098682  ( -4.929437  -1.801606   2.356596)
  24:      1139.55    1.455904  (  0.934581   0.670372   0.364781)
  25:      1175.11   15.703861  (  2.023044   0.290405  -3.395117)
  26:      1238.75   11.936056  ( -2.896831   0.360954   1.847739)
  27:      1286.24   33.856245  ( -5.237358  -1.999054  -1.558880)
  28:      1330.95   30.997924  (  3.699864   0.907635   4.060188)
  29:      1348.95   15.203345  (  3.423276   0.246251  -1.850375)
  30:      1386.24   23.480394  ( -0.623170  -2.117386  -4.313784)
  31:      1411.39    4.624387  ( -0.472498   0.168271  -2.091128)
  32:      1439.40  118.090489  (  4.881024   4.511849   8.597053)
  33:      1453.03   23.570287  (  2.582076   1.584624   3.793697)
  34:      1469.97    5.690949  (  0.472388   2.299884   0.422292)
  35:      1489.08   26.589280  (  0.921327  -3.758896   3.407512)
  36:      1518.21    4.423769  ( -0.854708   0.912436  -1.691362)
  37:      1659.49   39.341899  (  0.348381   5.823781  -2.303064)
  38:      2403.36    7.386157  (  1.311143   1.703441   1.662934)
  39:      3032.51   18.744696  (  4.174405  -1.029642  -0.508796)
  40:      3092.53    1.367787  ( -0.568565  -0.537716  -0.869128)
  41:      3093.77    4.439105  ( -0.104609   2.094800  -0.199938)
  42:      3107.71    1.300617  (  0.375748  -0.897779   0.594493)
  43:      3147.60    5.339378  ( -2.073729   0.477692   0.900465)
  44:      3173.35    0.068042  ( -0.180829  -0.017932   0.187140)
  45:      3308.82  157.525277  ( -3.787728  -4.067804  11.253060)
  46:      3458.54   74.369573  ( -5.804116   5.184391   3.715360)
  47:      3863.27  147.375246  ( -2.004054  -4.459481  11.111798)

--------------------------
THERMOCHEMISTRY AT 298.15K
--------------------------

Temperature         ... 298.15 K
Pressure            ... 1.00 atm
Total Mass          ... 101.13 AMU

Throughout the following assumptions are being made:
  (1) The electronic state is orbitally nondegenerate
  (2) There are no thermally accessible electronically excited states
  (3) Hindered rotations indicated by low frequency modes) are not
      treated as such but are treated as vibrations and this may
      case some error
  (4) All equations used are the standard statistical mechanics
      equations for an ideal gas
  (5) All vibrations are strinctly harmonic

------------
INNER ENERGY
------------

The inner energy is: U= E(el) + E(ZPE) + E(vib) + E(rot) + E(trans)
    E(el)   - is the total energy from the electronic structure calculation
              = E(kin-el) + E(nuc-el) + E(el-el) + E(nuc-nuc)
    E(ZPE)  - the the zero temperature vibrational energy from the frequency calculation
    E(vib)  - the the finite temperature correction to E(ZPE) due to population
              of excietd vibrational states
    E(rot)  - is the rotational thermal energy
    E(trans)- is the translational thermal energy

Summary of contributions to the inner energy U:
Electronic energy                ...   -342.01964862 Eh
Zero point energy                ...      0.14045570 Eh      88.14 kcal/mol
Thermal vibrational correction   ...      0.00526346 Eh       3.30 kcal/mol
Thermal rotational correction    ...      0.00141627 Eh       0.89 kcal/mol
Thermal translational correction ...      0.00141627 Eh       0.89 kcal/mol
-----------------------------------------------------------------------
Total thermal energy                   -341.87109692 Eh

Summary of corrections to the electronic energy:
(perhaps to be used in another calculation)
Total thermal correction                  0.00809600 Eh       5.08 kcal/mol
Non-thermal (ZPE) correction              0.14045570 Eh      88.14 kcal/mol
-----------------------------------------------------------------------
Total correction                          0.14855170 Eh      93.22 kcal/mol

--------
ENTHALPY
--------

The enthalpy is H = U + kB*T
                kB is Boltzmann's constant
Total free energy                 ...   -341.87109692 Eh
Thermal Enthalpy correction       ...      0.00094421 Eh       0.59 kcal/mol
-----------------------------------------------------------------------
Total Enthalpy                    ...   -341.87015271 Eh

-------
ENTROPY
-------

The entropy contributions are T*S = T*(S(el)+S(vib)+S(rot)+S(trans)
     S(el)   - electronic entropy
     S(vib)  - vibrational entropy
     S(rot)  - rotational entropy
     S(trans)- translational entropy
The entropies will be listed as mutliplied by the temperature to get
units of energy

Electronic entropy                ...      0.00000000 Eh      0.00 kcal/mol
Vibrational entropy               ...      0.00987546 Eh      6.20 kcal/mol
Rotational entropy                ...      0.01230501 Eh      7.72 kcal/mol
Translational entropy             ...      0.01888714 Eh     11.85 kcal/mol
-----------------------------------------------------------------------
Final entropy term                ...      0.04106761 Eh     25.77 kcal/mol

CAUTION: The rotational entropy is not quite correctly treated here
         because it includes a symmetry number that is not yet correctly
         implemented in ORCA!
For a nonlinear molecule the correct rotational entropy is:
    S(rot) = R*(ln(qrot/sn)+1.5)
    R    = 8.31441 J/mol/K = 1.987191683e-3 kcal/mol/K
    qrot = 305921.6221522
    sn is the rotational symmetry number. We have assumed 3 here
       if it is different for your molecule then you should correct
       the printed rotational entropy by manually evaluating the equation
       as given above

For convenience we print out the resulting values for sn=1 - 12:
 sn= 1  qrot/sn=  305921.6222 T*S(rot)=     8.37 kcal/mol T*S(tot)=    26.42 kcal/mol
 sn= 2  qrot/sn=  152960.8111 T*S(rot)=     7.96 kcal/mol T*S(tot)=    26.01 kcal/mol
 sn= 3  qrot/sn=  101973.8741 T*S(rot)=     7.72 kcal/mol T*S(tot)=    25.77 kcal/mol
 sn= 4  qrot/sn=   76480.4055 T*S(rot)=     7.55 kcal/mol T*S(tot)=    25.60 kcal/mol
 sn= 5  qrot/sn=   61184.3244 T*S(rot)=     7.42 kcal/mol T*S(tot)=    25.47 kcal/mol
 sn= 6  qrot/sn=   50986.9370 T*S(rot)=     7.31 kcal/mol T*S(tot)=    25.36 kcal/mol
 sn= 7  qrot/sn=   43703.0889 T*S(rot)=     7.22 kcal/mol T*S(tot)=    25.27 kcal/mol
 sn= 8  qrot/sn=   38240.2028 T*S(rot)=     7.14 kcal/mol T*S(tot)=    25.19 kcal/mol
 sn= 9  qrot/sn=   33991.2914 T*S(rot)=     7.07 kcal/mol T*S(tot)=    25.12 kcal/mol
 sn=10  qrot/sn=   30592.1622 T*S(rot)=     7.01 kcal/mol T*S(tot)=    25.06 kcal/mol
 sn=11  qrot/sn=   27811.0566 T*S(rot)=     6.95 kcal/mol T*S(tot)=    25.00 kcal/mol
 sn=12  qrot/sn=   25493.4685 T*S(rot)=     6.90 kcal/mol T*S(tot)=    24.95 kcal/mol

-------------------
GIBBS FREE ENTHALPY
-------------------

The Gibbs free enthalpy is G = H - T*S

Total enthalpy                    ...   -341.87015271 Eh
Total entropy correction          ...     -0.04106761 Eh    -25.77 kcal/mol
-----------------------------------------------------------------------
Final Gibbs free enthalpy         ...   -341.91122033 Eh

For completeness - the Gibbs free enthalpy minus the electronic energy
G-E(el)                           ...      0.10842830 Eh     68.04 kcal/mol

                             ****ORCA TERMINATED NORMALLY****
TOTAL RUN TIME: 0 days 0 hours 28 minutes 58 seconds 55 msec
