                         Program Version 3.0.3 - RELEASE   -
|  1> ! NORI PBE0 def2-TZVP UseSym TightOPT Freq TightSCF Grid3 FinalGrid5 XYZFile
|  2> % pal
|  3>     nprocs 8
|  4> end
|  5> %method
|  6>     SymThresh 5.0e-2
|  7> end
|  8> % geom
|  9>     MaxIter 10
| 10> end
| 11> % maxcore 2000
| 12> % output
| 13>     printlevel mini
| 14>     print[ P_Basis ] 0
| 15>     print[ P_SCFInfo ] 1
| 16>     print[ P_SCFIterInfo ] 1
| 17>     print[ P_OrbEn ] 0
| 18>     print[ P_Cartesian ] 0
| 19> end
| 20> % elprop
| 21>     Dipole false
| 22> end
| 23> *xyz 1 1
| 24>  O        2.1420480055     1.4478777897     0.3877514567
| 25>  C        1.0925792313     1.8761145042    -0.4510905191
| 26>  C        1.6262965046     1.7242632884    -1.8579089490
| 27>  N        2.9615761111     2.3867118381    -1.9220209841
| 28>  C        3.8083351698     2.0634965905    -3.1063354020
| 29>  C        3.2329845615     2.7480127611    -4.3266132930
| 30>  O        2.9730758870     4.0721215258    -3.9180052033
| 31>  H        1.8823710380     1.4922495828     1.3122327818
| 32>  H        0.1956870560     1.2574163322    -0.3496027821
| 33>  H        0.8148347812     2.9185963889    -0.2490337619
| 34>  H        1.7828229244     0.6708581796    -2.0937907006
| 35>  H        0.9673737028     2.1746115071    -2.5984071351
| 36>  H        2.8345078199     3.4052107761    -1.9399270789
| 37>  H        3.4346955481     2.1402207848    -1.0446480662
| 38>  H        4.8044354900     2.4513189102    -2.8889782402
| 39>  H        3.8591040382     0.9809518355    -3.2196665864
| 40>  H        3.9717500929     2.6946334438    -5.1326289375
| 41>  H        2.3202943206     2.2459450631    -4.6702830002
| 42>  H        2.6886377172     4.6108788980    -4.6612435988
| 43> *
| 44>
| 45>                          ****END OF INPUT****
 Total Charge           Charge          ....    1
 Multiplicity           Mult            ....    1
 Number of Electrons    NEL             ....   58
FINAL SINGLE POINT ENERGY      -364.338727291633
FINAL SINGLE POINT ENERGY      -364.338729588292
FINAL SINGLE POINT ENERGY      -364.338731815404

CARTESIAN COORDINATES (ANGSTROEM)
---------------------------------
  O      0.012257   -0.002681    2.723477
  C      0.016343    1.182321    1.959760
  C     -0.575355    0.791497    0.623854
  N      0.139361   -0.424944    0.138827
  C     -0.502194   -1.169942   -0.982048
  C     -0.327578   -0.383609   -2.262357
  O      1.030702   -0.006495   -2.279686
  H      0.360976    0.155368    3.605073
  H     -0.604826    1.968205    2.401070
  H      1.032543    1.578646    1.835148
  H     -1.625218    0.518408    0.737514
  H     -0.478141    1.583709   -0.116742
  H      1.071544   -0.159761   -0.200355
  H      0.259924   -1.020960    0.966136
  H      0.016031   -2.127155   -1.053758
  H     -1.549387   -1.343808   -0.736778
  H     -0.594276   -1.031365   -3.103039
  H     -0.988617    0.491352   -2.286371
  H      1.261445    0.410153   -3.114309

FINAL SINGLE POINT ENERGY      -364.338732324548
                    ***********************HURRAY********************
 Multiplicity           Mult            ....    1
 Number of Electrons    NEL             ....   58
 Basis Dimension        Dim             ....  289
FINAL SINGLE POINT ENERGY      -364.338732578393

VIBRATIONAL FREQUENCIES
-----------------------

   0:         0.00 cm**-1
   1:         0.00 cm**-1
   2:         0.00 cm**-1
   3:         0.00 cm**-1
   4:         0.00 cm**-1
   5:         0.00 cm**-1
   6:        50.92 cm**-1
   7:        77.30 cm**-1
   8:       149.57 cm**-1
   9:       190.82 cm**-1
  10:       261.43 cm**-1
  11:       278.65 cm**-1
  12:       286.03 cm**-1
  13:       309.02 cm**-1
  14:       400.43 cm**-1
  15:       521.98 cm**-1
  16:       569.70 cm**-1
  17:       796.79 cm**-1
  18:       817.49 cm**-1
  19:       906.77 cm**-1
  20:       929.33 cm**-1
  21:       966.45 cm**-1
  22:      1015.34 cm**-1
  23:      1053.98 cm**-1
  24:      1098.92 cm**-1
  25:      1105.68 cm**-1
  26:      1138.38 cm**-1
  27:      1145.27 cm**-1
  28:      1179.62 cm**-1
  29:      1224.28 cm**-1
  30:      1252.94 cm**-1
  31:      1275.48 cm**-1
  32:      1301.30 cm**-1
  33:      1327.37 cm**-1
  34:      1374.07 cm**-1
  35:      1389.12 cm**-1
  36:      1427.58 cm**-1
  37:      1441.23 cm**-1
  38:      1453.15 cm**-1
  39:      1465.85 cm**-1
  40:      1482.59 cm**-1
  41:      1490.99 cm**-1
  42:      1517.83 cm**-1
  43:      1520.90 cm**-1
  44:      1628.34 cm**-1
  45:      3027.99 cm**-1
  46:      3035.45 cm**-1
  47:      3087.23 cm**-1
  48:      3089.02 cm**-1
  49:      3106.88 cm**-1
  50:      3108.13 cm**-1
  51:      3168.54 cm**-1
  52:      3175.48 cm**-1
  53:      3372.91 cm**-1
  54:      3420.96 cm**-1
  55:      3869.77 cm**-1
  56:      3872.44 cm**-1

IR SPECTRUM
-----------

 Mode    freq (cm**-1)   T**2         TX         TY         TZ
-------------------------------------------------------------------
   6:        50.92    3.451524  ( -1.357475   0.747596  -1.024640)
   7:        77.30    7.833949  (  0.451924  -2.363930  -1.428827)
   8:       149.57    1.168942  ( -0.429044   0.959211  -0.254515)
   9:       190.82   23.679381  ( -3.128157   1.640831   3.346893)
  10:       261.43   45.087369  (  1.766057   5.942609   2.579498)
  11:       278.65   27.107944  (  1.322392   2.682927  -4.261587)
  12:       286.03  126.923257  (  6.446219  -7.873421  -4.835159)
  13:       309.02   89.782156  (  8.738805  -0.836647  -3.565874)
  14:       400.43   16.476896  (  0.793311   0.489271  -3.950717)
  15:       521.98   13.993538  ( -2.548063   2.013049  -1.857026)
  16:       569.70    7.310539  (  1.705572   2.097537  -0.043620)
  17:       796.79   13.773321  ( -1.048085   0.571976   3.513927)
  18:       817.49    3.085860  (  1.437967   0.876997   0.498986)
  19:       906.77    6.087804  ( -0.789919   2.145081  -0.928687)
  20:       929.33   13.187345  ( -2.773848  -1.149402   2.042544)
  21:       966.45   34.397362  ( -3.566431  -3.065013   3.504801)
  22:      1015.34   23.679324  (  0.450201  -4.321366   2.191447)
  23:      1053.98   20.017828  ( -1.024965  -2.458262  -3.595028)
  24:      1098.92   50.828697  ( -4.880675  -3.766621   3.580541)
  25:      1105.68   55.469353  (  5.689872  -2.142549   4.301651)
  26:      1138.38   22.486861  (  2.259920   4.010070  -1.139719)
  27:      1145.27    3.047069  (  1.567998  -0.758345   0.115607)
  28:      1179.62    9.049455  (  1.661149  -1.478294   2.026002)
  29:      1224.28   28.275506  ( -3.406228  -2.113016   3.494035)
  30:      1252.94   18.818762  (  3.946093   1.711937   0.562482)
  31:      1275.48   13.823574  ( -3.112569   1.961769  -0.535677)
  32:      1301.30   40.300636  (  1.394534  -6.114943   0.981522)
  33:      1327.37   39.813546  (  3.896526   4.595545   1.873926)
  34:      1374.07   20.854884  (  2.091849  -1.564198  -3.745976)
  35:      1389.12    6.352591  ( -0.239564  -1.117416  -2.246460)
  36:      1427.58    8.581896  (  0.519840  -1.771914  -2.274199)
  37:      1441.23   59.124225  (  0.274052  -4.137976  -6.475050)
  38:      1453.15    0.758645  (  0.195655   0.808596  -0.257947)
  39:      1465.85   31.105567  (  0.352449  -2.674260  -4.881565)
  40:      1482.59   14.372402  ( -1.355589   2.521711  -2.485107)
  41:      1490.99   25.572333  (  2.716402   3.738101   2.054288)
  42:      1517.83    2.846165  (  1.043714   0.501540   1.226900)
  43:      1520.90    7.458962  (  0.211497  -0.867275   2.581098)
  44:      1628.34   61.179223  (  5.625719  -2.264730   4.939789)
  45:      3027.99   22.025223  ( -2.637869  -3.667557   1.271178)
  46:      3035.45   23.279141  ( -4.495210   1.723992  -0.316357)
  47:      3087.23    7.102443  (  1.820396  -1.811027  -0.713292)
  48:      3089.02    5.648337  ( -0.558876  -1.827500  -1.412883)
  49:      3106.88    2.970299  (  0.127826   1.698292   0.264128)
  50:      3108.13    3.211394  (  1.722186  -0.314659   0.382700)
  51:      3168.54    0.505257  (  0.558662  -0.385989  -0.210157)
  52:      3175.48    0.567811  ( -0.381090  -0.490549   0.426548)
  53:      3372.91   60.512882  ( -6.230506   1.679188  -4.344423)
  54:      3420.96  179.613752  ( -4.698861  -3.424389  12.075099)
  55:      3869.77  142.983575  (  2.816640  -0.917973  11.584793)
  56:      3872.44  110.472665  (  5.352031   4.358207  -7.926819)

--------------------------
THERMOCHEMISTRY AT 298.15K
--------------------------

Temperature         ... 298.15 K
Pressure            ... 1.00 atm
Total Mass          ... 106.14 AMU

Throughout the following assumptions are being made:
  (1) The electronic state is orbitally nondegenerate
  (2) There are no thermally accessible electronically excited states
  (3) Hindered rotations indicated by low frequency modes) are not
      treated as such but are treated as vibrations and this may
      case some error
  (4) All equations used are the standard statistical mechanics
      equations for an ideal gas
  (5) All vibrations are strinctly harmonic

------------
INNER ENERGY
------------

The inner energy is: U= E(el) + E(ZPE) + E(vib) + E(rot) + E(trans)
    E(el)   - is the total energy from the electronic structure calculation
              = E(kin-el) + E(nuc-el) + E(el-el) + E(nuc-nuc)
    E(ZPE)  - the the zero temperature vibrational energy from the frequency calculation
    E(vib)  - the the finite temperature correction to E(ZPE) due to population
              of excietd vibrational states
    E(rot)  - is the rotational thermal energy
    E(trans)- is the translational thermal energy

Summary of contributions to the inner energy U:
Electronic energy                ...   -364.33873258 Eh
Zero point energy                ...      0.17577816 Eh     110.30 kcal/mol
Thermal vibrational correction   ...      0.00588674 Eh       3.69 kcal/mol
Thermal rotational correction    ...      0.00141627 Eh       0.89 kcal/mol
Thermal translational correction ...      0.00141627 Eh       0.89 kcal/mol
-----------------------------------------------------------------------
Total thermal energy                   -364.15423514 Eh

Summary of corrections to the electronic energy:
(perhaps to be used in another calculation)
Total thermal correction                  0.00871928 Eh       5.47 kcal/mol
Non-thermal (ZPE) correction              0.17577816 Eh     110.30 kcal/mol
-----------------------------------------------------------------------
Total correction                          0.18449743 Eh     115.77 kcal/mol

--------
ENTHALPY
--------

The enthalpy is H = U + kB*T
                kB is Boltzmann's constant
Total free energy                 ...   -364.15423514 Eh
Thermal Enthalpy correction       ...      0.00094421 Eh       0.59 kcal/mol
-----------------------------------------------------------------------
Total Enthalpy                    ...   -364.15329094 Eh

-------
ENTROPY
-------

The entropy contributions are T*S = T*(S(el)+S(vib)+S(rot)+S(trans)
     S(el)   - electronic entropy
     S(vib)  - vibrational entropy
     S(rot)  - rotational entropy
     S(trans)- translational entropy
The entropies will be listed as mutliplied by the temperature to get
units of energy

Electronic entropy                ...      0.00000000 Eh      0.00 kcal/mol
Vibrational entropy               ...      0.01106079 Eh      6.94 kcal/mol
Rotational entropy                ...      0.01229863 Eh      7.72 kcal/mol
Translational entropy             ...      0.01895570 Eh     11.89 kcal/mol
-----------------------------------------------------------------------
Final entropy term                ...      0.04231513 Eh     26.55 kcal/mol

CAUTION: The rotational entropy is not quite correctly treated here
         because it includes a symmetry number that is not yet correctly
         implemented in ORCA!
For a nonlinear molecule the correct rotational entropy is:
    S(rot) = R*(ln(qrot/sn)+1.5)
    R    = 8.31441 J/mol/K = 1.987191683e-3 kcal/mol/K
    qrot = 303861.4635839
    sn is the rotational symmetry number. We have assumed 3 here
       if it is different for your molecule then you should correct
       the printed rotational entropy by manually evaluating the equation
       as given above

For convenience we print out the resulting values for sn=1 - 12:
 sn= 1  qrot/sn=  303861.4636 T*S(rot)=     8.37 kcal/mol T*S(tot)=    27.20 kcal/mol
 sn= 2  qrot/sn=  151930.7318 T*S(rot)=     7.96 kcal/mol T*S(tot)=    26.79 kcal/mol
 sn= 3  qrot/sn=  101287.1545 T*S(rot)=     7.72 kcal/mol T*S(tot)=    26.55 kcal/mol
 sn= 4  qrot/sn=   75965.3659 T*S(rot)=     7.55 kcal/mol T*S(tot)=    26.38 kcal/mol
 sn= 5  qrot/sn=   60772.2927 T*S(rot)=     7.41 kcal/mol T*S(tot)=    26.25 kcal/mol
 sn= 6  qrot/sn=   50643.5773 T*S(rot)=     7.31 kcal/mol T*S(tot)=    26.14 kcal/mol
 sn= 7  qrot/sn=   43408.7805 T*S(rot)=     7.22 kcal/mol T*S(tot)=    26.05 kcal/mol
 sn= 8  qrot/sn=   37982.6829 T*S(rot)=     7.14 kcal/mol T*S(tot)=    25.97 kcal/mol
 sn= 9  qrot/sn=   33762.3848 T*S(rot)=     7.07 kcal/mol T*S(tot)=    25.90 kcal/mol
 sn=10  qrot/sn=   30386.1464 T*S(rot)=     7.00 kcal/mol T*S(tot)=    25.84 kcal/mol
 sn=11  qrot/sn=   27623.7694 T*S(rot)=     6.95 kcal/mol T*S(tot)=    25.78 kcal/mol
 sn=12  qrot/sn=   25321.7886 T*S(rot)=     6.90 kcal/mol T*S(tot)=    25.73 kcal/mol

-------------------
GIBBS FREE ENTHALPY
-------------------

The Gibbs free enthalpy is G = H - T*S

Total enthalpy                    ...   -364.15329094 Eh
Total entropy correction          ...     -0.04231513 Eh    -26.55 kcal/mol
-----------------------------------------------------------------------
Final Gibbs free enthalpy         ...   -364.19560606 Eh

For completeness - the Gibbs free enthalpy minus the electronic energy
G-E(el)                           ...      0.14312652 Eh     89.81 kcal/mol

                             ****ORCA TERMINATED NORMALLY****
TOTAL RUN TIME: 0 days 0 hours 39 minutes 25 seconds 915 msec
