                         Program Version 3.0.3 - RELEASE   -
|  1> ! NORI PBE0 def2-TZVP UseSym TightOPT Freq TightSCF Grid3 FinalGrid5 XYZFile
|  2> % pal
|  3>     nprocs 8
|  4> end
|  5> %method
|  6>     SymThresh 5.0e-2
|  7> end
|  8> % geom
|  9>     MaxIter 10
| 10> end
| 11> % maxcore 2000
| 12> % output
| 13>     printlevel mini
| 14>     print[ P_Basis ] 0
| 15>     print[ P_SCFInfo ] 1
| 16>     print[ P_SCFIterInfo ] 1
| 17>     print[ P_OrbEn ] 0
| 18>     print[ P_Cartesian ] 0
| 19> end
| 20> % elprop
| 21>     Dipole false
| 22> end
| 23> *xyz 1 1
| 24>  O        2.0388035688     0.3447138667    -0.9079133612
| 25>  C        1.4593134071    -0.0439916319     0.3172953112
| 26>  C        2.4134825258     0.4725794034     1.3717468595
| 27>  N        3.8014742853     0.0713439376     0.9704730782
| 28>  C        4.8973478340     0.8026639648     1.6605222277
| 29>  C        4.9612292767     0.4571077875     3.1403702619
| 30>  O        5.2687280889     1.2612761059     3.9599326589
| 31>  H        1.4786345566     0.1040912555    -1.6514719390
| 32>  H        1.3473923677    -1.1337581998     0.3840570913
| 33>  H        0.4781246592     0.4110402370     0.4829557155
| 34>  H        2.1970920748     0.0838608417     2.3664238357
| 35>  H        2.4058235432     1.5628969061     1.3965503041
| 36>  H        3.8320578315     0.2300620448    -0.0479533363
| 37>  H        3.9180491122    -0.9369158085     1.1002424821
| 38>  H        4.7483084550     1.8737654760     1.5265246335
| 39>  H        5.8438278666     0.5136598436     1.1924594992
| 40>  H        4.7391505468    -0.6018960305     3.4032446773
| 41> *
| 42>
| 43>                          ****END OF INPUT****
 Total Charge           Charge          ....    1
 Multiplicity           Mult            ....    1
 Number of Electrons    NEL             ....   56
FINAL SINGLE POINT ENERGY      -363.101278077078
FINAL SINGLE POINT ENERGY      -363.101279198252
FINAL SINGLE POINT ENERGY      -363.101279026772
FINAL SINGLE POINT ENERGY      -363.101280940552

CARTESIAN COORDINATES (ANGSTROEM)
---------------------------------
  O     -0.008081   -0.000030    2.788011
  C     -0.662350   -1.022729    2.071332
  C     -0.156951   -0.879292    0.652724
  N     -0.265630    0.566240    0.270501
  C      0.514898    0.963783   -0.931883
  C     -0.049211    0.339140   -2.198534
  O      0.650243    0.003429   -3.099046
  H     -0.223471   -0.037069    3.724384
  H     -1.753739   -0.912433    2.115105
  H     -0.405197   -2.022835    2.433228
  H     -0.716155   -1.485503   -0.059500
  H      0.902291   -1.131910    0.593541
  H      0.049811    1.080436    1.106194
  H     -1.250181    0.814436    0.144082
  H      1.554694    0.670291   -0.792882
  H      0.460774    2.053004   -1.024618
  H     -1.158448    0.251361   -2.245300

FINAL SINGLE POINT ENERGY      -363.101281293253
                    ***********************HURRAY********************
 Multiplicity           Mult            ....    1
 Number of Electrons    NEL             ....   56
 Basis Dimension        Dim             ....  277
FINAL SINGLE POINT ENERGY      -363.101281623257

VIBRATIONAL FREQUENCIES
-----------------------

   0:         0.00 cm**-1
   1:         0.00 cm**-1
   2:         0.00 cm**-1
   3:         0.00 cm**-1
   4:         0.00 cm**-1
   5:         0.00 cm**-1
   6:        44.96 cm**-1
   7:        56.68 cm**-1
   8:       115.48 cm**-1
   9:       186.59 cm**-1
  10:       248.14 cm**-1
  11:       268.31 cm**-1
  12:       303.23 cm**-1
  13:       388.68 cm**-1
  14:       502.63 cm**-1
  15:       579.97 cm**-1
  16:       738.14 cm**-1
  17:       802.57 cm**-1
  18:       870.09 cm**-1
  19:       924.13 cm**-1
  20:       992.41 cm**-1
  21:      1033.49 cm**-1
  22:      1050.46 cm**-1
  23:      1073.29 cm**-1
  24:      1126.57 cm**-1
  25:      1144.53 cm**-1
  26:      1184.05 cm**-1
  27:      1221.63 cm**-1
  28:      1290.25 cm**-1
  29:      1294.67 cm**-1
  30:      1356.97 cm**-1
  31:      1373.12 cm**-1
  32:      1406.59 cm**-1
  33:      1418.41 cm**-1
  34:      1437.35 cm**-1
  35:      1453.39 cm**-1
  36:      1465.01 cm**-1
  37:      1486.43 cm**-1
  38:      1517.88 cm**-1
  39:      1652.95 cm**-1
  40:      1880.74 cm**-1
  41:      2890.05 cm**-1
  42:      3029.32 cm**-1
  43:      3080.08 cm**-1
  44:      3092.77 cm**-1
  45:      3108.27 cm**-1
  46:      3164.16 cm**-1
  47:      3171.72 cm**-1
  48:      3340.25 cm**-1
  49:      3452.73 cm**-1
  50:      3866.03 cm**-1

IR SPECTRUM
-----------

 Mode    freq (cm**-1)   T**2         TX         TY         TZ
-------------------------------------------------------------------
   6:        44.96   11.155182  ( -2.103108   2.380631  -1.031850)
   7:        56.68   10.565624  ( -2.161587  -1.974505   1.412266)
   8:       115.48    0.251746  (  0.094975   0.310652  -0.382389)
   9:       186.59   28.182696  ( -3.527277   2.116182  -3.356008)
  10:       248.14   16.145765  ( -3.555615   1.442805   1.192343)
  11:       268.31    6.558884  (  1.235594  -1.323474   1.811245)
  12:       303.23  110.301761  (  8.311260  -6.079221   2.065865)
  13:       388.68    4.707759  (  2.136663   0.054994  -0.373374)
  14:       502.63   29.253021  (  1.035554   2.756061   4.537045)
  15:       579.97    2.819287  ( -0.363735  -1.299300   0.999401)
  16:       738.14    6.624881  (  0.411155  -2.246940   1.186209)
  17:       802.57    9.459355  ( -1.929392  -0.142621  -2.390912)
  18:       870.09   19.553767  (  2.151190   1.043925   3.719727)
  19:       924.13   27.429895  ( -2.474284  -3.414674  -3.106093)
  20:       992.41   16.959892  ( -1.589274  -3.124378  -2.161565)
  21:      1033.49   10.033101  (  0.406899   2.405105  -2.020645)
  22:      1050.46    3.905897  (  0.601655  -0.026700  -1.882338)
  23:      1073.29   18.765096  ( -2.055122  -3.432592  -1.660988)
  24:      1126.57   37.958203  ( -2.273900  -3.779348  -4.301640)
  25:      1144.53    2.954277  ( -1.321210  -0.752751  -0.801279)
  26:      1184.05   39.994303  (  1.654463   0.850111   6.044367)
  27:      1221.63    5.522608  ( -1.264824  -0.083486  -1.978853)
  28:      1290.25   23.122928  (  2.712179   3.638451  -1.590184)
  29:      1294.67   51.438983  (  3.965537   5.952671  -0.528396)
  30:      1356.97    6.278185  (  0.822650  -0.101358   2.364563)
  31:      1373.12   18.668530  ( -0.294073   2.527356  -3.492065)
  32:      1406.59    3.763902  ( -0.686442   0.103219  -1.811641)
  33:      1418.41   11.231996  (  2.376250   2.142387   0.997804)
  34:      1437.35   76.282139  (  0.171197   5.227395  -6.994796)
  35:      1453.39   10.020527  (  0.951990   2.153382  -2.115936)
  36:      1465.01   22.672888  ( -2.591912  -3.935251  -0.684602)
  37:      1486.43   16.861103  (  2.607905   0.186636  -3.166244)
  38:      1517.88    4.792071  (  1.201750   0.266181  -1.810253)
  39:      1652.95   55.839969  ( -3.970400   4.435795   4.516593)
  40:      1880.74  138.992902  ( -5.091418   3.342567  10.094435)
  41:      2890.05   57.956636  (  7.560075   0.466407  -0.764441)
  42:      3029.32   21.205445  ( -4.256435  -1.503092  -0.910452)
  43:      3080.08    3.670562  (  0.705095   1.331024   1.183966)
  44:      3092.77    4.434697  (  0.967185  -1.864607   0.149970)
  45:      3108.27    1.622087  (  0.653821  -0.367381  -1.029387)
  46:      3164.16    2.048565  (  1.133624  -0.871137  -0.067700)
  47:      3171.72    0.266433  ( -0.034607   0.143859   0.494510)
  48:      3340.25  161.601393  ( -0.851670  -3.646851 -12.148108)
  49:      3452.73   58.983175  ( -6.554458   1.470818  -3.722761)
  50:      3866.03  144.811533  (  0.874725  -1.364212 -11.924148)

--------------------------
THERMOCHEMISTRY AT 298.15K
--------------------------

Temperature         ... 298.15 K
Pressure            ... 1.00 atm
Total Mass          ... 104.13 AMU

Throughout the following assumptions are being made:
  (1) The electronic state is orbitally nondegenerate
  (2) There are no thermally accessible electronically excited states
  (3) Hindered rotations indicated by low frequency modes) are not
      treated as such but are treated as vibrations and this may
      case some error
  (4) All equations used are the standard statistical mechanics
      equations for an ideal gas
  (5) All vibrations are strinctly harmonic

------------
INNER ENERGY
------------

The inner energy is: U= E(el) + E(ZPE) + E(vib) + E(rot) + E(trans)
    E(el)   - is the total energy from the electronic structure calculation
              = E(kin-el) + E(nuc-el) + E(el-el) + E(nuc-nuc)
    E(ZPE)  - the the zero temperature vibrational energy from the frequency calculation
    E(vib)  - the the finite temperature correction to E(ZPE) due to population
              of excietd vibrational states
    E(rot)  - is the rotational thermal energy
    E(trans)- is the translational thermal energy

Summary of contributions to the inner energy U:
Electronic energy                ...   -363.10128162 Eh
Zero point energy                ...      0.15055312 Eh      94.47 kcal/mol
Thermal vibrational correction   ...      0.00561091 Eh       3.52 kcal/mol
Thermal rotational correction    ...      0.00141627 Eh       0.89 kcal/mol
Thermal translational correction ...      0.00141627 Eh       0.89 kcal/mol
-----------------------------------------------------------------------
Total thermal energy                   -362.94228506 Eh

Summary of corrections to the electronic energy:
(perhaps to be used in another calculation)
Total thermal correction                  0.00844345 Eh       5.30 kcal/mol
Non-thermal (ZPE) correction              0.15055312 Eh      94.47 kcal/mol
-----------------------------------------------------------------------
Total correction                          0.15899657 Eh      99.77 kcal/mol

--------
ENTHALPY
--------

The enthalpy is H = U + kB*T
                kB is Boltzmann's constant
Total free energy                 ...   -362.94228506 Eh
Thermal Enthalpy correction       ...      0.00094421 Eh       0.59 kcal/mol
-----------------------------------------------------------------------
Total Enthalpy                    ...   -362.94134085 Eh

-------
ENTROPY
-------

The entropy contributions are T*S = T*(S(el)+S(vib)+S(rot)+S(trans)
     S(el)   - electronic entropy
     S(vib)  - vibrational entropy
     S(rot)  - rotational entropy
     S(trans)- translational entropy
The entropies will be listed as mutliplied by the temperature to get
units of energy

Electronic entropy                ...      0.00000000 Eh      0.00 kcal/mol
Vibrational entropy               ...      0.01111817 Eh      6.98 kcal/mol
Rotational entropy                ...      0.01226789 Eh      7.70 kcal/mol
Translational entropy             ...      0.01892854 Eh     11.88 kcal/mol
-----------------------------------------------------------------------
Final entropy term                ...      0.04231461 Eh     26.55 kcal/mol

CAUTION: The rotational entropy is not quite correctly treated here
         because it includes a symmetry number that is not yet correctly
         implemented in ORCA!
For a nonlinear molecule the correct rotational entropy is:
    S(rot) = R*(ln(qrot/sn)+1.5)
    R    = 8.31441 J/mol/K = 1.987191683e-3 kcal/mol/K
    qrot = 294127.8595795
    sn is the rotational symmetry number. We have assumed 3 here
       if it is different for your molecule then you should correct
       the printed rotational entropy by manually evaluating the equation
       as given above

For convenience we print out the resulting values for sn=1 - 12:
 sn= 1  qrot/sn=  294127.8596 T*S(rot)=     8.35 kcal/mol T*S(tot)=    27.20 kcal/mol
 sn= 2  qrot/sn=  147063.9298 T*S(rot)=     7.94 kcal/mol T*S(tot)=    26.79 kcal/mol
 sn= 3  qrot/sn=   98042.6199 T*S(rot)=     7.70 kcal/mol T*S(tot)=    26.55 kcal/mol
 sn= 4  qrot/sn=   73531.9649 T*S(rot)=     7.53 kcal/mol T*S(tot)=    26.38 kcal/mol
 sn= 5  qrot/sn=   58825.5719 T*S(rot)=     7.40 kcal/mol T*S(tot)=    26.25 kcal/mol
 sn= 6  qrot/sn=   49021.3099 T*S(rot)=     7.29 kcal/mol T*S(tot)=    26.14 kcal/mol
 sn= 7  qrot/sn=   42018.2657 T*S(rot)=     7.20 kcal/mol T*S(tot)=    26.05 kcal/mol
 sn= 8  qrot/sn=   36765.9824 T*S(rot)=     7.12 kcal/mol T*S(tot)=    25.97 kcal/mol
 sn= 9  qrot/sn=   32680.8733 T*S(rot)=     7.05 kcal/mol T*S(tot)=    25.90 kcal/mol
 sn=10  qrot/sn=   29412.7860 T*S(rot)=     6.98 kcal/mol T*S(tot)=    25.84 kcal/mol
 sn=11  qrot/sn=   26738.8963 T*S(rot)=     6.93 kcal/mol T*S(tot)=    25.78 kcal/mol
 sn=12  qrot/sn=   24510.6550 T*S(rot)=     6.88 kcal/mol T*S(tot)=    25.73 kcal/mol

-------------------
GIBBS FREE ENTHALPY
-------------------

The Gibbs free enthalpy is G = H - T*S

Total enthalpy                    ...   -362.94134085 Eh
Total entropy correction          ...     -0.04231461 Eh    -26.55 kcal/mol
-----------------------------------------------------------------------
Final Gibbs free enthalpy         ...   -362.98365546 Eh

For completeness - the Gibbs free enthalpy minus the electronic energy
G-E(el)                           ...      0.11762617 Eh     73.81 kcal/mol

                             ****ORCA TERMINATED NORMALLY****
TOTAL RUN TIME: 0 days 0 hours 34 minutes 23 seconds 490 msec
