                         Program Version 3.0.3 - RELEASE   -
|  1> ! NORI PBE0 def2-TZVP UseSym TightOPT Freq TightSCF Grid3 FinalGrid5 XYZFile
|  2> % pal
|  3>     nprocs 8
|  4> end
|  5> %method
|  6>     SymThresh 5.0e-2
|  7> end
|  8> % geom
|  9>     MaxIter 10
| 10> end
| 11> % maxcore 2000
| 12> % output
| 13>     printlevel mini
| 14>     print[ P_Basis ] 0
| 15>     print[ P_SCFInfo ] 1
| 16>     print[ P_SCFIterInfo ] 1
| 17>     print[ P_OrbEn ] 0
| 18>     print[ P_Cartesian ] 0
| 19> end
| 20> % elprop
| 21>     Dipole false
| 22> end
| 23> *xyz 1 1
| 24>  O        2.1371403555     1.9649385314     0.3310167911
| 25>  C        1.9042606016     1.0585769162    -0.4121422546
| 26>  C        3.0700793526     0.3326424183    -1.0737226732
| 27>  O        2.9536017122    -0.5986524656    -1.8190573982
| 28>  C        4.4499637068     0.8369421357    -0.7050536670
| 29>  C        5.3858110290    -0.1442097593    -0.1119295809
| 30>  N        5.4725080645     0.1882216292    -1.5442077488
| 31>  H        0.8987163118     0.6845935812    -0.6655984002
| 32>  H        4.5893860360     1.8915464701    -0.5029331222
| 33>  H        6.2119396114     0.2129814456     0.4893977513
| 34>  H        5.0363443641    -1.1517011161     0.0790179981
| 35>  H        6.2566932508     0.7341278449    -1.8867436382
| 36>  H        5.0772356038    -0.4959476315    -2.1969740571
| 37> *
| 38>
| 39>                          ****END OF INPUT****
 Total Charge           Charge          ....    1
 Multiplicity           Mult            ....    1
 Number of Electrons    NEL             ....   52
FINAL SINGLE POINT ENERGY      -360.649885162075
                    ***********************HURRAY********************
 Multiplicity           Mult            ....    1
 Number of Electrons    NEL             ....   52
 Basis Dimension        Dim             ....  253
FINAL SINGLE POINT ENERGY      -360.649884962030

VIBRATIONAL FREQUENCIES
-----------------------

   0:         0.00 cm**-1
   1:         0.00 cm**-1
   2:         0.00 cm**-1
   3:         0.00 cm**-1
   4:         0.00 cm**-1
   5:         0.00 cm**-1
   6:        69.33 cm**-1
   7:       142.87 cm**-1
   8:       181.45 cm**-1
   9:       240.93 cm**-1
  10:       297.72 cm**-1
  11:       512.74 cm**-1
  12:       588.65 cm**-1
  13:       641.99 cm**-1
  14:       741.52 cm**-1
  15:       871.23 cm**-1
  16:       891.94 cm**-1
  17:       912.70 cm**-1
  18:       928.04 cm**-1
  19:      1022.73 cm**-1
  20:      1070.82 cm**-1
  21:      1100.81 cm**-1
  22:      1156.79 cm**-1
  23:      1169.92 cm**-1
  24:      1193.24 cm**-1
  25:      1250.29 cm**-1
  26:      1268.67 cm**-1
  27:      1350.67 cm**-1
  28:      1403.47 cm**-1
  29:      1485.44 cm**-1
  30:      1593.42 cm**-1
  31:      1830.40 cm**-1
  32:      1843.21 cm**-1
  33:      3031.65 cm**-1
  34:      3168.82 cm**-1
  35:      3228.40 cm**-1
  36:      3276.73 cm**-1
  37:      3399.40 cm**-1
  38:      3577.99 cm**-1

IR SPECTRUM
-----------

 Mode    freq (cm**-1)   T**2         TX         TY         TZ
-------------------------------------------------------------------
   6:        69.33    1.457458  (  0.626958  -0.996311   0.267855)
   7:       142.87   27.921346  (  0.531370  -5.256569   0.086454)
   8:       181.45   12.246529  (  0.235086  -0.350728   3.473939)
   9:       240.93    1.074425  ( -0.719668   0.075622  -0.742148)
  10:       297.72   55.768672  (  5.030067   0.724158   5.471992)
  11:       512.74   12.240520  (  2.133364   0.364063   2.748951)
  12:       588.65    8.060434  ( -2.111819   0.091408  -1.895336)
  13:       641.99   30.488964  ( -4.142969  -0.631651  -3.595245)
  14:       741.52    3.528379  ( -1.340877   0.221306  -1.296708)
  15:       871.23    5.395299  (  1.208750  -1.845292  -0.727408)
  16:       891.94   22.482007  ( -2.220407  -1.563059  -3.886984)
  17:       912.70    6.796369  ( -0.249466   1.368133   2.205073)
  18:       928.04   15.064632  (  1.617418   1.305994   3.277647)
  19:      1022.73    7.020219  (  0.072307  -2.400979   1.118163)
  20:      1070.82   75.976018  ( -1.399588   5.076051  -6.946285)
  21:      1100.81   25.064566  (  2.774136  -1.451478   3.906654)
  22:      1156.79    8.653390  ( -2.594769   1.261399  -0.573967)
  23:      1169.92    3.807387  ( -1.890740  -0.452015   0.167840)
  24:      1193.24   15.363189  ( -2.221416  -0.353491  -3.209913)
  25:      1250.29    3.100388  ( -0.467932   0.993346  -1.376478)
  26:      1268.67   11.035867  ( -3.135111   1.017095   0.415286)
  27:      1350.67    4.587501  (  1.537513   0.523215   1.396352)
  28:      1403.47   44.265014  ( -5.187609   1.489262  -3.890479)
  29:      1485.44    9.020261  ( -0.390338  -2.959978  -0.326236)
  30:      1593.42   88.249252  (  2.101961  -4.932240  -7.713885)
  31:      1830.40   23.421958  ( -1.638517  -0.350792   4.540282)
  32:      1843.21  132.049747  (  9.887384   0.229436  -5.851217)
  33:      3031.65   13.229084  (  3.399049   0.297569   1.259762)
  34:      3168.82    5.239100  (  0.654271  -2.134188   0.506231)
  35:      3228.40   15.286056  (  2.113869   1.697633  -2.817030)
  36:      3276.73   14.274820  (  3.531934   1.219841  -0.558795)
  37:      3399.40  100.830674  ( -7.737958   3.730437   5.199857)
  38:      3577.99  190.598581  ( 10.630544   7.543808   4.547645)

--------------------------
THERMOCHEMISTRY AT 298.15K
--------------------------

Temperature         ... 298.15 K
Pressure            ... 1.00 atm
Total Mass          ... 100.10 AMU

Throughout the following assumptions are being made:
  (1) The electronic state is orbitally nondegenerate
  (2) There are no thermally accessible electronically excited states
  (3) Hindered rotations indicated by low frequency modes) are not
      treated as such but are treated as vibrations and this may
      case some error
  (4) All equations used are the standard statistical mechanics
      equations for an ideal gas
  (5) All vibrations are strinctly harmonic

------------
INNER ENERGY
------------

The inner energy is: U= E(el) + E(ZPE) + E(vib) + E(rot) + E(trans)
    E(el)   - is the total energy from the electronic structure calculation
              = E(kin-el) + E(nuc-el) + E(el-el) + E(nuc-nuc)
    E(ZPE)  - the the zero temperature vibrational energy from the frequency calculation
    E(vib)  - the the finite temperature correction to E(ZPE) due to population
              of excietd vibrational states
    E(rot)  - is the rotational thermal energy
    E(trans)- is the translational thermal energy

Summary of contributions to the inner energy U:
Electronic energy                ...   -360.64988496 Eh
Zero point energy                ...      0.10352893 Eh      64.97 kcal/mol
Thermal vibrational correction   ...      0.00399248 Eh       2.51 kcal/mol
Thermal rotational correction    ...      0.00141627 Eh       0.89 kcal/mol
Thermal translational correction ...      0.00141627 Eh       0.89 kcal/mol
-----------------------------------------------------------------------
Total thermal energy                   -360.53953101 Eh

Summary of corrections to the electronic energy:
(perhaps to be used in another calculation)
Total thermal correction                  0.00682502 Eh       4.28 kcal/mol
Non-thermal (ZPE) correction              0.10352893 Eh      64.97 kcal/mol
-----------------------------------------------------------------------
Total correction                          0.11035395 Eh      69.25 kcal/mol

--------
ENTHALPY
--------

The enthalpy is H = U + kB*T
                kB is Boltzmann's constant
Total free energy                 ...   -360.53953101 Eh
Thermal Enthalpy correction       ...      0.00094421 Eh       0.59 kcal/mol
-----------------------------------------------------------------------
Total Enthalpy                    ...   -360.53858680 Eh

-------
ENTROPY
-------

The entropy contributions are T*S = T*(S(el)+S(vib)+S(rot)+S(trans)
     S(el)   - electronic entropy
     S(vib)  - vibrational entropy
     S(rot)  - rotational entropy
     S(trans)- translational entropy
The entropies will be listed as mutliplied by the temperature to get
units of energy

Electronic entropy                ...      0.00000000 Eh      0.00 kcal/mol
Vibrational entropy               ...      0.00725156 Eh      4.55 kcal/mol
Rotational entropy                ...      0.01196742 Eh      7.51 kcal/mol
Translational entropy             ...      0.01887262 Eh     11.84 kcal/mol
-----------------------------------------------------------------------
Final entropy term                ...      0.03809159 Eh     23.90 kcal/mol

CAUTION: The rotational entropy is not quite correctly treated here
         because it includes a symmetry number that is not yet correctly
         implemented in ORCA!
For a nonlinear molecule the correct rotational entropy is:
    S(rot) = R*(ln(qrot/sn)+1.5)
    R    = 8.31441 J/mol/K = 1.987191683e-3 kcal/mol/K
    qrot = 213957.1537374
    sn is the rotational symmetry number. We have assumed 3 here
       if it is different for your molecule then you should correct
       the printed rotational entropy by manually evaluating the equation
       as given above

For convenience we print out the resulting values for sn=1 - 12:
 sn= 1  qrot/sn=  213957.1537 T*S(rot)=     8.16 kcal/mol T*S(tot)=    24.55 kcal/mol
 sn= 2  qrot/sn=  106978.5769 T*S(rot)=     7.75 kcal/mol T*S(tot)=    24.14 kcal/mol
 sn= 3  qrot/sn=   71319.0512 T*S(rot)=     7.51 kcal/mol T*S(tot)=    23.90 kcal/mol
 sn= 4  qrot/sn=   53489.2884 T*S(rot)=     7.34 kcal/mol T*S(tot)=    23.73 kcal/mol
 sn= 5  qrot/sn=   42791.4307 T*S(rot)=     7.21 kcal/mol T*S(tot)=    23.60 kcal/mol
 sn= 6  qrot/sn=   35659.5256 T*S(rot)=     7.10 kcal/mol T*S(tot)=    23.49 kcal/mol
 sn= 7  qrot/sn=   30565.3077 T*S(rot)=     7.01 kcal/mol T*S(tot)=    23.40 kcal/mol
 sn= 8  qrot/sn=   26744.6442 T*S(rot)=     6.93 kcal/mol T*S(tot)=    23.32 kcal/mol
 sn= 9  qrot/sn=   23773.0171 T*S(rot)=     6.86 kcal/mol T*S(tot)=    23.25 kcal/mol
 sn=10  qrot/sn=   21395.7154 T*S(rot)=     6.80 kcal/mol T*S(tot)=    23.19 kcal/mol
 sn=11  qrot/sn=   19450.6503 T*S(rot)=     6.74 kcal/mol T*S(tot)=    23.13 kcal/mol
 sn=12  qrot/sn=   17829.7628 T*S(rot)=     6.69 kcal/mol T*S(tot)=    23.08 kcal/mol

-------------------
GIBBS FREE ENTHALPY
-------------------

The Gibbs free enthalpy is G = H - T*S

Total enthalpy                    ...   -360.53858680 Eh
Total entropy correction          ...     -0.03809159 Eh    -23.90 kcal/mol
-----------------------------------------------------------------------
Final Gibbs free enthalpy         ...   -360.57667839 Eh

For completeness - the Gibbs free enthalpy minus the electronic energy
G-E(el)                           ...      0.07320657 Eh     45.94 kcal/mol

                             ****ORCA TERMINATED NORMALLY****
TOTAL RUN TIME: 0 days 0 hours 22 minutes 32 seconds 345 msec
