                         Program Version 3.0.3 - RELEASE   -
|  1> ! NORI PBE0 def2-TZVP UseSym TightOPT Freq TightSCF Grid3 FinalGrid5 XYZFile
|  2> % pal
|  3>     nprocs 8
|  4> end
|  5> %method
|  6>     SymThresh 5.0e-2
|  7> end
|  8> % geom
|  9>     MaxIter 10
| 10> end
| 11> % maxcore 2000
| 12> % output
| 13>     printlevel mini
| 14>     print[ P_Basis ] 0
| 15>     print[ P_SCFInfo ] 1
| 16>     print[ P_SCFIterInfo ] 1
| 17>     print[ P_OrbEn ] 0
| 18>     print[ P_Cartesian ] 0
| 19> end
| 20> % elprop
| 21>     Dipole false
| 22> end
| 23> *xyz 1 1
| 24>  O        1.0834785940    -0.3030495396    -0.3205793118
| 25>  C        2.4306157986    -0.0143870611    -0.1547351456
| 26>  C        2.8638115372    -0.3306650268     1.2748430756
| 27>  O        2.0491872457    -0.7545507319     2.0409963463
| 28>  C        3.2221972855    -0.8346953983    -1.1583869911
| 29>  C        2.8584066183    -2.2358710407    -1.4228944790
| 30>  N        2.4229059048    -1.1772527114    -2.3596872061
| 31>  H        0.7382720581    -0.5605147108     0.5543304146
| 32>  H        2.6327124711     1.0515846897    -0.3397833704
| 33>  H        3.9133909129    -0.1419230309     1.5574787098
| 34>  H        4.2337607158    -0.5177383363    -1.3843472183
| 35>  H        3.6019255174    -2.9115859441    -1.8246322882
| 36>  H        2.0376455418    -2.6781867842    -0.8727892595
| 37>  H        1.4404731470    -0.9082691957    -2.2798788498
| 38>  H        2.8388866519    -1.1201751780    -3.2825544267
| 39> *
| 40>
| 41>                          ****END OF INPUT****
 Total Charge           Charge          ....    1
 Multiplicity           Mult            ....    1
 Number of Electrons    NEL             ....   54
FINAL SINGLE POINT ENERGY      -361.876797855999
FINAL SINGLE POINT ENERGY      -361.876796915780
FINAL SINGLE POINT ENERGY      -361.876798325342

CARTESIAN COORDINATES (ANGSTROEM)
---------------------------------
  O     -0.000260    0.000690    1.384282
  C      0.129507    0.762670    0.232041
  C      1.555704    0.667261   -0.304422
  O      2.349684   -0.000663    0.290229
  C     -0.872325    0.256065   -0.791204
  C     -1.095820   -1.188757   -0.958074
  N     -2.047653   -0.389008   -0.156744
  H      0.887309   -0.339641    1.601728
  H     -0.084333    1.823443    0.432957
  H      1.810495    1.233431   -1.216569
  H     -1.127867    0.911396   -1.616039
  H     -1.497755   -1.560310   -1.891257
  H     -0.517876   -1.882353   -0.360504
  H     -1.952390   -0.492729    0.855310
  H     -2.980723   -0.212631   -0.512285

FINAL SINGLE POINT ENERGY      -361.876798374906
                    ***********************HURRAY********************
 Multiplicity           Mult            ....    1
 Number of Electrons    NEL             ....   54
 Basis Dimension        Dim             ....  265
FINAL SINGLE POINT ENERGY      -361.876798411369

VIBRATIONAL FREQUENCIES
-----------------------

   0:         0.00 cm**-1
   1:         0.00 cm**-1
   2:         0.00 cm**-1
   3:         0.00 cm**-1
   4:         0.00 cm**-1
   5:         0.00 cm**-1
   6:        81.52 cm**-1
   7:       135.23 cm**-1
   8:       240.17 cm**-1
   9:       280.44 cm**-1
  10:       329.91 cm**-1
  11:       407.74 cm**-1
  12:       537.68 cm**-1
  13:       620.78 cm**-1
  14:       717.37 cm**-1
  15:       813.10 cm**-1
  16:       847.52 cm**-1
  17:       871.40 cm**-1
  18:       895.17 cm**-1
  19:       907.60 cm**-1
  20:       989.50 cm**-1
  21:      1044.44 cm**-1
  22:      1063.39 cm**-1
  23:      1098.52 cm**-1
  24:      1171.33 cm**-1
  25:      1182.86 cm**-1
  26:      1200.79 cm**-1
  27:      1241.51 cm**-1
  28:      1264.49 cm**-1
  29:      1290.80 cm**-1
  30:      1349.81 cm**-1
  31:      1374.15 cm**-1
  32:      1403.38 cm**-1
  33:      1420.13 cm**-1
  34:      1480.84 cm**-1
  35:      1586.02 cm**-1
  36:      1844.07 cm**-1
  37:      3006.83 cm**-1
  38:      3018.41 cm**-1
  39:      3176.04 cm**-1
  40:      3208.18 cm**-1
  41:      3280.94 cm**-1
  42:      3438.66 cm**-1
  43:      3593.85 cm**-1
  44:      3635.43 cm**-1

IR SPECTRUM
-----------

 Mode    freq (cm**-1)   T**2         TX         TY         TZ
-------------------------------------------------------------------
   6:        81.52    4.324790  (  2.023901  -0.342031   0.334111)
   7:       135.23    2.317871  ( -0.371431   1.436166   0.342547)
   8:       240.17   15.013838  ( -3.229767  -2.028004  -0.685305)
   9:       280.44    4.007284  ( -1.522367  -1.215260  -0.461331)
  10:       329.91   35.236306  ( -0.114208  -0.245678  -5.929832)
  11:       407.74    2.362920  (  1.210001   0.347130  -0.882224)
  12:       537.68   74.770816  (  1.897168   6.075656   5.853031)
  13:       620.78   15.522602  (  1.307782  -3.189512  -1.907701)
  14:       717.37    7.226207  ( -2.073553   0.752445   1.536363)
  15:       813.10   15.324625  (  3.812732   0.818571  -0.342988)
  16:       847.52    3.110956  (  0.873040  -1.456779  -0.475977)
  17:       871.40   60.563869  (  6.354176   0.978151  -4.385377)
  18:       895.17   11.801661  ( -0.962239  -0.776206  -3.205193)
  19:       907.60    7.545701  (  2.529906   0.926469  -0.535661)
  20:       989.50   10.670491  (  0.659472   2.013994  -2.485843)
  21:      1044.44   58.529938  (  3.272291   6.495567  -2.372690)
  22:      1063.39   34.155142  ( -1.412645   5.592222  -0.941609)
  23:      1098.52   51.818267  (  3.836357   4.125435   4.481230)
  24:      1171.33    0.453241  ( -0.588378  -0.028338   0.325959)
  25:      1182.86    4.178487  ( -0.815677  -1.389611  -1.257831)
  26:      1200.79   67.704539  ( -1.978464  -4.141911   6.828967)
  27:      1241.51   12.078023  ( -2.313817   0.318332   2.573507)
  28:      1264.49   13.552185  ( -1.588723  -0.723433   3.241109)
  29:      1290.80   21.099264  (  4.101424   1.833262  -0.957461)
  30:      1349.81   15.035620  ( -1.438613  -2.346496   2.731294)
  31:      1374.15   41.186753  ( -1.520245  -3.396143   5.228941)
  32:      1403.38    3.577035  (  0.439737   1.044869  -1.513907)
  33:      1420.13   23.648321  (  0.174418  -3.604635   3.259525)
  34:      1480.84   13.203549  (  1.507599  -2.489130  -2.175989)
  35:      1586.02   88.377754  ( -8.598576  -1.184503   3.610982)
  36:      1844.07  115.026951  (  9.269045  -4.140419   3.459579)
  37:      3006.83   11.970478  (  0.949617   1.774050  -2.814508)
  38:      3018.41   20.472660  ( -1.466276  -2.962155   3.090037)
  39:      3176.04    4.181218  ( -0.347513   1.984494   0.349623)
  40:      3208.18    2.269396  ( -0.037800   0.968517  -1.153231)
  41:      3280.94   10.073701  (  1.653421  -0.449260   2.671716)
  42:      3438.66  115.702232  ( -3.513251   0.356391  10.160329)
  43:      3593.85  191.477086  ( 11.738546  -1.501737   7.171361)
  44:      3635.43  150.179227  (-11.754187   2.793486  -2.052988)

--------------------------
THERMOCHEMISTRY AT 298.15K
--------------------------

Temperature         ... 298.15 K
Pressure            ... 1.00 atm
Total Mass          ... 102.11 AMU

Throughout the following assumptions are being made:
  (1) The electronic state is orbitally nondegenerate
  (2) There are no thermally accessible electronically excited states
  (3) Hindered rotations indicated by low frequency modes) are not
      treated as such but are treated as vibrations and this may
      case some error
  (4) All equations used are the standard statistical mechanics
      equations for an ideal gas
  (5) All vibrations are strinctly harmonic

------------
INNER ENERGY
------------

The inner energy is: U= E(el) + E(ZPE) + E(vib) + E(rot) + E(trans)
    E(el)   - is the total energy from the electronic structure calculation
              = E(kin-el) + E(nuc-el) + E(el-el) + E(nuc-nuc)
    E(ZPE)  - the the zero temperature vibrational energy from the frequency calculation
    E(vib)  - the the finite temperature correction to E(ZPE) due to population
              of excietd vibrational states
    E(rot)  - is the rotational thermal energy
    E(trans)- is the translational thermal energy

Summary of contributions to the inner energy U:
Electronic energy                ...   -361.87679841 Eh
Zero point energy                ...      0.12769121 Eh      80.13 kcal/mol
Thermal vibrational correction   ...      0.00408921 Eh       2.57 kcal/mol
Thermal rotational correction    ...      0.00141627 Eh       0.89 kcal/mol
Thermal translational correction ...      0.00141627 Eh       0.89 kcal/mol
-----------------------------------------------------------------------
Total thermal energy                   -361.74218545 Eh

Summary of corrections to the electronic energy:
(perhaps to be used in another calculation)
Total thermal correction                  0.00692176 Eh       4.34 kcal/mol
Non-thermal (ZPE) correction              0.12769121 Eh      80.13 kcal/mol
-----------------------------------------------------------------------
Total correction                          0.13461297 Eh      84.47 kcal/mol

--------
ENTHALPY
--------

The enthalpy is H = U + kB*T
                kB is Boltzmann's constant
Total free energy                 ...   -361.74218545 Eh
Thermal Enthalpy correction       ...      0.00094421 Eh       0.59 kcal/mol
-----------------------------------------------------------------------
Total Enthalpy                    ...   -361.74124124 Eh

-------
ENTROPY
-------

The entropy contributions are T*S = T*(S(el)+S(vib)+S(rot)+S(trans)
     S(el)   - electronic entropy
     S(vib)  - vibrational entropy
     S(rot)  - rotational entropy
     S(trans)- translational entropy
The entropies will be listed as mutliplied by the temperature to get
units of energy

Electronic entropy                ...      0.00000000 Eh      0.00 kcal/mol
Vibrational entropy               ...      0.00711044 Eh      4.46 kcal/mol
Rotational entropy                ...      0.01193356 Eh      7.49 kcal/mol
Translational entropy             ...      0.01890086 Eh     11.86 kcal/mol
-----------------------------------------------------------------------
Final entropy term                ...      0.03794486 Eh     23.81 kcal/mol

CAUTION: The rotational entropy is not quite correctly treated here
         because it includes a symmetry number that is not yet correctly
         implemented in ORCA!
For a nonlinear molecule the correct rotational entropy is:
    S(rot) = R*(ln(qrot/sn)+1.5)
    R    = 8.31441 J/mol/K = 1.987191683e-3 kcal/mol/K
    qrot = 206421.6441242
    sn is the rotational symmetry number. We have assumed 3 here
       if it is different for your molecule then you should correct
       the printed rotational entropy by manually evaluating the equation
       as given above

For convenience we print out the resulting values for sn=1 - 12:
 sn= 1  qrot/sn=  206421.6441 T*S(rot)=     8.14 kcal/mol T*S(tot)=    24.46 kcal/mol
 sn= 2  qrot/sn=  103210.8221 T*S(rot)=     7.73 kcal/mol T*S(tot)=    24.05 kcal/mol
 sn= 3  qrot/sn=   68807.2147 T*S(rot)=     7.49 kcal/mol T*S(tot)=    23.81 kcal/mol
 sn= 4  qrot/sn=   51605.4110 T*S(rot)=     7.32 kcal/mol T*S(tot)=    23.64 kcal/mol
 sn= 5  qrot/sn=   41284.3288 T*S(rot)=     7.19 kcal/mol T*S(tot)=    23.51 kcal/mol
 sn= 6  qrot/sn=   34403.6074 T*S(rot)=     7.08 kcal/mol T*S(tot)=    23.40 kcal/mol
 sn= 7  qrot/sn=   29488.8063 T*S(rot)=     6.99 kcal/mol T*S(tot)=    23.31 kcal/mol
 sn= 8  qrot/sn=   25802.7055 T*S(rot)=     6.91 kcal/mol T*S(tot)=    23.23 kcal/mol
 sn= 9  qrot/sn=   22935.7382 T*S(rot)=     6.84 kcal/mol T*S(tot)=    23.16 kcal/mol
 sn=10  qrot/sn=   20642.1644 T*S(rot)=     6.78 kcal/mol T*S(tot)=    23.10 kcal/mol
 sn=11  qrot/sn=   18765.6040 T*S(rot)=     6.72 kcal/mol T*S(tot)=    23.04 kcal/mol
 sn=12  qrot/sn=   17201.8037 T*S(rot)=     6.67 kcal/mol T*S(tot)=    22.99 kcal/mol

-------------------
GIBBS FREE ENTHALPY
-------------------

The Gibbs free enthalpy is G = H - T*S

Total enthalpy                    ...   -361.74124124 Eh
Total entropy correction          ...     -0.03794486 Eh    -23.81 kcal/mol
-----------------------------------------------------------------------
Final Gibbs free enthalpy         ...   -361.77918610 Eh

For completeness - the Gibbs free enthalpy minus the electronic energy
G-E(el)                           ...      0.09761231 Eh     61.25 kcal/mol

                             ****ORCA TERMINATED NORMALLY****
TOTAL RUN TIME: 0 days 0 hours 31 minutes 17 seconds 877 msec
