                         Program Version 3.0.3 - RELEASE   -
|  1> ! NORI PBE0 def2-TZVP UseSym TightOPT Freq TightSCF Grid3 FinalGrid5 XYZFile
|  2> % pal
|  3>     nprocs 8
|  4> end
|  5> %method
|  6>     SymThresh 5.0e-2
|  7> end
|  8> % geom
|  9>     MaxIter 10
| 10> end
| 11> % maxcore 2000
| 12> % output
| 13>     printlevel mini
| 14>     print[ P_Basis ] 0
| 15>     print[ P_SCFInfo ] 1
| 16>     print[ P_SCFIterInfo ] 1
| 17>     print[ P_OrbEn ] 0
| 18>     print[ P_Cartesian ] 0
| 19> end
| 20> % elprop
| 21>     Dipole false
| 22> end
| 23> *xyz 1 1
| 24>  O        0.8084503578    -0.3553244651    -0.3354724455
| 25>  C        1.8953653578    -0.1084930814    -1.1452833620
| 26>  C        3.0172313404     0.4316952222    -0.3218479904
| 27>  O        3.0280780926     0.5594690274     0.8713907962
| 28>  C        4.2620761823     0.8872469884    -1.0776323232
| 29>  C        4.6956732447     2.2823582351    -0.8383980846
| 30>  N        5.3293336050     1.1746532857    -0.1070623127
| 31>  H        0.0895898821    -0.7277269094    -0.8541129540
| 32>  H        1.7012298606     0.6266908711    -1.9475216892
| 33>  H        2.2915192501    -1.0092609568    -1.6499350449
| 34>  H        4.5740257786     0.3878159731    -1.9870222641
| 35>  H        4.0799727357     2.9173995230    -0.2126914689
| 36>  H        5.3334134956     2.7714415099    -1.5634777202
| 37>  H        6.2886898466     0.9150028536    -0.3090455813
| 38>  H        4.9864909700     1.0254519233     0.8528324447
| 39> *
| 40>
| 41>                          ****END OF INPUT****
 Total Charge           Charge          ....    1
 Multiplicity           Mult            ....    1
 Number of Electrons    NEL             ....   54
FINAL SINGLE POINT ENERGY      -361.874037657844

CARTESIAN COORDINATES (ANGSTROEM)
---------------------------------
  O     -0.000246    0.001721    2.652862
  C     -0.778507   -0.203937    1.534736
  C      0.075868   -0.129278    0.312716
  O      1.268432    0.001671    0.284047
  C     -0.644198   -0.201266   -1.030710
  C     -0.394514    0.920556   -1.963947
  N      0.356241   -0.336650   -2.100792
  H     -0.538447   -0.071750    3.446261
  H     -1.588745    0.537343    1.407906
  H     -1.268395   -1.194897    1.506488
  H     -1.543405   -0.794036   -1.148520
  H      0.212139    1.751862   -1.625434
  H     -1.101439    1.116123   -2.759708
  H      0.182221   -0.949556   -2.889823
  H      1.305946   -0.329902   -1.702227

FINAL SINGLE POINT ENERGY      -361.874038519722
                    ***********************HURRAY********************
 Multiplicity           Mult            ....    1
 Number of Electrons    NEL             ....   54
 Basis Dimension        Dim             ....  265
FINAL SINGLE POINT ENERGY      -361.874038973792

VIBRATIONAL FREQUENCIES
-----------------------

   0:         0.00 cm**-1
   1:         0.00 cm**-1
   2:         0.00 cm**-1
   3:         0.00 cm**-1
   4:         0.00 cm**-1
   5:         0.00 cm**-1
   6:        80.13 cm**-1
   7:       117.89 cm**-1
   8:       193.15 cm**-1
   9:       231.71 cm**-1
  10:       267.98 cm**-1
  11:       335.66 cm**-1
  12:       394.77 cm**-1
  13:       557.07 cm**-1
  14:       656.39 cm**-1
  15:       816.88 cm**-1
  16:       867.38 cm**-1
  17:       887.00 cm**-1
  18:       911.01 cm**-1
  19:       921.84 cm**-1
  20:      1009.40 cm**-1
  21:      1068.84 cm**-1
  22:      1074.44 cm**-1
  23:      1117.91 cm**-1
  24:      1158.65 cm**-1
  25:      1183.63 cm**-1
  26:      1198.85 cm**-1
  27:      1233.14 cm**-1
  28:      1254.78 cm**-1
  29:      1258.60 cm**-1
  30:      1278.05 cm**-1
  31:      1389.70 cm**-1
  32:      1439.99 cm**-1
  33:      1480.17 cm**-1
  34:      1482.66 cm**-1
  35:      1566.74 cm**-1
  36:      1842.53 cm**-1
  37:      2953.70 cm**-1
  38:      2973.74 cm**-1
  39:      3169.81 cm**-1
  40:      3215.57 cm**-1
  41:      3277.78 cm**-1
  42:      3329.66 cm**-1
  43:      3583.35 cm**-1
  44:      3865.54 cm**-1

IR SPECTRUM
-----------

 Mode    freq (cm**-1)   T**2         TX         TY         TZ
-------------------------------------------------------------------
   6:        80.13    0.217646  (  0.380677  -0.247935   0.106109)
   7:       117.89   27.260364  ( -0.419332   5.202789  -0.124539)
   8:       193.15   10.592570  ( -2.168567   0.149878  -2.422277)
   9:       231.71   94.658959  (  2.176167  -9.467749   0.533847)
  10:       267.98   26.703400  ( -0.701854   5.101123  -0.435143)
  11:       335.66   36.078139  ( -0.561984   0.367706   5.968844)
  12:       394.77    7.624107  (  0.826662  -0.028436  -2.634374)
  13:       557.07    2.542730  (  0.357798  -1.242803   0.932819)
  14:       656.39   11.996048  ( -0.699687  -0.451753  -3.361905)
  15:       816.88   29.601481  ( -2.744555  -0.110747  -4.696449)
  16:       867.38    7.606102  ( -1.260553   2.116869   1.239344)
  17:       887.00   10.779753  (  0.204475  -0.757045  -3.188232)
  18:       911.01    5.533767  (  1.733482  -1.587372  -0.095164)
  19:       921.84   32.686825  (  0.761440  -0.058158  -5.666008)
  20:      1009.40   17.743246  ( -1.078288  -0.399769   4.052249)
  21:      1068.84   46.056441  ( -3.234972  -2.263452  -5.519799)
  22:      1074.44   66.027003  (  3.146009   5.215815  -5.378188)
  23:      1117.91  129.914017  ( -0.001252  -1.869589  11.243605)
  24:      1158.65    1.866142  (  0.641944  -1.039767   0.610683)
  25:      1183.63   22.182704  (  0.679464  -0.372052  -4.645709)
  26:      1198.85    8.716494  ( -2.309640  -1.058026  -1.504207)
  27:      1233.14   72.460994  (  6.817453   2.035041   4.673536)
  28:      1254.78    7.472608  ( -0.362471   1.301065  -2.376647)
  29:      1258.60    3.221642  ( -1.194570   0.192565   1.325731)
  30:      1278.05   17.211601  ( -2.908876   1.120548  -2.737593)
  31:      1389.70   15.392416  (  0.423613  -1.465802   3.614470)
  32:      1439.99   36.419285  (  3.409097   0.866524  -4.903721)
  33:      1480.17    7.062224  (  2.407748  -1.088155   0.284416)
  34:      1482.66   11.045873  ( -0.012474   3.119211   1.147275)
  35:      1566.74   98.211112  ( -7.299870   3.996285   5.380773)
  36:      1842.53  101.373081  (-10.035181  -0.814894  -0.064600)
  37:      2953.70   45.886299  ( -2.179534  -0.390156  -6.401852)
  38:      2973.74    6.283718  (  0.617694  -2.423348   0.171917)
  39:      3169.81    4.276163  (  0.187569   2.025997  -0.369213)
  40:      3215.57    4.501170  (  1.778220   1.085345   0.401414)
  41:      3277.78   10.798206  (  2.263194   1.153968   2.084351)
  42:      3329.66  134.025833  ( -9.939215   2.716724  -5.277997)
  43:      3583.35  190.107057  (  2.456002   6.687713  11.804643)
  44:      3865.54  125.044967  (  2.929680   0.295680 -10.787702)

--------------------------
THERMOCHEMISTRY AT 298.15K
--------------------------

Temperature         ... 298.15 K
Pressure            ... 1.00 atm
Total Mass          ... 102.11 AMU

Throughout the following assumptions are being made:
  (1) The electronic state is orbitally nondegenerate
  (2) There are no thermally accessible electronically excited states
  (3) Hindered rotations indicated by low frequency modes) are not
      treated as such but are treated as vibrations and this may
      case some error
  (4) All equations used are the standard statistical mechanics
      equations for an ideal gas
  (5) All vibrations are strinctly harmonic

------------
INNER ENERGY
------------

The inner energy is: U= E(el) + E(ZPE) + E(vib) + E(rot) + E(trans)
    E(el)   - is the total energy from the electronic structure calculation
              = E(kin-el) + E(nuc-el) + E(el-el) + E(nuc-nuc)
    E(ZPE)  - the the zero temperature vibrational energy from the frequency calculation
    E(vib)  - the the finite temperature correction to E(ZPE) due to population
              of excietd vibrational states
    E(rot)  - is the rotational thermal energy
    E(trans)- is the translational thermal energy

Summary of contributions to the inner energy U:
Electronic energy                ...   -361.87403897 Eh
Zero point energy                ...      0.12677122 Eh      79.55 kcal/mol
Thermal vibrational correction   ...      0.00457417 Eh       2.87 kcal/mol
Thermal rotational correction    ...      0.00141627 Eh       0.89 kcal/mol
Thermal translational correction ...      0.00141627 Eh       0.89 kcal/mol
-----------------------------------------------------------------------
Total thermal energy                   -361.73986104 Eh

Summary of corrections to the electronic energy:
(perhaps to be used in another calculation)
Total thermal correction                  0.00740672 Eh       4.65 kcal/mol
Non-thermal (ZPE) correction              0.12677122 Eh      79.55 kcal/mol
-----------------------------------------------------------------------
Total correction                          0.13417794 Eh      84.20 kcal/mol

--------
ENTHALPY
--------

The enthalpy is H = U + kB*T
                kB is Boltzmann's constant
Total free energy                 ...   -361.73986104 Eh
Thermal Enthalpy correction       ...      0.00094421 Eh       0.59 kcal/mol
-----------------------------------------------------------------------
Total Enthalpy                    ...   -361.73891683 Eh

-------
ENTROPY
-------

The entropy contributions are T*S = T*(S(el)+S(vib)+S(rot)+S(trans)
     S(el)   - electronic entropy
     S(vib)  - vibrational entropy
     S(rot)  - rotational entropy
     S(trans)- translational entropy
The entropies will be listed as mutliplied by the temperature to get
units of energy

Electronic entropy                ...      0.00000000 Eh      0.00 kcal/mol
Vibrational entropy               ...      0.00816675 Eh      5.12 kcal/mol
Rotational entropy                ...      0.01198959 Eh      7.52 kcal/mol
Translational entropy             ...      0.01890086 Eh     11.86 kcal/mol
-----------------------------------------------------------------------
Final entropy term                ...      0.03905719 Eh     24.51 kcal/mol

CAUTION: The rotational entropy is not quite correctly treated here
         because it includes a symmetry number that is not yet correctly
         implemented in ORCA!
For a nonlinear molecule the correct rotational entropy is:
    S(rot) = R*(ln(qrot/sn)+1.5)
    R    = 8.31441 J/mol/K = 1.987191683e-3 kcal/mol/K
    qrot = 219040.4002033
    sn is the rotational symmetry number. We have assumed 3 here
       if it is different for your molecule then you should correct
       the printed rotational entropy by manually evaluating the equation
       as given above

For convenience we print out the resulting values for sn=1 - 12:
 sn= 1  qrot/sn=  219040.4002 T*S(rot)=     8.17 kcal/mol T*S(tot)=    25.16 kcal/mol
 sn= 2  qrot/sn=  109520.2001 T*S(rot)=     7.76 kcal/mol T*S(tot)=    24.75 kcal/mol
 sn= 3  qrot/sn=   73013.4667 T*S(rot)=     7.52 kcal/mol T*S(tot)=    24.51 kcal/mol
 sn= 4  qrot/sn=   54760.1001 T*S(rot)=     7.35 kcal/mol T*S(tot)=    24.34 kcal/mol
 sn= 5  qrot/sn=   43808.0800 T*S(rot)=     7.22 kcal/mol T*S(tot)=    24.21 kcal/mol
 sn= 6  qrot/sn=   36506.7334 T*S(rot)=     7.11 kcal/mol T*S(tot)=    24.10 kcal/mol
 sn= 7  qrot/sn=   31291.4857 T*S(rot)=     7.02 kcal/mol T*S(tot)=    24.01 kcal/mol
 sn= 8  qrot/sn=   27380.0500 T*S(rot)=     6.94 kcal/mol T*S(tot)=    23.93 kcal/mol
 sn= 9  qrot/sn=   24337.8222 T*S(rot)=     6.87 kcal/mol T*S(tot)=    23.86 kcal/mol
 sn=10  qrot/sn=   21904.0400 T*S(rot)=     6.81 kcal/mol T*S(tot)=    23.80 kcal/mol
 sn=11  qrot/sn=   19912.7637 T*S(rot)=     6.75 kcal/mol T*S(tot)=    23.74 kcal/mol
 sn=12  qrot/sn=   18253.3667 T*S(rot)=     6.70 kcal/mol T*S(tot)=    23.69 kcal/mol

-------------------
GIBBS FREE ENTHALPY
-------------------

The Gibbs free enthalpy is G = H - T*S

Total enthalpy                    ...   -361.73891683 Eh
Total entropy correction          ...     -0.03905719 Eh    -24.51 kcal/mol
-----------------------------------------------------------------------
Final Gibbs free enthalpy         ...   -361.77797402 Eh

For completeness - the Gibbs free enthalpy minus the electronic energy
G-E(el)                           ...      0.09606496 Eh     60.28 kcal/mol

                             ****ORCA TERMINATED NORMALLY****
TOTAL RUN TIME: 0 days 0 hours 26 minutes 35 seconds 925 msec
