                         Program Version 3.0.3 - RELEASE   -
|  1> ! NORI PBE0 def2-TZVP UseSym TightOPT Freq TightSCF Grid3 FinalGrid5 XYZFile
|  2> % pal
|  3>     nprocs 8
|  4> end
|  5> %method
|  6>     SymThresh 5.0e-2
|  7> end
|  8> % geom
|  9>     MaxIter 10
| 10> end
| 11> % maxcore 2000
| 12> % output
| 13>     printlevel mini
| 14>     print[ P_Basis ] 0
| 15>     print[ P_SCFInfo ] 1
| 16>     print[ P_SCFIterInfo ] 1
| 17>     print[ P_OrbEn ] 0
| 18>     print[ P_Cartesian ] 0
| 19> end
| 20> % elprop
| 21>     Dipole false
| 22> end
| 23> *xyz 1 1
| 24>  O        3.4346740270    -0.8702249338     0.3519178950
| 25>  C        2.5185675545     0.0484665791    -0.1962075744
| 26>  C        3.0116828951     1.4464876355     0.1333823883
| 27>  O        3.0194073478     1.7213869908     1.5137532947
| 28>  C        4.4460417232     1.6206679111    -0.3057178734
| 29>  C        5.3497069771     2.5565166421     0.3838288381
| 30>  N        5.4254978471     1.1116565645     0.6799841446
| 31>  H        3.0828475540    -1.7619660914     0.2862975173
| 32>  H        2.4409664982    -0.0535077802    -1.2870224948
| 33>  H        1.5108543239    -0.0778507573     0.2191815820
| 34>  H        2.4040102354     2.1748381422    -0.4198127067
| 35>  H        2.1624873238     1.5253528525     1.9032381079
| 36>  H        4.6772702602     1.3480267845    -1.3281769990
| 37>  H        4.9654149979     3.1432567676     1.2070570612
| 38>  H        6.2087112237     2.9467909315    -0.1455080737
| 39>  H        6.2128907761     0.5622929299     0.3580187817
| 40>  H        4.9888984348     0.7951888315     1.5447261112
| 41> *
| 42>
| 43>                          ****END OF INPUT****
 Total Charge           Charge          ....    1
 Multiplicity           Mult            ....    1
 Number of Electrons    NEL             ....   56
FINAL SINGLE POINT ENERGY      -363.101550124798

CARTESIAN COORDINATES (ANGSTROEM)
---------------------------------
  O      0.000413    0.000472    1.956549
  C      0.302994    1.195179    1.275022
  C      0.405009    0.870842   -0.205143
  O      1.467369   -0.000466   -0.510719
  C     -0.835625    0.151691   -0.678307
  C     -0.789647   -0.792174   -1.807345
  N     -0.800667   -1.305612   -0.422555
  H      0.067532    0.138733    2.904993
  H     -0.475283    1.956440    1.419573
  H      1.254576    1.629046    1.607629
  H      0.479255    1.810812   -0.768267
  H      2.292358    0.328612   -0.142461
  H     -1.785868    0.612394   -0.436810
  H      0.150956   -0.952540   -2.316462
  H     -1.695535   -0.994049   -2.363124
  H     -1.624126   -1.763541   -0.051476
  H      0.090643   -1.619110   -0.040349

FINAL SINGLE POINT ENERGY      -363.101550584745
                    ***********************HURRAY********************
 Multiplicity           Mult            ....    1
 Number of Electrons    NEL             ....   56
 Basis Dimension        Dim             ....  277
FINAL SINGLE POINT ENERGY      -363.101550800598

VIBRATIONAL FREQUENCIES
-----------------------

   0:         0.00 cm**-1
   1:         0.00 cm**-1
   2:         0.00 cm**-1
   3:         0.00 cm**-1
   4:         0.00 cm**-1
   5:         0.00 cm**-1
   6:        89.37 cm**-1
   7:       126.77 cm**-1
   8:       227.04 cm**-1
   9:       253.93 cm**-1
  10:       279.60 cm**-1
  11:       300.25 cm**-1
  12:       331.54 cm**-1
  13:       393.14 cm**-1
  14:       547.59 cm**-1
  15:       716.85 cm**-1
  16:       796.32 cm**-1
  17:       837.97 cm**-1
  18:       882.57 cm**-1
  19:       904.22 cm**-1
  20:       934.35 cm**-1
  21:       967.73 cm**-1
  22:      1026.21 cm**-1
  23:      1048.46 cm**-1
  24:      1075.90 cm**-1
  25:      1133.89 cm**-1
  26:      1161.09 cm**-1
  27:      1176.64 cm**-1
  28:      1180.14 cm**-1
  29:      1220.32 cm**-1
  30:      1229.62 cm**-1
  31:      1251.01 cm**-1
  32:      1270.46 cm**-1
  33:      1284.75 cm**-1
  34:      1363.62 cm**-1
  35:      1389.16 cm**-1
  36:      1451.54 cm**-1
  37:      1457.49 cm**-1
  38:      1484.27 cm**-1
  39:      1511.31 cm**-1
  40:      1601.29 cm**-1
  41:      3016.47 cm**-1
  42:      3041.57 cm**-1
  43:      3059.56 cm**-1
  44:      3181.40 cm**-1
  45:      3215.20 cm**-1
  46:      3287.34 cm**-1
  47:      3474.78 cm**-1
  48:      3612.39 cm**-1
  49:      3864.56 cm**-1
  50:      3871.40 cm**-1

IR SPECTRUM
-----------

 Mode    freq (cm**-1)   T**2         TX         TY         TZ
-------------------------------------------------------------------
   6:        89.37   11.344283  (  2.263868  -0.307264  -2.474828)
   7:       126.77    8.132710  ( -2.628584  -0.490681  -0.991206)
   8:       227.04   13.390851  ( -1.138057   0.556050   3.433145)
   9:       253.93  128.493701  (  6.358110   3.469498  -8.719559)
  10:       279.60   37.184850  (  5.737084  -0.077453   2.065119)
  11:       300.25   89.483129  (  7.738791  -4.647330   2.827821)
  12:       331.54   11.972846  ( -2.778594  -1.908237   0.781597)
  13:       393.14    5.893951  (  1.327505  -0.686913   1.913069)
  14:       547.59   21.566238  (  2.306624  -3.252108   2.381075)
  15:       716.85   14.787364  (  1.429147   1.265200  -3.338289)
  16:       796.32    7.887986  ( -2.046094  -0.054242   1.923159)
  17:       837.97    4.063989  ( -0.810547   0.883380  -1.620692)
  18:       882.57    8.593596  (  2.506888   1.421892  -0.536033)
  19:       904.22   36.552994  (  2.059225  -5.374539   1.851194)
  20:       934.35   22.670408  (  2.986308  -1.119972  -3.535256)
  21:       967.73   11.004158  ( -2.245879  -2.406076   0.413505)
  22:      1026.21   20.083595  ( -1.044154   3.610643   2.440614)
  23:      1048.46   86.306334  (  1.848550  -7.414716  -5.283104)
  24:      1075.90   45.664444  ( -6.179895  -2.497842  -1.110915)
  25:      1133.89   43.873137  (  1.563150   3.447899  -5.435227)
  26:      1161.09    0.950485  ( -0.424241  -0.483884   0.732367)
  27:      1176.64    0.935971  ( -0.790847   0.056581  -0.554374)
  28:      1180.14   16.056887  (  1.043090  -3.852250  -0.359195)
  29:      1220.32   35.529862  ( -2.270907  -4.664582   2.935049)
  30:      1229.62  104.615589  ( -4.197643   9.231510   1.332144)
  31:      1251.01   12.031222  ( -2.347782   2.546428   0.186665)
  32:      1270.46    3.505477  (  1.258772   1.116814  -0.820790)
  33:      1284.75    7.860160  (  0.810587   1.960652   1.832744)
  34:      1363.62    8.576864  ( -2.271366  -0.798810   1.667233)
  35:      1389.16    1.887698  ( -0.807530  -1.111537  -0.008886)
  36:      1451.54    3.726815  ( -0.931184  -1.593761  -0.565363)
  37:      1457.49   21.607623  ( -1.764007   2.746747   3.309272)
  38:      1484.27    6.507418  (  0.502182  -0.556148   2.438428)
  39:      1511.31    5.235683  (  0.603771   0.569748   2.132259)
  40:      1601.29   69.659105  (  0.854544   7.271994  -4.005866)
  41:      3016.47   19.348742  (  0.951387   4.287975  -0.238490)
  42:      3041.57   15.453398  ( -1.003795   3.713271  -0.810807)
  43:      3059.56   18.742689  (  4.276908  -0.514707   0.431071)
  44:      3181.40    3.327693  (  0.750508  -0.475091  -1.593336)
  45:      3215.20    1.297592  ( -1.040784   0.440781   0.141676)
  46:      3287.34    9.214439  (  3.027553   0.013607  -0.219489)
  47:      3474.78  101.743601  ( -5.081019   5.869686  -6.440003)
  48:      3612.39  156.037375  ( 11.602891   4.415553  -1.383180)
  49:      3864.56   99.419272  (  9.801861   1.347460   1.235775)
  50:      3871.40  106.462476  ( -0.879234   0.664521 -10.259037)

--------------------------
THERMOCHEMISTRY AT 298.15K
--------------------------

Temperature         ... 298.15 K
Pressure            ... 1.00 atm
Total Mass          ... 104.13 AMU

Throughout the following assumptions are being made:
  (1) The electronic state is orbitally nondegenerate
  (2) There are no thermally accessible electronically excited states
  (3) Hindered rotations indicated by low frequency modes) are not
      treated as such but are treated as vibrations and this may
      case some error
  (4) All equations used are the standard statistical mechanics
      equations for an ideal gas
  (5) All vibrations are strinctly harmonic

------------
INNER ENERGY
------------

The inner energy is: U= E(el) + E(ZPE) + E(vib) + E(rot) + E(trans)
    E(el)   - is the total energy from the electronic structure calculation
              = E(kin-el) + E(nuc-el) + E(el-el) + E(nuc-nuc)
    E(ZPE)  - the the zero temperature vibrational energy from the frequency calculation
    E(vib)  - the the finite temperature correction to E(ZPE) due to population
              of excietd vibrational states
    E(rot)  - is the rotational thermal energy
    E(trans)- is the translational thermal energy

Summary of contributions to the inner energy U:
Electronic energy                ...   -363.10155080 Eh
Zero point energy                ...      0.15156895 Eh      95.11 kcal/mol
Thermal vibrational correction   ...      0.00492893 Eh       3.09 kcal/mol
Thermal rotational correction    ...      0.00141627 Eh       0.89 kcal/mol
Thermal translational correction ...      0.00141627 Eh       0.89 kcal/mol
-----------------------------------------------------------------------
Total thermal energy                   -362.94222038 Eh

Summary of corrections to the electronic energy:
(perhaps to be used in another calculation)
Total thermal correction                  0.00776147 Eh       4.87 kcal/mol
Non-thermal (ZPE) correction              0.15156895 Eh      95.11 kcal/mol
-----------------------------------------------------------------------
Total correction                          0.15933042 Eh      99.98 kcal/mol

--------
ENTHALPY
--------

The enthalpy is H = U + kB*T
                kB is Boltzmann's constant
Total free energy                 ...   -362.94222038 Eh
Thermal Enthalpy correction       ...      0.00094421 Eh       0.59 kcal/mol
-----------------------------------------------------------------------
Total Enthalpy                    ...   -362.94127617 Eh

-------
ENTROPY
-------

The entropy contributions are T*S = T*(S(el)+S(vib)+S(rot)+S(trans)
     S(el)   - electronic entropy
     S(vib)  - vibrational entropy
     S(rot)  - rotational entropy
     S(trans)- translational entropy
The entropies will be listed as mutliplied by the temperature to get
units of energy

Electronic entropy                ...      0.00000000 Eh      0.00 kcal/mol
Vibrational entropy               ...      0.00850365 Eh      5.34 kcal/mol
Rotational entropy                ...      0.01194873 Eh      7.50 kcal/mol
Translational entropy             ...      0.01892854 Eh     11.88 kcal/mol
-----------------------------------------------------------------------
Final entropy term                ...      0.03938092 Eh     24.71 kcal/mol

CAUTION: The rotational entropy is not quite correctly treated here
         because it includes a symmetry number that is not yet correctly
         implemented in ORCA!
For a nonlinear molecule the correct rotational entropy is:
    S(rot) = R*(ln(qrot/sn)+1.5)
    R    = 8.31441 J/mol/K = 1.987191683e-3 kcal/mol/K
    qrot = 209763.5415147
    sn is the rotational symmetry number. We have assumed 3 here
       if it is different for your molecule then you should correct
       the printed rotational entropy by manually evaluating the equation
       as given above

For convenience we print out the resulting values for sn=1 - 12:
 sn= 1  qrot/sn=  209763.5415 T*S(rot)=     8.15 kcal/mol T*S(tot)=    25.36 kcal/mol
 sn= 2  qrot/sn=  104881.7708 T*S(rot)=     7.74 kcal/mol T*S(tot)=    24.95 kcal/mol
 sn= 3  qrot/sn=   69921.1805 T*S(rot)=     7.50 kcal/mol T*S(tot)=    24.71 kcal/mol
 sn= 4  qrot/sn=   52440.8854 T*S(rot)=     7.33 kcal/mol T*S(tot)=    24.54 kcal/mol
 sn= 5  qrot/sn=   41952.7083 T*S(rot)=     7.20 kcal/mol T*S(tot)=    24.41 kcal/mol
 sn= 6  qrot/sn=   34960.5903 T*S(rot)=     7.09 kcal/mol T*S(tot)=    24.30 kcal/mol
 sn= 7  qrot/sn=   29966.2202 T*S(rot)=     7.00 kcal/mol T*S(tot)=    24.21 kcal/mol
 sn= 8  qrot/sn=   26220.4427 T*S(rot)=     6.92 kcal/mol T*S(tot)=    24.13 kcal/mol
 sn= 9  qrot/sn=   23307.0602 T*S(rot)=     6.85 kcal/mol T*S(tot)=    24.06 kcal/mol
 sn=10  qrot/sn=   20976.3542 T*S(rot)=     6.78 kcal/mol T*S(tot)=    24.00 kcal/mol
 sn=11  qrot/sn=   19069.4129 T*S(rot)=     6.73 kcal/mol T*S(tot)=    23.94 kcal/mol
 sn=12  qrot/sn=   17480.2951 T*S(rot)=     6.68 kcal/mol T*S(tot)=    23.89 kcal/mol

-------------------
GIBBS FREE ENTHALPY
-------------------

The Gibbs free enthalpy is G = H - T*S

Total enthalpy                    ...   -362.94127617 Eh
Total entropy correction          ...     -0.03938092 Eh    -24.71 kcal/mol
-----------------------------------------------------------------------
Final Gibbs free enthalpy         ...   -362.98065709 Eh

For completeness - the Gibbs free enthalpy minus the electronic energy
G-E(el)                           ...      0.12089371 Eh     75.86 kcal/mol

                             ****ORCA TERMINATED NORMALLY****
TOTAL RUN TIME: 0 days 0 hours 35 minutes 48 seconds 462 msec
