                         Program Version 3.0.3 - RELEASE   -
|  1> ! NORI PBE0 def2-TZVP UseSym TightOPT Freq TightSCF Grid3 FinalGrid5 XYZFile
|  2> % pal
|  3>     nprocs 8
|  4> end
|  5> %method
|  6>     SymThresh 5.0e-2
|  7> end
|  8> % geom
|  9>     MaxIter 10
| 10> end
| 11> % maxcore 2000
| 12> % output
| 13>     printlevel mini
| 14>     print[ P_Basis ] 0
| 15>     print[ P_SCFInfo ] 1
| 16>     print[ P_SCFIterInfo ] 1
| 17>     print[ P_OrbEn ] 0
| 18>     print[ P_Cartesian ] 0
| 19> end
| 20> % elprop
| 21>     Dipole false
| 22> end
| 23> *xyz 1 1
| 24>  O        0.6966337973    -0.9478388044     1.5189155852
| 25>  C        1.8129598172    -0.9476960561     1.0968785616
| 26>  N        2.9211302841    -0.6948980148     1.8806267628
| 27>  C        4.2403099951    -0.6860424232     1.3966630759
| 28>  C        5.1430899523     0.5391530600     1.6814681015
| 29>  N        6.2944826500    -0.4031398953     1.9783976437
| 30>  C        5.3127659751    -1.5537097874     2.1000174922
| 31>  H        2.0779467932    -1.1485005485     0.0408766383
| 32>  H        2.7275225997    -0.5022894356     2.8541592112
| 33>  H        4.2114871003    -0.9029798999     0.3257646920
| 34>  H        4.8748170595     1.0663310675     2.5964952256
| 35>  H        5.3597815371     1.2467348168     0.8837056324
| 36>  H        6.8565694171    -0.1929010481     2.8022058791
| 37>  H        6.9269472822    -0.5109900633     1.1861601730
| 38>  H        5.6612026896    -2.4687061109     1.6259574913
| 39>  H        5.1012730502    -1.7263668571     3.1544178344
| 40> *
| 41>
| 42>                          ****END OF INPUT****
 Total Charge           Charge          ....    1
 Multiplicity           Mult            ....    1
 Number of Electrons    NEL             ....   54
FINAL SINGLE POINT ENERGY      -342.034614698263
FINAL SINGLE POINT ENERGY      -342.034615642793
FINAL SINGLE POINT ENERGY      -342.034615979100
FINAL SINGLE POINT ENERGY      -342.034616642476

CARTESIAN COORDINATES (ANGSTROEM)
---------------------------------
  O      0.002623   -0.002602    3.103633
  C     -0.487175   -0.000797    2.015434
  N      0.253295   -0.000671    0.849996
  C     -0.306648    0.001606   -0.438820
  C      0.149486    1.070885   -1.461349
  N      0.182088    0.000616   -2.536319
  C      0.142155   -1.070272   -1.462176
  H     -1.577714    0.000528    1.825015
  H      1.256450   -0.000962    0.976531
  H     -1.394948    0.005239   -0.338007
  H      1.164851    1.425086   -1.287274
  H     -0.508714    1.903204   -1.701435
  H      0.992352   -0.001826   -3.154448
  H     -0.655692    0.003850   -3.117094
  H     -0.521865   -1.897781   -1.702949
  H      1.155032   -1.431611   -1.288258

FINAL SINGLE POINT ENERGY      -342.034616807797
                    ***********************HURRAY********************
 Multiplicity           Mult            ....    1
 Number of Electrons    NEL             ....   54
 Basis Dimension        Dim             ....  271
FINAL SINGLE POINT ENERGY      -342.034616921934

VIBRATIONAL FREQUENCIES
-----------------------

   0:         0.00 cm**-1
   1:         0.00 cm**-1
   2:         0.00 cm**-1
   3:         0.00 cm**-1
   4:         0.00 cm**-1
   5:         0.00 cm**-1
   6:        69.18 cm**-1
   7:       113.80 cm**-1
   8:       168.51 cm**-1
   9:       246.27 cm**-1
  10:       366.69 cm**-1
  11:       408.67 cm**-1
  12:       541.00 cm**-1
  13:       600.08 cm**-1
  14:       730.53 cm**-1
  15:       815.71 cm**-1
  16:       849.67 cm**-1
  17:       891.93 cm**-1
  18:       900.91 cm**-1
  19:       973.22 cm**-1
  20:       981.90 cm**-1
  21:      1032.49 cm**-1
  22:      1067.12 cm**-1
  23:      1095.06 cm**-1
  24:      1235.39 cm**-1
  25:      1240.69 cm**-1
  26:      1255.22 cm**-1
  27:      1271.20 cm**-1
  28:      1285.12 cm**-1
  29:      1313.84 cm**-1
  30:      1320.65 cm**-1
  31:      1320.82 cm**-1
  32:      1364.79 cm**-1
  33:      1427.24 cm**-1
  34:      1476.73 cm**-1
  35:      1497.18 cm**-1
  36:      1527.29 cm**-1
  37:      1654.13 cm**-1
  38:      1862.34 cm**-1
  39:      2964.74 cm**-1
  40:      3097.44 cm**-1
  41:      3117.13 cm**-1
  42:      3120.87 cm**-1
  43:      3194.06 cm**-1
  44:      3194.97 cm**-1
  45:      3471.60 cm**-1
  46:      3535.22 cm**-1
  47:      3594.46 cm**-1

IR SPECTRUM
-----------

 Mode    freq (cm**-1)   T**2         TX         TY         TZ
-------------------------------------------------------------------
   6:        69.18    0.102583  (  0.000477   0.320285  -0.000810)
   7:       113.80    0.534348  (  0.728818  -0.002965  -0.056239)
   8:       168.51    0.120834  ( -0.002459  -0.347599  -0.001757)
   9:       246.27    6.947304  (  2.571537  -0.006127  -0.578330)
  10:       366.69    0.089197  ( -0.000382   0.298653  -0.001723)
  11:       408.67    2.361421  ( -0.486628   0.000717  -1.457605)
  12:       541.00   17.968893  ( -3.063080  -0.002650   2.930260)
  13:       600.08  112.900012  ( -0.023707 -10.625411  -0.009441)
  14:       730.53    3.305395  (  1.168252  -0.005060   1.393038)
  15:       815.71    3.592194  ( -0.005647  -1.895299  -0.001746)
  16:       849.67    4.136711  ( -1.725896   0.004022   1.076094)
  17:       891.93    4.707162  (  2.136167  -0.009307  -0.379294)
  18:       900.91    3.321153  (  0.008624   1.822382   0.001664)
  19:       973.22    6.426164  ( -0.004043  -2.534948  -0.013591)
  20:       981.90   14.134632  ( -0.718078  -0.006666   3.690386)
  21:      1032.49    0.759383  ( -0.002373  -0.871420  -0.002131)
  22:      1067.12    2.698854  (  0.004981   1.642811   0.000567)
  23:      1095.06   24.653215  (  3.540341  -0.004649  -3.481261)
  24:      1235.39  253.949621  ( -4.866153  -0.013847  15.174649)
  25:      1240.69   31.770123  (  0.003623   5.636319   0.044966)
  26:      1255.22   25.404058  ( -1.459555   0.001243  -4.824288)
  27:      1271.20    5.423436  (  0.011557   2.328770  -0.011568)
  28:      1285.12    8.414093  ( -2.875150   0.007921  -0.384113)
  29:      1313.84    3.438686  (  0.007411   1.854345   0.005830)
  30:      1320.65   33.018967  (  0.089025  -5.741120   0.224917)
  31:      1320.82    2.909762  ( -0.565938  -1.080373  -1.192590)
  32:      1364.79    4.338391  ( -0.181093   0.001797   2.074992)
  33:      1427.24    2.667581  (  0.718034  -0.002131  -1.466971)
  34:      1476.73   15.901075  (  0.008880   3.987604   0.003116)
  35:      1497.18    9.054536  ( -2.550708   0.002266   1.596378)
  36:      1527.29   98.622834  (  1.708544   0.000936  -9.782827)
  37:      1654.13   73.298955  (  0.096730  -0.004822   8.560933)
  38:      1862.34  468.634990  (  2.141273  -0.024017  21.541805)
  39:      2964.74   52.506973  (  6.821880  -0.019443   2.443060)
  40:      3097.44    2.829539  (  0.886174  -0.003373   1.429763)
  41:      3117.13    0.008800  ( -0.022025   0.087515  -0.025614)
  42:      3120.87    0.381217  (  0.407089   0.003130   0.464205)
  43:      3194.06    0.379206  ( -0.199475  -0.575208   0.092472)
  44:      3194.97    0.986634  (  0.892051  -0.129760  -0.417181)
  45:      3471.60   92.467615  ( -0.051214  -0.004639   9.615871)
  46:      3535.22   96.715554  ( -9.834051   0.030696   0.077783)
  47:      3594.46   37.438038  ( -6.031712   0.013657  -1.027764)

--------------------------
THERMOCHEMISTRY AT 298.15K
--------------------------

Temperature         ... 298.15 K
Pressure            ... 1.00 atm
Total Mass          ... 101.13 AMU

Throughout the following assumptions are being made:
  (1) The electronic state is orbitally nondegenerate
  (2) There are no thermally accessible electronically excited states
  (3) Hindered rotations indicated by low frequency modes) are not
      treated as such but are treated as vibrations and this may
      case some error
  (4) All equations used are the standard statistical mechanics
      equations for an ideal gas
  (5) All vibrations are strinctly harmonic

------------
INNER ENERGY
------------

The inner energy is: U= E(el) + E(ZPE) + E(vib) + E(rot) + E(trans)
    E(el)   - is the total energy from the electronic structure calculation
              = E(kin-el) + E(nuc-el) + E(el-el) + E(nuc-nuc)
    E(ZPE)  - the the zero temperature vibrational energy from the frequency calculation
    E(vib)  - the the finite temperature correction to E(ZPE) due to population
              of excietd vibrational states
    E(rot)  - is the rotational thermal energy
    E(trans)- is the translational thermal energy

Summary of contributions to the inner energy U:
Electronic energy                ...   -342.03461692 Eh
Zero point energy                ...      0.14169259 Eh      88.91 kcal/mol
Thermal vibrational correction   ...      0.00425499 Eh       2.67 kcal/mol
Thermal rotational correction    ...      0.00141627 Eh       0.89 kcal/mol
Thermal translational correction ...      0.00141627 Eh       0.89 kcal/mol
-----------------------------------------------------------------------
Total thermal energy                   -341.88583680 Eh

Summary of corrections to the electronic energy:
(perhaps to be used in another calculation)
Total thermal correction                  0.00708754 Eh       4.45 kcal/mol
Non-thermal (ZPE) correction              0.14169259 Eh      88.91 kcal/mol
-----------------------------------------------------------------------
Total correction                          0.14878013 Eh      93.36 kcal/mol

--------
ENTHALPY
--------

The enthalpy is H = U + kB*T
                kB is Boltzmann's constant
Total free energy                 ...   -341.88583680 Eh
Thermal Enthalpy correction       ...      0.00094421 Eh       0.59 kcal/mol
-----------------------------------------------------------------------
Total Enthalpy                    ...   -341.88489259 Eh

-------
ENTROPY
-------

The entropy contributions are T*S = T*(S(el)+S(vib)+S(rot)+S(trans)
     S(el)   - electronic entropy
     S(vib)  - vibrational entropy
     S(rot)  - rotational entropy
     S(trans)- translational entropy
The entropies will be listed as mutliplied by the temperature to get
units of energy

Electronic entropy                ...      0.00000000 Eh      0.00 kcal/mol
Vibrational entropy               ...      0.00773950 Eh      4.86 kcal/mol
Rotational entropy                ...      0.01205740 Eh      7.57 kcal/mol
Translational entropy             ...      0.01888714 Eh     11.85 kcal/mol
-----------------------------------------------------------------------
Final entropy term                ...      0.03868405 Eh     24.27 kcal/mol

CAUTION: The rotational entropy is not quite correctly treated here
         because it includes a symmetry number that is not yet correctly
         implemented in ORCA!
For a nonlinear molecule the correct rotational entropy is:
    S(rot) = R*(ln(qrot/sn)+1.5)
    R    = 8.31441 J/mol/K = 1.987191683e-3 kcal/mol/K
    qrot = 235352.2322224
    sn is the rotational symmetry number. We have assumed 3 here
       if it is different for your molecule then you should correct
       the printed rotational entropy by manually evaluating the equation
       as given above

For convenience we print out the resulting values for sn=1 - 12:
 sn= 1  qrot/sn=  235352.2322 T*S(rot)=     8.22 kcal/mol T*S(tot)=    24.93 kcal/mol
 sn= 2  qrot/sn=  117676.1161 T*S(rot)=     7.81 kcal/mol T*S(tot)=    24.51 kcal/mol
 sn= 3  qrot/sn=   78450.7441 T*S(rot)=     7.57 kcal/mol T*S(tot)=    24.27 kcal/mol
 sn= 4  qrot/sn=   58838.0581 T*S(rot)=     7.40 kcal/mol T*S(tot)=    24.10 kcal/mol
 sn= 5  qrot/sn=   47070.4464 T*S(rot)=     7.26 kcal/mol T*S(tot)=    23.97 kcal/mol
 sn= 6  qrot/sn=   39225.3720 T*S(rot)=     7.16 kcal/mol T*S(tot)=    23.86 kcal/mol
 sn= 7  qrot/sn=   33621.7475 T*S(rot)=     7.06 kcal/mol T*S(tot)=    23.77 kcal/mol
 sn= 8  qrot/sn=   29419.0290 T*S(rot)=     6.98 kcal/mol T*S(tot)=    23.69 kcal/mol
 sn= 9  qrot/sn=   26150.2480 T*S(rot)=     6.92 kcal/mol T*S(tot)=    23.62 kcal/mol
 sn=10  qrot/sn=   23535.2232 T*S(rot)=     6.85 kcal/mol T*S(tot)=    23.56 kcal/mol
 sn=11  qrot/sn=   21395.6575 T*S(rot)=     6.80 kcal/mol T*S(tot)=    23.50 kcal/mol
 sn=12  qrot/sn=   19612.6860 T*S(rot)=     6.74 kcal/mol T*S(tot)=    23.45 kcal/mol

-------------------
GIBBS FREE ENTHALPY
-------------------

The Gibbs free enthalpy is G = H - T*S

Total enthalpy                    ...   -341.88489259 Eh
Total entropy correction          ...     -0.03868405 Eh    -24.27 kcal/mol
-----------------------------------------------------------------------
Final Gibbs free enthalpy         ...   -341.92357664 Eh

For completeness - the Gibbs free enthalpy minus the electronic energy
G-E(el)                           ...      0.11104028 Eh     69.68 kcal/mol

                             ****ORCA TERMINATED NORMALLY****
TOTAL RUN TIME: 0 days 0 hours 31 minutes 32 seconds 115 msec
