                         Program Version 3.0.3 - RELEASE   -
|  1> ! NORI PBE0 def2-TZVP UseSym TightOPT Freq TightSCF Grid3 FinalGrid5 XYZFile
|  2> % pal
|  3>     nprocs 8
|  4> end
|  5> %method
|  6>     SymThresh 5.0e-2
|  7> end
|  8> % geom
|  9>     MaxIter 10
| 10> end
| 11> % maxcore 2000
| 12> % output
| 13>     printlevel mini
| 14>     print[ P_Basis ] 0
| 15>     print[ P_SCFInfo ] 1
| 16>     print[ P_SCFIterInfo ] 1
| 17>     print[ P_OrbEn ] 0
| 18>     print[ P_Cartesian ] 0
| 19> end
| 20> % elprop
| 21>     Dipole false
| 22> end
| 23> *xyz 1 1
| 24>  O        4.0049692906     0.3335003253     3.3687894367
| 25>  C        3.0999937818    -0.4433584178     3.5226654985
| 26>  N        2.9875406654    -1.6122418793     2.8017029766
| 27>  C        3.7142511831    -1.7598913019     1.5576923560
| 28>  C        5.0958866242    -2.3546644018     1.7239808137
| 29>  C        6.0231707716    -1.9331987551     2.7805094285
| 30>  N        5.2948551792    -3.2218832228     2.9152644766
| 31>  H        2.2989630410    -0.3135909932     4.2682491594
| 32>  H        2.0916594425    -2.0743126089     2.8550624677
| 33>  H        3.1356831171    -2.3987309821     0.8890466913
| 34>  H        3.8421678868    -0.7874665420     1.0721549594
| 35>  H        5.5320765064    -2.7745214325     0.8240751058
| 36>  H        5.7041502097    -1.1687746347     3.4784227193
| 37>  H        7.0884637240    -2.0465671545     2.6264533921
| 38>  H        5.8030752476    -4.0943664464     2.8285916810
| 39>  H        4.5138933291    -3.2264415523     3.5689588376
| 40> *
| 41>
| 42>                          ****END OF INPUT****
 Total Charge           Charge          ....    1
 Multiplicity           Mult            ....    1
 Number of Electrons    NEL             ....   54
FINAL SINGLE POINT ENERGY      -342.041005827041
FINAL SINGLE POINT ENERGY      -342.041006694059
FINAL SINGLE POINT ENERGY      -342.041007853681
FINAL SINGLE POINT ENERGY      -342.041008565802

CARTESIAN COORDINATES (ANGSTROEM)
---------------------------------
  O      0.002772    0.010792    2.049147
  C      1.032366    0.317929    1.509168
  N      1.313919   -0.002838    0.199052
  C      0.573684   -1.060870   -0.456815
  C     -0.676563   -0.584974   -1.165067
  C     -1.626844    0.354419   -0.557773
  N     -0.681167    0.837912   -1.596995
  H      1.828979    0.904885    1.993942
  H      2.276220    0.113260   -0.082903
  H      1.227187   -1.542552   -1.185172
  H      0.260688   -1.815722    0.271028
  H     -1.063139   -1.254056   -1.926119
  H     -1.422099    0.730576    0.436725
  H     -2.660607    0.343202   -0.877771
  H     -1.031860    1.089202   -2.514021
  H      0.110197    1.383294   -1.260182

FINAL SINGLE POINT ENERGY      -342.041009216871
                    ***********************HURRAY********************
 Multiplicity           Mult            ....    1
 Number of Electrons    NEL             ....   54
 Basis Dimension        Dim             ....  271
FINAL SINGLE POINT ENERGY      -342.041009595686

VIBRATIONAL FREQUENCIES
-----------------------

   0:         0.00 cm**-1
   1:         0.00 cm**-1
   2:         0.00 cm**-1
   3:         0.00 cm**-1
   4:         0.00 cm**-1
   5:         0.00 cm**-1
   6:        58.36 cm**-1
   7:       141.60 cm**-1
   8:       208.16 cm**-1
   9:       250.73 cm**-1
  10:       326.72 cm**-1
  11:       353.76 cm**-1
  12:       589.56 cm**-1
  13:       620.58 cm**-1
  14:       760.29 cm**-1
  15:       762.95 cm**-1
  16:       846.30 cm**-1
  17:       862.41 cm**-1
  18:       902.16 cm**-1
  19:       943.21 cm**-1
  20:       995.03 cm**-1
  21:      1037.40 cm**-1
  22:      1046.50 cm**-1
  23:      1073.22 cm**-1
  24:      1123.44 cm**-1
  25:      1158.76 cm**-1
  26:      1183.68 cm**-1
  27:      1213.55 cm**-1
  28:      1254.77 cm**-1
  29:      1273.70 cm**-1
  30:      1326.19 cm**-1
  31:      1402.89 cm**-1
  32:      1411.76 cm**-1
  33:      1429.63 cm**-1
  34:      1460.03 cm**-1
  35:      1493.80 cm**-1
  36:      1513.20 cm**-1
  37:      1601.22 cm**-1
  38:      1821.49 cm**-1
  39:      3029.62 cm**-1
  40:      3074.84 cm**-1
  41:      3138.62 cm**-1
  42:      3171.17 cm**-1
  43:      3200.09 cm**-1
  44:      3278.19 cm**-1
  45:      3469.92 cm**-1
  46:      3603.36 cm**-1
  47:      3614.96 cm**-1

IR SPECTRUM
-----------

 Mode    freq (cm**-1)   T**2         TX         TY         TZ
-------------------------------------------------------------------
   6:        58.36    7.276165  ( -0.983722   1.316432  -2.139033)
   7:       141.60    5.471332  ( -1.190441   0.947704  -1.776524)
   8:       208.16   11.442422  ( -1.626796  -1.704178  -2.427289)
   9:       250.73    5.561883  ( -0.111390   1.008127   2.129121)
  10:       326.72   54.481576  ( -3.083743   4.462621  -5.005708)
  11:       353.76    6.507558  (  0.459225  -0.202909   2.501099)
  12:       589.56    3.276086  (  0.134562   0.642014   1.686949)
  13:       620.58   80.535267  ( -0.108503  -6.877662   5.763789)
  14:       760.29    1.978883  (  0.431566   1.178522   0.635389)
  15:       762.95   12.576398  ( -1.407620   1.093869  -3.065690)
  16:       846.30   16.629796  ( -1.616320  -1.641884   3.364747)
  17:       862.41   15.290281  (  1.282415   0.200047   3.688587)
  18:       902.16    9.367218  ( -1.418748   2.408561  -1.246278)
  19:       943.21   23.218846  (  1.544030   2.803140  -3.602391)
  20:       995.03    1.545035  ( -1.126447  -0.156789   0.501567)
  21:      1037.40   82.383840  (  5.652783  -6.510284  -2.836563)
  22:      1046.50    6.302808  (  1.849124  -1.666450   0.326333)
  23:      1073.22    3.240832  (  1.746716   0.138008  -0.413240)
  24:      1123.44   42.152315  (  2.282109  -0.618890   6.046592)
  25:      1158.76    6.687044  ( -1.322333   2.208521   0.246808)
  26:      1183.68    3.260143  (  0.999330  -1.455121  -0.379613)
  27:      1213.55   70.424299  (  1.512490   2.220492   7.950226)
  28:      1254.77    4.006250  (  1.571066  -0.472286  -1.146712)
  29:      1273.70   19.392301  (  2.741628   2.197828   2.654304)
  30:      1326.19    1.545764  (  0.276039  -1.188236  -0.240127)
  31:      1402.89   15.090149  (  0.878936   0.435640   3.758702)
  32:      1411.76    7.217605  (  1.470208  -0.464826  -2.200007)
  33:      1429.63    3.121741  ( -0.986918   0.588525   1.342152)
  34:      1460.03   13.752928  ( -0.476261   3.082574  -2.005951)
  35:      1493.80   44.116603  ( -3.690456   1.794363   5.222777)
  36:      1513.20   93.315986  ( -0.426621  -4.127637  -8.723336)
  37:      1601.22   85.894065  (  1.397906   7.155588  -5.721669)
  38:      1821.49  205.665007  ( -9.762025  -0.862010  10.470187)
  39:      3029.62   33.204617  (  4.644175   2.742124   2.029043)
  40:      3074.84    4.738574  ( -0.063799  -0.846480  -2.004489)
  41:      3138.62    0.481636  (  0.334667  -0.564195   0.226535)
  42:      3171.17    9.173532  (  0.036080  -0.308990  -3.012765)
  43:      3200.09    1.019890  (  0.227123   0.903254   0.390432)
  44:      3278.19   20.560558  (  2.697187   0.444463   3.617761)
  45:      3469.92   74.391512  ( -6.125411  -6.000186   0.931999)
  46:      3603.36  181.475516  (  7.716003  -1.525917  10.936654)
  47:      3614.96   56.994347  (  6.717988   0.511024  -3.406147)

--------------------------
THERMOCHEMISTRY AT 298.15K
--------------------------

Temperature         ... 298.15 K
Pressure            ... 1.00 atm
Total Mass          ... 101.13 AMU

Throughout the following assumptions are being made:
  (1) The electronic state is orbitally nondegenerate
  (2) There are no thermally accessible electronically excited states
  (3) Hindered rotations indicated by low frequency modes) are not
      treated as such but are treated as vibrations and this may
      case some error
  (4) All equations used are the standard statistical mechanics
      equations for an ideal gas
  (5) All vibrations are strinctly harmonic

------------
INNER ENERGY
------------

The inner energy is: U= E(el) + E(ZPE) + E(vib) + E(rot) + E(trans)
    E(el)   - is the total energy from the electronic structure calculation
              = E(kin-el) + E(nuc-el) + E(el-el) + E(nuc-nuc)
    E(ZPE)  - the the zero temperature vibrational energy from the frequency calculation
    E(vib)  - the the finite temperature correction to E(ZPE) due to population
              of excietd vibrational states
    E(rot)  - is the rotational thermal energy
    E(trans)- is the translational thermal energy

Summary of contributions to the inner energy U:
Electronic energy                ...   -342.04100960 Eh
Zero point energy                ...      0.14130977 Eh      88.67 kcal/mol
Thermal vibrational correction   ...      0.00425813 Eh       2.67 kcal/mol
Thermal rotational correction    ...      0.00141627 Eh       0.89 kcal/mol
Thermal translational correction ...      0.00141627 Eh       0.89 kcal/mol
-----------------------------------------------------------------------
Total thermal energy                   -341.89260915 Eh

Summary of corrections to the electronic energy:
(perhaps to be used in another calculation)
Total thermal correction                  0.00709067 Eh       4.45 kcal/mol
Non-thermal (ZPE) correction              0.14130977 Eh      88.67 kcal/mol
-----------------------------------------------------------------------
Total correction                          0.14840044 Eh      93.12 kcal/mol

--------
ENTHALPY
--------

The enthalpy is H = U + kB*T
                kB is Boltzmann's constant
Total free energy                 ...   -341.89260915 Eh
Thermal Enthalpy correction       ...      0.00094421 Eh       0.59 kcal/mol
-----------------------------------------------------------------------
Total Enthalpy                    ...   -341.89166494 Eh

-------
ENTROPY
-------

The entropy contributions are T*S = T*(S(el)+S(vib)+S(rot)+S(trans)
     S(el)   - electronic entropy
     S(vib)  - vibrational entropy
     S(rot)  - rotational entropy
     S(trans)- translational entropy
The entropies will be listed as mutliplied by the temperature to get
units of energy

Electronic entropy                ...      0.00000000 Eh      0.00 kcal/mol
Vibrational entropy               ...      0.00767806 Eh      4.82 kcal/mol
Rotational entropy                ...      0.01195645 Eh      7.50 kcal/mol
Translational entropy             ...      0.01888714 Eh     11.85 kcal/mol
-----------------------------------------------------------------------
Final entropy term                ...      0.03852165 Eh     24.17 kcal/mol

CAUTION: The rotational entropy is not quite correctly treated here
         because it includes a symmetry number that is not yet correctly
         implemented in ORCA!
For a nonlinear molecule the correct rotational entropy is:
    S(rot) = R*(ln(qrot/sn)+1.5)
    R    = 8.31441 J/mol/K = 1.987191683e-3 kcal/mol/K
    qrot = 211485.7317432
    sn is the rotational symmetry number. We have assumed 3 here
       if it is different for your molecule then you should correct
       the printed rotational entropy by manually evaluating the equation
       as given above

For convenience we print out the resulting values for sn=1 - 12:
 sn= 1  qrot/sn=  211485.7317 T*S(rot)=     8.15 kcal/mol T*S(tot)=    24.82 kcal/mol
 sn= 2  qrot/sn=  105742.8659 T*S(rot)=     7.74 kcal/mol T*S(tot)=    24.41 kcal/mol
 sn= 3  qrot/sn=   70495.2439 T*S(rot)=     7.50 kcal/mol T*S(tot)=    24.17 kcal/mol
 sn= 4  qrot/sn=   52871.4329 T*S(rot)=     7.33 kcal/mol T*S(tot)=    24.00 kcal/mol
 sn= 5  qrot/sn=   42297.1463 T*S(rot)=     7.20 kcal/mol T*S(tot)=    23.87 kcal/mol
 sn= 6  qrot/sn=   35247.6220 T*S(rot)=     7.09 kcal/mol T*S(tot)=    23.76 kcal/mol
 sn= 7  qrot/sn=   30212.2474 T*S(rot)=     7.00 kcal/mol T*S(tot)=    23.67 kcal/mol
 sn= 8  qrot/sn=   26435.7165 T*S(rot)=     6.92 kcal/mol T*S(tot)=    23.59 kcal/mol
 sn= 9  qrot/sn=   23498.4146 T*S(rot)=     6.85 kcal/mol T*S(tot)=    23.52 kcal/mol
 sn=10  qrot/sn=   21148.5732 T*S(rot)=     6.79 kcal/mol T*S(tot)=    23.46 kcal/mol
 sn=11  qrot/sn=   19225.9756 T*S(rot)=     6.73 kcal/mol T*S(tot)=    23.40 kcal/mol
 sn=12  qrot/sn=   17623.8110 T*S(rot)=     6.68 kcal/mol T*S(tot)=    23.35 kcal/mol

-------------------
GIBBS FREE ENTHALPY
-------------------

The Gibbs free enthalpy is G = H - T*S

Total enthalpy                    ...   -341.89166494 Eh
Total entropy correction          ...     -0.03852165 Eh    -24.17 kcal/mol
-----------------------------------------------------------------------
Final Gibbs free enthalpy         ...   -341.93018659 Eh

For completeness - the Gibbs free enthalpy minus the electronic energy
G-E(el)                           ...      0.11082300 Eh     69.54 kcal/mol

                             ****ORCA TERMINATED NORMALLY****
TOTAL RUN TIME: 0 days 0 hours 36 minutes 12 seconds 269 msec
