                         Program Version 3.0.3 - RELEASE   -
|  1> ! NORI PBE0 def2-TZVP UseSym TightOPT Freq TightSCF Grid3 FinalGrid5 XYZFile
|  2> % pal
|  3>     nprocs 8
|  4> end
|  5> %method
|  6>     SymThresh 5.0e-2
|  7> end
|  8> % geom
|  9>     MaxIter 10
| 10> end
| 11> % maxcore 2000
| 12> % output
| 13>     printlevel mini
| 14>     print[ P_Basis ] 0
| 15>     print[ P_SCFInfo ] 1
| 16>     print[ P_SCFIterInfo ] 1
| 17>     print[ P_OrbEn ] 0
| 18>     print[ P_Cartesian ] 0
| 19> end
| 20> % elprop
| 21>     Dipole false
| 22> end
| 23> *xyz 1 1
| 24>  O        2.3780342651     1.2747026853     0.3488232220
| 25>  C        2.3232946266    -0.0224082280     0.1458324297
| 26>  O        1.6437809427    -0.7573290471     0.8063747415
| 27>  C        3.2088301878    -0.6137914048    -0.9455025136
| 28>  C        4.6819402113    -0.8873400940    -0.5541202141
| 29>  C        4.3819980097    -2.3889987272    -0.6685289661
| 30>  N        2.9281448384    -2.0885713964    -0.9723293868
| 31>  H        2.9420113762     1.7461092641    -0.2777949825
| 32>  H        3.0496432829    -0.1476137400    -1.9184298343
| 33>  H        5.4161710896    -0.5110909039    -1.2621573430
| 34>  H        4.9441332828    -0.5548544422     0.4487253371
| 35>  H        4.8484911164    -2.8977222446    -1.5087003657
| 36>  H        4.4793434252    -2.9872177714     0.2342783034
| 37>  H        2.2688345047    -2.2676173362    -0.1915785140
| 38>  H        2.5542188406    -2.4721866136    -1.8382719136
| 39> *
| 40>
| 41>                          ****END OF INPUT****
 Total Charge           Charge          ....    1
 Multiplicity           Mult            ....    1
 Number of Electrons    NEL             ....   54
FINAL SINGLE POINT ENERGY      -361.914916915716

CARTESIAN COORDINATES (ANGSTROEM)
---------------------------------
  O     -0.000264   -0.000599    2.230407
  C      0.453332   -0.146119    1.005702
  O      1.608082   -0.000597    0.717015
  C     -0.551659   -0.463045   -0.096273
  C     -1.321355    0.745094   -0.684381
  C     -0.556808    0.529391   -1.998715
  N      0.235257   -0.598019   -1.368000
  H     -0.945140   -0.179102    2.322488
  H     -1.145392   -1.352707    0.115875
  H     -2.397650    0.607043   -0.752185
  H     -1.109142    1.691120   -0.189109
  H     -1.150118    0.157860   -2.830614
  H      0.097774    1.330852   -2.332307
  H      1.215697   -0.364015   -1.122808
  H      0.200509   -1.499922   -1.839452

FINAL SINGLE POINT ENERGY      -361.914917232947
                    ***********************HURRAY********************
 Multiplicity           Mult            ....    1
 Number of Electrons    NEL             ....   54
 Basis Dimension        Dim             ....  265
FINAL SINGLE POINT ENERGY      -361.914917387717

VIBRATIONAL FREQUENCIES
-----------------------

   0:         0.00 cm**-1
   1:         0.00 cm**-1
   2:         0.00 cm**-1
   3:         0.00 cm**-1
   4:         0.00 cm**-1
   5:         0.00 cm**-1
   6:        49.00 cm**-1
   7:       107.53 cm**-1
   8:       215.05 cm**-1
   9:       306.91 cm**-1
  10:       442.05 cm**-1
  11:       490.43 cm**-1
  12:       632.54 cm**-1
  13:       722.82 cm**-1
  14:       760.52 cm**-1
  15:       791.09 cm**-1
  16:       841.06 cm**-1
  17:       867.78 cm**-1
  18:       937.74 cm**-1
  19:       976.20 cm**-1
  20:      1006.38 cm**-1
  21:      1039.47 cm**-1
  22:      1098.98 cm**-1
  23:      1132.43 cm**-1
  24:      1199.19 cm**-1
  25:      1230.26 cm**-1
  26:      1260.30 cm**-1
  27:      1280.32 cm**-1
  28:      1295.46 cm**-1
  29:      1307.57 cm**-1
  30:      1325.23 cm**-1
  31:      1347.87 cm**-1
  32:      1424.41 cm**-1
  33:      1486.06 cm**-1
  34:      1501.81 cm**-1
  35:      1624.90 cm**-1
  36:      1866.57 cm**-1
  37:      3123.20 cm**-1
  38:      3132.10 cm**-1
  39:      3134.70 cm**-1
  40:      3182.35 cm**-1
  41:      3204.58 cm**-1
  42:      3234.46 cm**-1
  43:      3519.09 cm**-1
  44:      3807.84 cm**-1

IR SPECTRUM
-----------

 Mode    freq (cm**-1)   T**2         TX         TY         TZ
-------------------------------------------------------------------
   6:        49.00    0.287967  ( -0.185442   0.214445   0.455622)
   7:       107.53   13.997902  (  0.115503   3.224658  -1.893711)
   8:       215.05   12.455410  (  0.412080  -3.003909  -1.806136)
   9:       306.91   53.472095  (  1.926865   0.286895   7.048190)
  10:       442.05   16.929453  (  0.003945  -3.748191  -1.697204)
  11:       490.43   94.395446  ( -1.912057   9.131094  -2.713414)
  12:       632.54    2.208885  (  1.300676  -0.642984   0.322022)
  13:       722.82    5.600333  (  2.214423   0.559063   0.619769)
  14:       760.52    8.147348  ( -2.290269  -1.167911  -1.240162)
  15:       791.09    0.269278  (  0.297757  -0.239130   0.351334)
  16:       841.06    4.194934  (  1.277351  -0.793988  -1.390285)
  17:       867.78   10.613233  ( -2.051802  -1.749947  -1.827848)
  18:       937.74    4.101316  ( -1.221374   1.613449   0.079639)
  19:       976.20    7.717449  ( -2.018375   1.408615   1.288183)
  20:      1006.38    3.127135  ( -0.249097   0.755198  -1.579481)
  21:      1039.47    2.088806  (  0.520092  -0.636303  -1.188877)
  22:      1098.98    2.226724  ( -1.158757   0.559280  -0.755785)
  23:      1132.43   24.786689  ( -0.928791  -0.467993  -4.868780)
  24:      1199.19   44.786372  (  3.153520  -0.306473  -5.894723)
  25:      1230.26    6.233030  ( -2.184340   0.920844   0.783411)
  26:      1260.30   32.075352  ( -0.644404  -1.131942   5.511697)
  27:      1280.32   56.396810  (  0.597519  -0.515507  -7.468201)
  28:      1295.46    4.314445  (  1.404488  -0.161544  -1.521763)
  29:      1307.57  197.556189  ( -3.235966  -1.953576  13.537660)
  30:      1325.23   99.023722  (  0.851863  -2.175939  -9.672814)
  31:      1347.87   46.435239  (  0.240074  -1.042726   6.729809)
  32:      1424.41  154.106977  ( -0.123114   0.665384  12.395527)
  33:      1486.06    9.573013  ( -1.631679   1.013642   2.425524)
  34:      1501.81    8.505105  (  1.117808  -2.488164   1.031820)
  35:      1624.90   70.191929  ( -6.523393   3.922183   3.500536)
  36:      1866.57  208.224492  ( 13.666547   0.909379  -4.541256)
  37:      3123.20    0.107751  ( -0.229247   0.000796   0.234939)
  38:      3132.10    0.922166  ( -0.342167  -0.443604  -0.779938)
  39:      3134.70    0.127647  ( -0.014145   0.036430  -0.355134)
  40:      3182.35    0.171212  (  0.225155   0.337810   0.080011)
  41:      3204.58    0.434926  ( -0.066778  -0.630393   0.181854)
  42:      3234.46  187.311680  ( 11.452420   0.751723   7.455780)
  43:      3519.09  105.327503  (  0.974105   8.375365   5.850802)
  44:      3807.84  119.373384  ( -9.066407  -1.310000   5.954624)

--------------------------
THERMOCHEMISTRY AT 298.15K
--------------------------

Temperature         ... 298.15 K
Pressure            ... 1.00 atm
Total Mass          ... 102.11 AMU

Throughout the following assumptions are being made:
  (1) The electronic state is orbitally nondegenerate
  (2) There are no thermally accessible electronically excited states
  (3) Hindered rotations indicated by low frequency modes) are not
      treated as such but are treated as vibrations and this may
      case some error
  (4) All equations used are the standard statistical mechanics
      equations for an ideal gas
  (5) All vibrations are strinctly harmonic

------------
INNER ENERGY
------------

The inner energy is: U= E(el) + E(ZPE) + E(vib) + E(rot) + E(trans)
    E(el)   - is the total energy from the electronic structure calculation
              = E(kin-el) + E(nuc-el) + E(el-el) + E(nuc-nuc)
    E(ZPE)  - the the zero temperature vibrational energy from the frequency calculation
    E(vib)  - the the finite temperature correction to E(ZPE) due to population
              of excietd vibrational states
    E(rot)  - is the rotational thermal energy
    E(trans)- is the translational thermal energy

Summary of contributions to the inner energy U:
Electronic energy                ...   -361.91491739 Eh
Zero point energy                ...      0.12964192 Eh      81.35 kcal/mol
Thermal vibrational correction   ...      0.00387610 Eh       2.43 kcal/mol
Thermal rotational correction    ...      0.00141627 Eh       0.89 kcal/mol
Thermal translational correction ...      0.00141627 Eh       0.89 kcal/mol
-----------------------------------------------------------------------
Total thermal energy                   -361.77856683 Eh

Summary of corrections to the electronic energy:
(perhaps to be used in another calculation)
Total thermal correction                  0.00670864 Eh       4.21 kcal/mol
Non-thermal (ZPE) correction              0.12964192 Eh      81.35 kcal/mol
-----------------------------------------------------------------------
Total correction                          0.13635056 Eh      85.56 kcal/mol

--------
ENTHALPY
--------

The enthalpy is H = U + kB*T
                kB is Boltzmann's constant
Total free energy                 ...   -361.77856683 Eh
Thermal Enthalpy correction       ...      0.00094421 Eh       0.59 kcal/mol
-----------------------------------------------------------------------
Total Enthalpy                    ...   -361.77762262 Eh

-------
ENTROPY
-------

The entropy contributions are T*S = T*(S(el)+S(vib)+S(rot)+S(trans)
     S(el)   - electronic entropy
     S(vib)  - vibrational entropy
     S(rot)  - rotational entropy
     S(trans)- translational entropy
The entropies will be listed as mutliplied by the temperature to get
units of energy

Electronic entropy                ...      0.00000000 Eh      0.00 kcal/mol
Vibrational entropy               ...      0.00728070 Eh      4.57 kcal/mol
Rotational entropy                ...      0.01190347 Eh      7.47 kcal/mol
Translational entropy             ...      0.01890086 Eh     11.86 kcal/mol
-----------------------------------------------------------------------
Final entropy term                ...      0.03808503 Eh     23.90 kcal/mol

CAUTION: The rotational entropy is not quite correctly treated here
         because it includes a symmetry number that is not yet correctly
         implemented in ORCA!
For a nonlinear molecule the correct rotational entropy is:
    S(rot) = R*(ln(qrot/sn)+1.5)
    R    = 8.31441 J/mol/K = 1.987191683e-3 kcal/mol/K
    qrot = 199946.2789320
    sn is the rotational symmetry number. We have assumed 3 here
       if it is different for your molecule then you should correct
       the printed rotational entropy by manually evaluating the equation
       as given above

For convenience we print out the resulting values for sn=1 - 12:
 sn= 1  qrot/sn=  199946.2789 T*S(rot)=     8.12 kcal/mol T*S(tot)=    24.55 kcal/mol
 sn= 2  qrot/sn=   99973.1395 T*S(rot)=     7.71 kcal/mol T*S(tot)=    24.14 kcal/mol
 sn= 3  qrot/sn=   66648.7596 T*S(rot)=     7.47 kcal/mol T*S(tot)=    23.90 kcal/mol
 sn= 4  qrot/sn=   49986.5697 T*S(rot)=     7.30 kcal/mol T*S(tot)=    23.73 kcal/mol
 sn= 5  qrot/sn=   39989.2558 T*S(rot)=     7.17 kcal/mol T*S(tot)=    23.60 kcal/mol
 sn= 6  qrot/sn=   33324.3798 T*S(rot)=     7.06 kcal/mol T*S(tot)=    23.49 kcal/mol
 sn= 7  qrot/sn=   28563.7541 T*S(rot)=     6.97 kcal/mol T*S(tot)=    23.40 kcal/mol
 sn= 8  qrot/sn=   24993.2849 T*S(rot)=     6.89 kcal/mol T*S(tot)=    23.32 kcal/mol
 sn= 9  qrot/sn=   22216.2532 T*S(rot)=     6.82 kcal/mol T*S(tot)=    23.25 kcal/mol
 sn=10  qrot/sn=   19994.6279 T*S(rot)=     6.76 kcal/mol T*S(tot)=    23.19 kcal/mol
 sn=11  qrot/sn=   18176.9344 T*S(rot)=     6.70 kcal/mol T*S(tot)=    23.13 kcal/mol
 sn=12  qrot/sn=   16662.1899 T*S(rot)=     6.65 kcal/mol T*S(tot)=    23.08 kcal/mol

-------------------
GIBBS FREE ENTHALPY
-------------------

The Gibbs free enthalpy is G = H - T*S

Total enthalpy                    ...   -361.77762262 Eh
Total entropy correction          ...     -0.03808503 Eh    -23.90 kcal/mol
-----------------------------------------------------------------------
Final Gibbs free enthalpy         ...   -361.81570765 Eh

For completeness - the Gibbs free enthalpy minus the electronic energy
G-E(el)                           ...      0.09920974 Eh     62.25 kcal/mol

                             ****ORCA TERMINATED NORMALLY****
TOTAL RUN TIME: 0 days 0 hours 27 minutes 33 seconds 731 msec
