                         Program Version 3.0.3 - RELEASE   -
|  1> ! NORI PBE0 def2-TZVP UseSym TightOPT Freq TightSCF Grid3 FinalGrid5 XYZFile
|  2> % pal
|  3>     nprocs 8
|  4> end
|  5> %method
|  6>     SymThresh 5.0e-2
|  7> end
|  8> % geom
|  9>     MaxIter 10
| 10> end
| 11> % maxcore 2000
| 12> % output
| 13>     printlevel mini
| 14>     print[ P_Basis ] 0
| 15>     print[ P_SCFInfo ] 1
| 16>     print[ P_SCFIterInfo ] 1
| 17>     print[ P_OrbEn ] 0
| 18>     print[ P_Cartesian ] 0
| 19> end
| 20> % elprop
| 21>     Dipole false
| 22> end
| 23> *xyz 1 1
| 24>  O        2.2287228023     2.1466664465     1.1811117352
| 25>  C        1.9784516238     1.0464253359     1.5622088817
| 26>  O        2.9144328681     0.0712131403     1.6654217280
| 27>  C        4.1705297029     0.4572599357     1.1795818859
| 28>  C        4.9094516980     1.5574918944     1.9529325939
| 29>  N        6.1189677584     0.6374941718     2.0726302123
| 30>  C        5.2699044460    -0.5242872778     1.5876513054
| 31>  H        1.0034097347     0.6654521757     1.8856439010
| 32>  H        4.1217312496     0.6590572495     0.1079974971
| 33>  H        4.5007844816     1.7468740851     2.9432836294
| 34>  H        5.1330051755     2.4899931802     1.4420203765
| 35>  H        6.8693886966     0.8805453027     1.4273305635
| 36>  H        6.5236154656     0.5403000236     3.0029281661
| 37>  H        5.7619550240    -1.1153787780     0.8190484413
| 38>  H        4.9855092729    -1.1467968856     2.4346090828
| 39> *
| 40>
| 41>                          ****END OF INPUT****
 Total Charge           Charge          ....    1
 Multiplicity           Mult            ....    1
 Number of Electrons    NEL             ....   54
FINAL SINGLE POINT ENERGY      -361.897058848625
FINAL SINGLE POINT ENERGY      -361.897052204508

CARTESIAN COORDINATES (ANGSTROEM)
---------------------------------
  O      0.000316   -0.001699    2.239192
  C      1.041198    0.171525    1.687039
  O      1.205378    0.000343    0.352324
  C      0.063099   -0.501371   -0.285001
  C     -1.168676    0.412847   -0.328883
  N     -1.218508    0.244700   -1.843140
  C      0.160122   -0.391181   -1.807133
  H      1.984030    0.494526    2.141872
  H     -0.171036   -1.502751    0.080072
  H     -0.951682    1.451580   -0.088266
  H     -2.077821    0.082836    0.165951
  H     -1.947520   -0.398569   -2.148489
  H     -1.304395    1.099716   -2.390824
  H      0.221592   -1.300520   -2.399724
  H      0.904654    0.334338   -2.129729

FINAL SINGLE POINT ENERGY      -361.897059620943
                    ***********************HURRAY********************
 Multiplicity           Mult            ....    1
 Number of Electrons    NEL             ....   54
 Basis Dimension        Dim             ....  265
FINAL SINGLE POINT ENERGY      -361.897059692938

VIBRATIONAL FREQUENCIES
-----------------------

   0:         0.00 cm**-1
   1:         0.00 cm**-1
   2:         0.00 cm**-1
   3:         0.00 cm**-1
   4:         0.00 cm**-1
   5:         0.00 cm**-1
   6:        70.92 cm**-1
   7:        94.54 cm**-1
   8:       186.61 cm**-1
   9:       294.35 cm**-1
  10:       364.81 cm**-1
  11:       470.87 cm**-1
  12:       661.29 cm**-1
  13:       785.02 cm**-1
  14:       819.98 cm**-1
  15:       852.40 cm**-1
  16:       882.13 cm**-1
  17:       895.53 cm**-1
  18:       954.87 cm**-1
  19:      1012.37 cm**-1
  20:      1048.85 cm**-1
  21:      1095.92 cm**-1
  22:      1102.56 cm**-1
  23:      1147.81 cm**-1
  24:      1203.15 cm**-1
  25:      1252.95 cm**-1
  26:      1280.11 cm**-1
  27:      1287.22 cm**-1
  28:      1311.54 cm**-1
  29:      1323.85 cm**-1
  30:      1335.11 cm**-1
  31:      1379.78 cm**-1
  32:      1421.03 cm**-1
  33:      1467.09 cm**-1
  34:      1487.20 cm**-1
  35:      1651.55 cm**-1
  36:      1839.03 cm**-1
  37:      3114.92 cm**-1
  38:      3116.05 cm**-1
  39:      3128.65 cm**-1
  40:      3135.83 cm**-1
  41:      3204.38 cm**-1
  42:      3213.30 cm**-1
  43:      3473.27 cm**-1
  44:      3538.00 cm**-1

IR SPECTRUM
-----------

 Mode    freq (cm**-1)   T**2         TX         TY         TZ
-------------------------------------------------------------------
   6:        70.92    3.353267  (  0.409284  -0.438331   1.730208)
   7:        94.54    3.792929  ( -0.558941  -1.750218   0.645949)
   8:       186.61   11.457431  (  0.390474   1.075023   3.185795)
   9:       294.35   19.257275  (  0.998236  -3.823409   1.908492)
  10:       364.81    8.576719  (  1.158871   1.020078   2.488610)
  11:       470.87   16.420704  (  2.263369  -3.247487   0.867001)
  12:       661.29    2.270256  ( -0.226821   1.303199   0.721443)
  13:       785.02    4.815912  (  2.035075  -0.664301  -0.482789)
  14:       819.98    8.047774  (  1.801677   1.825243  -1.212527)
  15:       852.40   12.144732  ( -2.894887  -1.918457  -0.289624)
  16:       882.13    5.305311  ( -1.286991   1.179241  -1.502782)
  17:       895.53    4.738922  (  1.016717  -1.115991  -1.568367)
  18:       954.87    8.403008  ( -0.554794   1.245486  -2.558119)
  19:      1012.37    3.354776  ( -1.395544   0.752459   0.917081)
  20:      1048.85    0.532754  (  0.023886   0.635649   0.357958)
  21:      1095.92   48.078736  ( -1.988942   0.987935   6.568625)
  22:      1102.56   16.000595  (  1.594900  -0.405382   3.645896)
  23:      1147.81   95.151697  ( -1.131263  -0.869619  -9.649648)
  24:      1203.15  266.178779  ( -5.689694  -3.446429 -14.897258)
  25:      1252.95   29.230975  ( -4.199957   2.153063   2.637358)
  26:      1280.11   12.044495  ( -2.026237   0.180124   2.811835)
  27:      1287.22    6.094916  ( -0.794905  -1.800155  -1.490800)
  28:      1311.54    4.950822  (  1.384778  -0.979114  -1.440329)
  29:      1323.85   23.566100  (  1.972861  -1.742720  -4.078829)
  30:      1335.11    7.065131  (  2.307393  -1.094177  -0.737458)
  31:      1379.78    1.572138  ( -1.176275   0.340627   0.269235)
  32:      1421.03   14.580098  ( -1.454713   0.759134  -3.447843)
  33:      1467.09   19.036366  (  2.792586  -2.229397  -2.503521)
  34:      1487.20    8.197678  ( -0.791620  -1.544509   2.277171)
  35:      1651.55   63.660633  (  5.371770  -1.432750   5.722932)
  36:      1839.03  222.466095  ( -9.519123  -0.848986  11.451271)
  37:      3114.92   10.763172  ( -2.713636  -1.247511  -1.357596)
  38:      3116.05    1.515238  (  1.125985  -0.464810  -0.177051)
  39:      3128.65    0.642932  ( -0.643756  -0.000981   0.478026)
  40:      3135.83    0.556771  (  0.580418  -0.358105  -0.302732)
  41:      3204.38    1.804980  (  0.857771   0.929831  -0.452355)
  42:      3213.30    2.119954  (  0.653906   1.242412  -0.385710)
  43:      3473.27   83.893403  (  6.021348  -1.828560   6.655309)
  44:      3538.00   99.265895  (  4.080732   9.007535  -1.215660)

--------------------------
THERMOCHEMISTRY AT 298.15K
--------------------------

Temperature         ... 298.15 K
Pressure            ... 1.00 atm
Total Mass          ... 102.11 AMU

Throughout the following assumptions are being made:
  (1) The electronic state is orbitally nondegenerate
  (2) There are no thermally accessible electronically excited states
  (3) Hindered rotations indicated by low frequency modes) are not
      treated as such but are treated as vibrations and this may
      case some error
  (4) All equations used are the standard statistical mechanics
      equations for an ideal gas
  (5) All vibrations are strinctly harmonic

------------
INNER ENERGY
------------

The inner energy is: U= E(el) + E(ZPE) + E(vib) + E(rot) + E(trans)
    E(el)   - is the total energy from the electronic structure calculation
              = E(kin-el) + E(nuc-el) + E(el-el) + E(nuc-nuc)
    E(ZPE)  - the the zero temperature vibrational energy from the frequency calculation
    E(vib)  - the the finite temperature correction to E(ZPE) due to population
              of excietd vibrational states
    E(rot)  - is the rotational thermal energy
    E(trans)- is the translational thermal energy

Summary of contributions to the inner energy U:
Electronic energy                ...   -361.89705969 Eh
Zero point energy                ...      0.12963873 Eh      81.35 kcal/mol
Thermal vibrational correction   ...      0.00389446 Eh       2.44 kcal/mol
Thermal rotational correction    ...      0.00141627 Eh       0.89 kcal/mol
Thermal translational correction ...      0.00141627 Eh       0.89 kcal/mol
-----------------------------------------------------------------------
Total thermal energy                   -361.76069396 Eh

Summary of corrections to the electronic energy:
(perhaps to be used in another calculation)
Total thermal correction                  0.00672700 Eh       4.22 kcal/mol
Non-thermal (ZPE) correction              0.12963873 Eh      81.35 kcal/mol
-----------------------------------------------------------------------
Total correction                          0.13636574 Eh      85.57 kcal/mol

--------
ENTHALPY
--------

The enthalpy is H = U + kB*T
                kB is Boltzmann's constant
Total free energy                 ...   -361.76069396 Eh
Thermal Enthalpy correction       ...      0.00094421 Eh       0.59 kcal/mol
-----------------------------------------------------------------------
Total Enthalpy                    ...   -361.75974975 Eh

-------
ENTROPY
-------

The entropy contributions are T*S = T*(S(el)+S(vib)+S(rot)+S(trans)
     S(el)   - electronic entropy
     S(vib)  - vibrational entropy
     S(rot)  - rotational entropy
     S(trans)- translational entropy
The entropies will be listed as mutliplied by the temperature to get
units of energy

Electronic entropy                ...      0.00000000 Eh      0.00 kcal/mol
Vibrational entropy               ...      0.00722117 Eh      4.53 kcal/mol
Rotational entropy                ...      0.01189961 Eh      7.47 kcal/mol
Translational entropy             ...      0.01890086 Eh     11.86 kcal/mol
-----------------------------------------------------------------------
Final entropy term                ...      0.03802163 Eh     23.86 kcal/mol

CAUTION: The rotational entropy is not quite correctly treated here
         because it includes a symmetry number that is not yet correctly
         implemented in ORCA!
For a nonlinear molecule the correct rotational entropy is:
    S(rot) = R*(ln(qrot/sn)+1.5)
    R    = 8.31441 J/mol/K = 1.987191683e-3 kcal/mol/K
    qrot = 199130.0212025
    sn is the rotational symmetry number. We have assumed 3 here
       if it is different for your molecule then you should correct
       the printed rotational entropy by manually evaluating the equation
       as given above

For convenience we print out the resulting values for sn=1 - 12:
 sn= 1  qrot/sn=  199130.0212 T*S(rot)=     8.12 kcal/mol T*S(tot)=    24.51 kcal/mol
 sn= 2  qrot/sn=   99565.0106 T*S(rot)=     7.71 kcal/mol T*S(tot)=    24.10 kcal/mol
 sn= 3  qrot/sn=   66376.6737 T*S(rot)=     7.47 kcal/mol T*S(tot)=    23.86 kcal/mol
 sn= 4  qrot/sn=   49782.5053 T*S(rot)=     7.30 kcal/mol T*S(tot)=    23.69 kcal/mol
 sn= 5  qrot/sn=   39826.0042 T*S(rot)=     7.16 kcal/mol T*S(tot)=    23.56 kcal/mol
 sn= 6  qrot/sn=   33188.3369 T*S(rot)=     7.06 kcal/mol T*S(tot)=    23.45 kcal/mol
 sn= 7  qrot/sn=   28447.1459 T*S(rot)=     6.97 kcal/mol T*S(tot)=    23.36 kcal/mol
 sn= 8  qrot/sn=   24891.2527 T*S(rot)=     6.89 kcal/mol T*S(tot)=    23.28 kcal/mol
 sn= 9  qrot/sn=   22125.5579 T*S(rot)=     6.82 kcal/mol T*S(tot)=    23.21 kcal/mol
 sn=10  qrot/sn=   19913.0021 T*S(rot)=     6.75 kcal/mol T*S(tot)=    23.15 kcal/mol
 sn=11  qrot/sn=   18102.7292 T*S(rot)=     6.70 kcal/mol T*S(tot)=    23.09 kcal/mol
 sn=12  qrot/sn=   16594.1684 T*S(rot)=     6.65 kcal/mol T*S(tot)=    23.04 kcal/mol

-------------------
GIBBS FREE ENTHALPY
-------------------

The Gibbs free enthalpy is G = H - T*S

Total enthalpy                    ...   -361.75974975 Eh
Total entropy correction          ...     -0.03802163 Eh    -23.86 kcal/mol
-----------------------------------------------------------------------
Final Gibbs free enthalpy         ...   -361.79777138 Eh

For completeness - the Gibbs free enthalpy minus the electronic energy
G-E(el)                           ...      0.09928831 Eh     62.30 kcal/mol

                             ****ORCA TERMINATED NORMALLY****
TOTAL RUN TIME: 0 days 0 hours 29 minutes 24 seconds 226 msec
