                         Program Version 3.0.3 - RELEASE   -
|  1> ! NORI PBE0 def2-TZVP UseSym TightOPT Freq TightSCF Grid3 FinalGrid5 XYZFile
|  2> % pal
|  3>     nprocs 8
|  4> end
|  5> %method
|  6>     SymThresh 5.0e-2
|  7> end
|  8> % geom
|  9>     MaxIter 10
| 10> end
| 11> % maxcore 2000
| 12> % output
| 13>     printlevel mini
| 14>     print[ P_Basis ] 0
| 15>     print[ P_SCFInfo ] 1
| 16>     print[ P_SCFIterInfo ] 1
| 17>     print[ P_OrbEn ] 0
| 18>     print[ P_Cartesian ] 0
| 19> end
| 20> % elprop
| 21>     Dipole false
| 22> end
| 23> *xyz 1 1
| 24>  O        2.0956046276     0.9128292080    -0.3088158457
| 25>  C        1.9576392765    -0.1890189674     0.3994087275
| 26>  O        0.8942722795    -0.7432563848     0.5039314470
| 27>  C        3.1703700131    -0.7809904235     1.1061098381
| 28>  C        2.7737569792    -1.1443612776     2.5522138555
| 29>  N        2.3134826880    -2.4902870862     2.0463326819
| 30>  C        3.2056463752    -2.3006372663     0.8429658002
| 31>  H        2.9984533106     1.2531350463    -0.3129862027
| 32>  H        4.1045056969    -0.2392916429     0.9759807207
| 33>  H        1.9853019291    -0.5777070200     3.0413482128
| 34>  H        3.6325934311    -1.2827642464     3.2063989438
| 35>  H        2.4483889766    -3.3103260521     2.6359142956
| 36>  H        1.3366219242    -2.4018656623     1.7397179189
| 37>  H        4.1788044609    -2.7444675858     1.0447899939
| 38>  H        2.7731280314    -2.6871306390    -0.0764103877
| 39> *
| 40>
| 41>                          ****END OF INPUT****
 Total Charge           Charge          ....    1
 Multiplicity           Mult            ....    1
 Number of Electrons    NEL             ....   54
FINAL SINGLE POINT ENERGY      -361.914587842769

CARTESIAN COORDINATES (ANGSTROEM)
---------------------------------
  O      2.294894    0.000559    0.000000
  C      1.006493    0.273501   -0.000000
  O      0.601076    1.406807   -0.000000
  C     -0.000530   -0.869578   -0.000000
  C     -1.087494   -0.573215    1.054197
  N     -1.843818    0.198873    0.000000
  C     -1.087494   -0.573215   -1.054197
  H      2.484083   -0.945470    0.000000
  H      0.421913   -1.871873   -0.000000
  H     -0.829826    0.027419    1.922953
  H     -1.661056   -1.455079    1.333200
  H     -2.862159    0.164928    0.000000
  H     -1.497782    1.166426    0.000000
  H     -1.661056   -1.455079   -1.333200
  H     -0.829826    0.027419   -1.922953

FINAL SINGLE POINT ENERGY      -361.914588424446
                    ***********************HURRAY********************
 Multiplicity           Mult            ....    1
 Number of Electrons    NEL             ....   54
 Basis Dimension        Dim             ....  265
FINAL SINGLE POINT ENERGY      -361.914588706233

VIBRATIONAL FREQUENCIES
-----------------------

   0:         0.00 cm**-1
   1:         0.00 cm**-1
   2:         0.00 cm**-1
   3:         0.00 cm**-1
   4:         0.00 cm**-1
   5:         0.00 cm**-1
   6:        66.26 cm**-1
   7:       191.35 cm**-1
   8:       261.14 cm**-1
   9:       316.88 cm**-1
  10:       410.44 cm**-1
  11:       520.06 cm**-1
  12:       615.50 cm**-1
  13:       727.30 cm**-1
  14:       772.64 cm**-1
  15:       826.09 cm**-1
  16:       841.17 cm**-1
  17:       924.01 cm**-1
  18:       938.16 cm**-1
  19:       948.10 cm**-1
  20:       994.29 cm**-1
  21:      1056.77 cm**-1
  22:      1110.82 cm**-1
  23:      1113.85 cm**-1
  24:      1199.14 cm**-1
  25:      1199.35 cm**-1
  26:      1272.93 cm**-1
  27:      1286.08 cm**-1
  28:      1306.80 cm**-1
  29:      1333.05 cm**-1
  30:      1357.11 cm**-1
  31:      1373.15 cm**-1
  32:      1428.48 cm**-1
  33:      1476.92 cm**-1
  34:      1497.88 cm**-1
  35:      1581.29 cm**-1
  36:      1842.47 cm**-1
  37:      3126.14 cm**-1
  38:      3128.47 cm**-1
  39:      3155.86 cm**-1
  40:      3204.40 cm**-1
  41:      3204.70 cm**-1
  42:      3375.47 cm**-1
  43:      3517.38 cm**-1
  44:      3827.63 cm**-1

IR SPECTRUM
-----------

 Mode    freq (cm**-1)   T**2         TX         TY         TZ
-------------------------------------------------------------------
   6:        66.26    6.554401  (  0.000018  -0.000226  -2.560156)
   7:       191.35   39.504619  (  6.155187   1.272122  -0.000017)
   8:       261.14   14.499263  (  0.000255  -0.000477  -3.807790)
   9:       316.88   10.183584  ( -2.784631  -1.558657   0.000087)
  10:       410.44    0.154403  ( -0.348188   0.182121  -0.000055)
  11:       520.06  102.584240  ( -0.000199   0.000184  10.128388)
  12:       615.50    0.950464  (  0.576282  -0.786361   0.000067)
  13:       727.30   25.477224  ( -4.103272  -2.939453   0.000022)
  14:       772.64    0.803023  (  0.000458  -0.000785  -0.896115)
  15:       826.09    0.459469  (  0.000045  -0.000142   0.677841)
  16:       841.17   12.167045  (  2.450537  -2.482320   0.000029)
  17:       924.01   20.943365  ( -4.566875   0.294985  -0.000013)
  18:       938.16    2.668033  (  0.000044  -0.000040  -1.633411)
  19:       948.10    0.896053  ( -0.214225   0.922041  -0.000016)
  20:       994.29    0.070330  (  0.000166  -0.000174   0.265199)
  21:      1056.77    0.339762  ( -0.561544  -0.156303  -0.000000)
  22:      1110.82    1.467146  ( -1.068012  -0.571398  -0.000035)
  23:      1113.85    0.085896  ( -0.000051  -0.000002   0.293080)
  24:      1199.14    0.008091  (  0.005754  -0.001957   0.089745)
  25:      1199.35   40.448675  (  6.014800  -2.066605  -0.000105)
  26:      1272.93   45.112379  ( -0.000114   0.000010   6.716575)
  27:      1286.08   34.892758  (  5.271054  -2.666224   0.000186)
  28:      1306.80  207.041146  ( 14.381408  -0.465036   0.000014)
  29:      1333.05   17.071764  ( -0.000251   0.000069   4.131799)
  30:      1357.11    7.963774  ( -0.534465  -2.770942  -0.000032)
  31:      1373.15   31.785601  ( -0.000034   0.000004  -5.637872)
  32:      1428.48  255.304834  ( 15.970194   0.507671  -0.000024)
  33:      1476.92   15.713190  (  0.000159  -0.000032   3.963987)
  34:      1497.88    6.673284  (  2.035988   1.589980   0.000048)
  35:      1581.29  139.675740  ( -8.538725   8.171042   0.000005)
  36:      1842.47  189.728343  (  5.882534 -12.454884  -0.000014)
  37:      3126.14    0.023879  ( -0.000000   0.000017  -0.154530)
  38:      3128.47    0.873854  ( -0.633459  -0.687447   0.000006)
  39:      3155.86    1.196890  ( -0.972119   0.501872   0.000001)
  40:      3204.40    1.423726  (  0.406837   1.121700  -0.000001)
  41:      3204.70    0.015547  ( -0.000021  -0.000074   0.124688)
  42:      3375.47  105.606734  ( -2.705717  -9.913921   0.000000)
  43:      3517.38  109.627452  (-10.117402  -2.695482  -0.000000)
  44:      3827.63  120.902748  ( -6.665706   8.744776   0.000024)

--------------------------
THERMOCHEMISTRY AT 298.15K
--------------------------

Temperature         ... 298.15 K
Pressure            ... 1.00 atm
Total Mass          ... 102.11 AMU

Throughout the following assumptions are being made:
  (1) The electronic state is orbitally nondegenerate
  (2) There are no thermally accessible electronically excited states
  (3) Hindered rotations indicated by low frequency modes) are not
      treated as such but are treated as vibrations and this may
      case some error
  (4) All equations used are the standard statistical mechanics
      equations for an ideal gas
  (5) All vibrations are strinctly harmonic

------------
INNER ENERGY
------------

The inner energy is: U= E(el) + E(ZPE) + E(vib) + E(rot) + E(trans)
    E(el)   - is the total energy from the electronic structure calculation
              = E(kin-el) + E(nuc-el) + E(el-el) + E(nuc-nuc)
    E(ZPE)  - the the zero temperature vibrational energy from the frequency calculation
    E(vib)  - the the finite temperature correction to E(ZPE) due to population
              of excietd vibrational states
    E(rot)  - is the rotational thermal energy
    E(trans)- is the translational thermal energy

Summary of contributions to the inner energy U:
Electronic energy                ...   -361.91458871 Eh
Zero point energy                ...      0.13060626 Eh      81.96 kcal/mol
Thermal vibrational correction   ...      0.00360753 Eh       2.26 kcal/mol
Thermal rotational correction    ...      0.00141627 Eh       0.89 kcal/mol
Thermal translational correction ...      0.00141627 Eh       0.89 kcal/mol
-----------------------------------------------------------------------
Total thermal energy                   -361.77754237 Eh

Summary of corrections to the electronic energy:
(perhaps to be used in another calculation)
Total thermal correction                  0.00644007 Eh       4.04 kcal/mol
Non-thermal (ZPE) correction              0.13060626 Eh      81.96 kcal/mol
-----------------------------------------------------------------------
Total correction                          0.13704634 Eh      86.00 kcal/mol

--------
ENTHALPY
--------

The enthalpy is H = U + kB*T
                kB is Boltzmann's constant
Total free energy                 ...   -361.77754237 Eh
Thermal Enthalpy correction       ...      0.00094421 Eh       0.59 kcal/mol
-----------------------------------------------------------------------
Total Enthalpy                    ...   -361.77659816 Eh

-------
ENTROPY
-------

The entropy contributions are T*S = T*(S(el)+S(vib)+S(rot)+S(trans)
     S(el)   - electronic entropy
     S(vib)  - vibrational entropy
     S(rot)  - rotational entropy
     S(trans)- translational entropy
The entropies will be listed as mutliplied by the temperature to get
units of energy

Electronic entropy                ...      0.00000000 Eh      0.00 kcal/mol
Vibrational entropy               ...      0.00628218 Eh      3.94 kcal/mol
Rotational entropy                ...      0.01183937 Eh      7.43 kcal/mol
Translational entropy             ...      0.01890086 Eh     11.86 kcal/mol
-----------------------------------------------------------------------
Final entropy term                ...      0.03702240 Eh     23.23 kcal/mol

CAUTION: The rotational entropy is not quite correctly treated here
         because it includes a symmetry number that is not yet correctly
         implemented in ORCA!
For a nonlinear molecule the correct rotational entropy is:
    S(rot) = R*(ln(qrot/sn)+1.5)
    R    = 8.31441 J/mol/K = 1.987191683e-3 kcal/mol/K
    qrot = 186822.5058668
    sn is the rotational symmetry number. We have assumed 3 here
       if it is different for your molecule then you should correct
       the printed rotational entropy by manually evaluating the equation
       as given above

For convenience we print out the resulting values for sn=1 - 12:
 sn= 1  qrot/sn=  186822.5059 T*S(rot)=     8.08 kcal/mol T*S(tot)=    23.88 kcal/mol
 sn= 2  qrot/sn=   93411.2529 T*S(rot)=     7.67 kcal/mol T*S(tot)=    23.47 kcal/mol
 sn= 3  qrot/sn=   62274.1686 T*S(rot)=     7.43 kcal/mol T*S(tot)=    23.23 kcal/mol
 sn= 4  qrot/sn=   46705.6265 T*S(rot)=     7.26 kcal/mol T*S(tot)=    23.06 kcal/mol
 sn= 5  qrot/sn=   37364.5012 T*S(rot)=     7.13 kcal/mol T*S(tot)=    22.93 kcal/mol
 sn= 6  qrot/sn=   31137.0843 T*S(rot)=     7.02 kcal/mol T*S(tot)=    22.82 kcal/mol
 sn= 7  qrot/sn=   26688.9294 T*S(rot)=     6.93 kcal/mol T*S(tot)=    22.73 kcal/mol
 sn= 8  qrot/sn=   23352.8132 T*S(rot)=     6.85 kcal/mol T*S(tot)=    22.65 kcal/mol
 sn= 9  qrot/sn=   20758.0562 T*S(rot)=     6.78 kcal/mol T*S(tot)=    22.58 kcal/mol
 sn=10  qrot/sn=   18682.2506 T*S(rot)=     6.72 kcal/mol T*S(tot)=    22.52 kcal/mol
 sn=11  qrot/sn=   16983.8642 T*S(rot)=     6.66 kcal/mol T*S(tot)=    22.46 kcal/mol
 sn=12  qrot/sn=   15568.5422 T*S(rot)=     6.61 kcal/mol T*S(tot)=    22.41 kcal/mol

-------------------
GIBBS FREE ENTHALPY
-------------------

The Gibbs free enthalpy is G = H - T*S

Total enthalpy                    ...   -361.77659816 Eh
Total entropy correction          ...     -0.03702240 Eh    -23.23 kcal/mol
-----------------------------------------------------------------------
Final Gibbs free enthalpy         ...   -361.81362056 Eh

For completeness - the Gibbs free enthalpy minus the electronic energy
G-E(el)                           ...      0.10096814 Eh     63.36 kcal/mol

                             ****ORCA TERMINATED NORMALLY****
TOTAL RUN TIME: 0 days 0 hours 31 minutes 55 seconds 604 msec
