                         Program Version 3.0.3 - RELEASE   -
|  1> ! NORI PBE0 def2-TZVP UseSym TightOPT Freq TightSCF Grid3 FinalGrid5 XYZFile
|  2> % pal
|  3>     nprocs 8
|  4> end
|  5> %method
|  6>     SymThresh 5.0e-2
|  7> end
|  8> % geom
|  9>     MaxIter 10
| 10> end
| 11> % maxcore 2000
| 12> % output
| 13>     printlevel mini
| 14>     print[ P_Basis ] 0
| 15>     print[ P_SCFInfo ] 1
| 16>     print[ P_SCFIterInfo ] 1
| 17>     print[ P_OrbEn ] 0
| 18>     print[ P_Cartesian ] 0
| 19> end
| 20> % elprop
| 21>     Dipole false
| 22> end
| 23> *xyz 1 1
| 24>  O        2.2410123987     1.9364349326    -0.2657756627
| 25>  C        2.7292732803     2.9865844492    -0.0219853917
| 26>  O        3.9257832460     3.1289754925     0.6244705124
| 27>  C        4.5408420404     1.9065057542     0.9987104765
| 28>  C        5.9038431798     2.2451866314     1.5222311447
| 29>  C        6.7053943888     3.3443063742     0.9669162384
| 30>  N        6.0036858717     3.5351951331     2.2607998081
| 31>  H        2.3285678962     3.9784026710    -0.2618598335
| 32>  H        4.6384302888     1.2326875031     0.1429126628
| 33>  H        3.9470451698     1.3950726024     1.7610941476
| 34>  H        6.4332854082     1.4358834491     2.0126679889
| 35>  H        6.2925226022     3.9436307013     0.1660939263
| 36>  H        7.7840883530     3.3121434329     1.0487189772
| 37>  H        5.1687337822     4.1158732919     2.2352834072
| 38>  H        6.5459620939     3.5853775810     3.1160815977
| 39> *
| 40>
| 41>                          ****END OF INPUT****
 Total Charge           Charge          ....    1
 Multiplicity           Mult            ....    1
 Number of Electrons    NEL             ....   54
FINAL SINGLE POINT ENERGY      -361.891662011738
FINAL SINGLE POINT ENERGY      -361.891662028777
FINAL SINGLE POINT ENERGY      -361.891662521372

CARTESIAN COORDINATES (ANGSTROEM)
---------------------------------
  O      0.000100   -0.007893    2.701527
  C      0.837053    0.073222    1.868732
  O      0.575295    0.003672    0.528515
  C     -0.793011   -0.188723    0.206442
  C     -0.913240   -0.067288   -1.282660
  C     -0.087510    0.864412   -2.063234
  N      0.247426   -0.581035   -2.063118
  H      1.914063    0.213186    2.019298
  H     -1.423581    0.566450    0.683757
  H     -1.133089   -1.170930    0.545486
  H     -1.868188   -0.363369   -1.702313
  H      0.647783    1.471670   -1.551970
  H     -0.453343    1.233917   -3.012090
  H      1.057295   -0.852213   -1.510306
  H      0.087818   -1.127099   -2.902465

FINAL SINGLE POINT ENERGY      -361.891663090201
                    ***********************HURRAY********************
 Multiplicity           Mult            ....    1
 Number of Electrons    NEL             ....   54
 Basis Dimension        Dim             ....  265
FINAL SINGLE POINT ENERGY      -361.891663247908

VIBRATIONAL FREQUENCIES
-----------------------

   0:         0.00 cm**-1
   1:         0.00 cm**-1
   2:         0.00 cm**-1
   3:         0.00 cm**-1
   4:         0.00 cm**-1
   5:         0.00 cm**-1
   6:        39.07 cm**-1
   7:       128.51 cm**-1
   8:       177.97 cm**-1
   9:       252.57 cm**-1
  10:       325.38 cm**-1
  11:       365.36 cm**-1
  12:       543.19 cm**-1
  13:       761.87 cm**-1
  14:       809.51 cm**-1
  15:       845.26 cm**-1
  16:       865.33 cm**-1
  17:       890.25 cm**-1
  18:       974.04 cm**-1
  19:      1002.84 cm**-1
  20:      1037.20 cm**-1
  21:      1042.17 cm**-1
  22:      1074.17 cm**-1
  23:      1126.03 cm**-1
  24:      1165.03 cm**-1
  25:      1171.26 cm**-1
  26:      1185.85 cm**-1
  27:      1250.25 cm**-1
  28:      1259.06 cm**-1
  29:      1289.33 cm**-1
  30:      1380.90 cm**-1
  31:      1402.47 cm**-1
  32:      1438.67 cm**-1
  33:      1486.99 cm**-1
  34:      1497.64 cm**-1
  35:      1608.28 cm**-1
  36:      1873.25 cm**-1
  37:      3075.93 cm**-1
  38:      3101.85 cm**-1
  39:      3123.68 cm**-1
  40:      3178.91 cm**-1
  41:      3206.45 cm**-1
  42:      3283.44 cm**-1
  43:      3489.71 cm**-1
  44:      3606.18 cm**-1

IR SPECTRUM
-----------

 Mode    freq (cm**-1)   T**2         TX         TY         TZ
-------------------------------------------------------------------
   6:        39.07    0.165245  (  0.095790  -0.272633  -0.285904)
   7:       128.51    3.384073  ( -0.952979   0.119380  -1.568965)
   8:       177.97    0.751744  ( -0.135110   0.392020   0.761452)
   9:       252.57   23.873208  ( -0.959711  -0.267764  -4.783353)
  10:       325.38   22.204591  ( -0.528597   4.618320   0.772202)
  11:       365.36    9.164042  (  0.098779  -2.613686   1.524116)
  12:       543.19    5.136593  (  1.393893  -0.231771  -1.771987)
  13:       761.87    8.128231  ( -2.179990   0.101765  -1.834534)
  14:       809.51    6.843206  ( -2.029018   0.803172   1.442639)
  15:       845.26    5.211009  (  0.030913   1.679483   1.545765)
  16:       865.33   14.826905  ( -1.758796   3.408749  -0.337599)
  17:       890.25   22.593034  (  0.687440  -1.048295  -4.584925)
  18:       974.04   32.540472  ( -3.426343   0.319749   4.549550)
  19:      1002.84    9.962163  ( -0.109757  -1.894591   2.522031)
  20:      1037.20    0.133601  ( -0.026952  -0.349257  -0.104372)
  21:      1042.17   77.098027  (  5.331730   4.481836  -5.346385)
  22:      1074.17    9.904274  (  1.249761   2.805080  -0.688403)
  23:      1126.03  274.880003  ( -4.636640  -0.315960 -15.914828)
  24:      1165.03  163.688313  ( -8.377694  -1.338450  -9.576591)
  25:      1171.26   54.859599  ( -3.041178  -1.361594  -6.614900)
  26:      1185.85    3.464490  ( -1.479114  -0.507640   1.009462)
  27:      1250.25    2.855217  ( -0.765902   1.426472   0.483516)
  28:      1259.06    5.571770  (  1.400878  -1.761153   0.712497)
  29:      1289.33    5.043268  ( -1.083413  -0.500065  -1.902477)
  30:      1380.90    0.105605  (  0.239851   0.085103   0.202074)
  31:      1402.47    2.716689  ( -0.616888  -0.072338   1.526730)
  32:      1438.67    3.203874  ( -1.235687  -1.294219   0.044145)
  33:      1486.99   20.198153  ( -1.254152  -3.085201   3.017746)
  34:      1497.64    6.140541  (  0.949230  -0.954239  -2.080608)
  35:      1608.28   85.742153  ( -5.569927   5.390546   5.065578)
  36:      1873.25  270.361930  (  5.000334   0.519856 -15.655298)
  37:      3075.93    6.490480  (  1.385595   0.857818   1.958253)
  38:      3101.85   11.507089  (  3.372474   0.360150   0.061629)
  39:      3123.68    0.979347  (  0.352162   0.247799  -0.891025)
  40:      3178.91    3.983620  ( -0.689531  -1.763010   0.632425)
  41:      3206.45    3.082290  ( -1.686760  -0.366394  -0.320760)
  42:      3283.44    9.245748  (  1.867058   0.475452   2.352401)
  43:      3489.71   96.819289  (  6.847007  -7.033890  -0.679837)
  44:      3606.18  166.733132  (  5.045177   3.481575  11.364769)

--------------------------
THERMOCHEMISTRY AT 298.15K
--------------------------

Temperature         ... 298.15 K
Pressure            ... 1.00 atm
Total Mass          ... 102.11 AMU

Throughout the following assumptions are being made:
  (1) The electronic state is orbitally nondegenerate
  (2) There are no thermally accessible electronically excited states
  (3) Hindered rotations indicated by low frequency modes) are not
      treated as such but are treated as vibrations and this may
      case some error
  (4) All equations used are the standard statistical mechanics
      equations for an ideal gas
  (5) All vibrations are strinctly harmonic

------------
INNER ENERGY
------------

The inner energy is: U= E(el) + E(ZPE) + E(vib) + E(rot) + E(trans)
    E(el)   - is the total energy from the electronic structure calculation
              = E(kin-el) + E(nuc-el) + E(el-el) + E(nuc-nuc)
    E(ZPE)  - the the zero temperature vibrational energy from the frequency calculation
    E(vib)  - the the finite temperature correction to E(ZPE) due to population
              of excietd vibrational states
    E(rot)  - is the rotational thermal energy
    E(trans)- is the translational thermal energy

Summary of contributions to the inner energy U:
Electronic energy                ...   -361.89166325 Eh
Zero point energy                ...      0.12834249 Eh      80.54 kcal/mol
Thermal vibrational correction   ...      0.00421726 Eh       2.65 kcal/mol
Thermal rotational correction    ...      0.00141627 Eh       0.89 kcal/mol
Thermal translational correction ...      0.00141627 Eh       0.89 kcal/mol
-----------------------------------------------------------------------
Total thermal energy                   -361.75627096 Eh

Summary of corrections to the electronic energy:
(perhaps to be used in another calculation)
Total thermal correction                  0.00704980 Eh       4.42 kcal/mol
Non-thermal (ZPE) correction              0.12834249 Eh      80.54 kcal/mol
-----------------------------------------------------------------------
Total correction                          0.13539229 Eh      84.96 kcal/mol

--------
ENTHALPY
--------

The enthalpy is H = U + kB*T
                kB is Boltzmann's constant
Total free energy                 ...   -361.75627096 Eh
Thermal Enthalpy correction       ...      0.00094421 Eh       0.59 kcal/mol
-----------------------------------------------------------------------
Total Enthalpy                    ...   -361.75532675 Eh

-------
ENTROPY
-------

The entropy contributions are T*S = T*(S(el)+S(vib)+S(rot)+S(trans)
     S(el)   - electronic entropy
     S(vib)  - vibrational entropy
     S(rot)  - rotational entropy
     S(trans)- translational entropy
The entropies will be listed as mutliplied by the temperature to get
units of energy

Electronic entropy                ...      0.00000000 Eh      0.00 kcal/mol
Vibrational entropy               ...      0.00807576 Eh      5.07 kcal/mol
Rotational entropy                ...      0.01197858 Eh      7.52 kcal/mol
Translational entropy             ...      0.01890086 Eh     11.86 kcal/mol
-----------------------------------------------------------------------
Final entropy term                ...      0.03895519 Eh     24.44 kcal/mol

CAUTION: The rotational entropy is not quite correctly treated here
         because it includes a symmetry number that is not yet correctly
         implemented in ORCA!
For a nonlinear molecule the correct rotational entropy is:
    S(rot) = R*(ln(qrot/sn)+1.5)
    R    = 8.31441 J/mol/K = 1.987191683e-3 kcal/mol/K
    qrot = 216501.7997163
    sn is the rotational symmetry number. We have assumed 3 here
       if it is different for your molecule then you should correct
       the printed rotational entropy by manually evaluating the equation
       as given above

For convenience we print out the resulting values for sn=1 - 12:
 sn= 1  qrot/sn=  216501.7997 T*S(rot)=     8.17 kcal/mol T*S(tot)=    25.10 kcal/mol
 sn= 2  qrot/sn=  108250.8999 T*S(rot)=     7.76 kcal/mol T*S(tot)=    24.68 kcal/mol
 sn= 3  qrot/sn=   72167.2666 T*S(rot)=     7.52 kcal/mol T*S(tot)=    24.44 kcal/mol
 sn= 4  qrot/sn=   54125.4499 T*S(rot)=     7.35 kcal/mol T*S(tot)=    24.27 kcal/mol
 sn= 5  qrot/sn=   43300.3599 T*S(rot)=     7.21 kcal/mol T*S(tot)=    24.14 kcal/mol
 sn= 6  qrot/sn=   36083.6333 T*S(rot)=     7.11 kcal/mol T*S(tot)=    24.03 kcal/mol
 sn= 7  qrot/sn=   30928.8285 T*S(rot)=     7.01 kcal/mol T*S(tot)=    23.94 kcal/mol
 sn= 8  qrot/sn=   27062.7250 T*S(rot)=     6.94 kcal/mol T*S(tot)=    23.86 kcal/mol
 sn= 9  qrot/sn=   24055.7555 T*S(rot)=     6.87 kcal/mol T*S(tot)=    23.79 kcal/mol
 sn=10  qrot/sn=   21650.1800 T*S(rot)=     6.80 kcal/mol T*S(tot)=    23.73 kcal/mol
 sn=11  qrot/sn=   19681.9818 T*S(rot)=     6.75 kcal/mol T*S(tot)=    23.67 kcal/mol
 sn=12  qrot/sn=   18041.8166 T*S(rot)=     6.70 kcal/mol T*S(tot)=    23.62 kcal/mol

-------------------
GIBBS FREE ENTHALPY
-------------------

The Gibbs free enthalpy is G = H - T*S

Total enthalpy                    ...   -361.75532675 Eh
Total entropy correction          ...     -0.03895519 Eh    -24.44 kcal/mol
-----------------------------------------------------------------------
Final Gibbs free enthalpy         ...   -361.79428195 Eh

For completeness - the Gibbs free enthalpy minus the electronic energy
G-E(el)                           ...      0.09738130 Eh     61.11 kcal/mol

                             ****ORCA TERMINATED NORMALLY****
TOTAL RUN TIME: 0 days 0 hours 27 minutes 20 seconds 375 msec
