                         Program Version 3.0.3 - RELEASE   -
|  1> ! NORI PBE0 def2-TZVP UseSym TightOPT Freq TightSCF Grid3 FinalGrid5 XYZFile
|  2> % pal
|  3>     nprocs 8
|  4> end
|  5> %method
|  6>     SymThresh 5.0e-2
|  7> end
|  8> % geom
|  9>     MaxIter 10
| 10> end
| 11> % maxcore 2000
| 12> % output
| 13>     printlevel mini
| 14>     print[ P_Basis ] 0
| 15>     print[ P_SCFInfo ] 1
| 16>     print[ P_SCFIterInfo ] 1
| 17>     print[ P_OrbEn ] 0
| 18>     print[ P_Cartesian ] 0
| 19> end
| 20> % elprop
| 21>     Dipole false
| 22> end
| 23> *xyz 1 1
| 24>  O        1.0174933093     0.2296261958    -0.3620266901
| 25>  C        2.3344170730     0.3064301188    -0.2280959785
| 26>  O        2.8906249965     1.3345160840     0.0160620849
| 27>  C        3.1199232916    -0.9957051165    -0.3859774458
| 28>  C        4.5746997289    -0.6377475585    -0.3490177887
| 29>  C        5.3052912086    -0.4762786626     0.9091350262
| 30>  N        5.5472849654    -1.6909665884     0.0828819241
| 31>  H        0.7066517030    -0.6570884560    -0.5788443518
| 32>  H        2.8645258127    -1.4905235231    -1.3278107520
| 33>  H        2.8512544371    -1.6740521346     0.4320624835
| 34>  H        4.9472920629    -0.0752573024    -1.1974568704
| 35>  H        4.8016807959    -0.6798023951     1.8458370011
| 36>  H        6.1466832630     0.2023822427     0.9579269110
| 37>  H        6.4286862477    -1.7689240986    -0.4128514438
| 38>  H        5.1875111043    -2.5771988055     0.4198758904
| 39> *
| 40>
| 41>                          ****END OF INPUT****
 Total Charge           Charge          ....    1
 Multiplicity           Mult            ....    1
 Number of Electrons    NEL             ....   54
FINAL SINGLE POINT ENERGY      -361.903490060162

CARTESIAN COORDINATES (ANGSTROEM)
---------------------------------
  O     -0.000276    0.001014    2.566741
  C      0.336177    0.065017    1.285767
  O      1.471756    0.001524    0.921997
  C     -0.806129    0.209672    0.279862
  C     -0.181836    0.415695   -1.067003
  C      0.261848   -0.703722   -1.899113
  N     -0.976777    0.031741   -2.276530
  H     -0.949097    0.085257    2.717230
  H     -1.449875    1.053837    0.543643
  H     -1.418605   -0.699011    0.305176
  H      0.334828    1.357430   -1.212165
  H      0.081528   -1.717970   -1.565271
  H      1.086052   -0.567518   -2.586726
  H     -0.948154    0.639566   -3.088148
  H     -1.867887   -0.434647   -2.145793

FINAL SINGLE POINT ENERGY      -361.903490823043
                    ***********************HURRAY********************
 Multiplicity           Mult            ....    1
 Number of Electrons    NEL             ....   54
 Basis Dimension        Dim             ....  265
FINAL SINGLE POINT ENERGY      -361.903491498185

VIBRATIONAL FREQUENCIES
-----------------------

   0:         0.00 cm**-1
   1:         0.00 cm**-1
   2:         0.00 cm**-1
   3:         0.00 cm**-1
   4:         0.00 cm**-1
   5:         0.00 cm**-1
   6:        42.45 cm**-1
   7:        86.31 cm**-1
   8:       168.51 cm**-1
   9:       332.98 cm**-1
  10:       353.21 cm**-1
  11:       440.57 cm**-1
  12:       457.84 cm**-1
  13:       595.18 cm**-1
  14:       658.23 cm**-1
  15:       803.54 cm**-1
  16:       853.21 cm**-1
  17:       863.82 cm**-1
  18:       869.59 cm**-1
  19:       906.91 cm**-1
  20:       946.08 cm**-1
  21:       995.52 cm**-1
  22:      1029.36 cm**-1
  23:      1136.84 cm**-1
  24:      1155.54 cm**-1
  25:      1180.04 cm**-1
  26:      1188.19 cm**-1
  27:      1245.32 cm**-1
  28:      1265.53 cm**-1
  29:      1277.47 cm**-1
  30:      1304.66 cm**-1
  31:      1383.68 cm**-1
  32:      1434.64 cm**-1
  33:      1472.20 cm**-1
  34:      1501.23 cm**-1
  35:      1635.39 cm**-1
  36:      1877.68 cm**-1
  37:      3054.33 cm**-1
  38:      3111.14 cm**-1
  39:      3175.40 cm**-1
  40:      3209.88 cm**-1
  41:      3278.74 cm**-1
  42:      3513.95 cm**-1
  43:      3616.31 cm**-1
  44:      3827.69 cm**-1

IR SPECTRUM
-----------

 Mode    freq (cm**-1)   T**2         TX         TY         TZ
-------------------------------------------------------------------
   6:        42.45    4.167278  (  0.369015   1.780074   0.928678)
   7:        86.31    1.267767  ( -0.283523   0.246242  -1.061483)
   8:       168.51   13.509777  ( -1.739138   0.257297  -3.227844)
   9:       332.98    0.618955  (  0.120574  -0.310035   0.712948)
  10:       353.21   14.253793  (  0.371112   0.224593   3.750417)
  11:       440.57   52.164940  ( -0.736568  -7.136888  -0.828996)
  12:       457.84   48.077420  ( -0.831386  -6.882024  -0.154806)
  13:       595.18    9.507233  (  0.081731  -3.080592  -0.102492)
  14:       658.23    6.366306  ( -2.399043   0.253765  -0.739259)
  15:       803.54    4.505908  ( -0.045304   0.619283  -2.029863)
  16:       853.21   11.022798  ( -3.064291   0.337808   1.232399)
  17:       863.82   14.813239  ( -1.780295   1.777386  -2.912848)
  18:       869.59   20.452126  ( -2.584446  -0.569904  -3.667148)
  19:       906.91    9.022760  ( -2.200196  -0.922379  -1.825134)
  20:       946.08    2.891551  ( -0.837387  -0.186746   1.468148)
  21:       995.52   16.326593  (  1.365552   0.315954   3.789727)
  22:      1029.36   97.269655  ( -2.560515   7.761349   5.520406)
  23:      1136.84    2.372138  ( -1.037793  -0.358961   1.079940)
  24:      1155.54    0.521047  ( -0.656287  -0.228588   0.195147)
  25:      1180.04    4.335343  ( -1.178825  -1.245879   1.180465)
  26:      1188.19   12.115620  (  0.578500  -0.453146  -3.402296)
  27:      1245.32    2.248759  (  1.303947   0.504833  -0.541872)
  28:      1265.53   14.325602  (  0.404375   0.179722   3.758960)
  29:      1277.47  189.350553  ( -3.271968  -0.065065  13.365648)
  30:      1304.66   41.753205  ( -1.103018  -0.034905   6.366737)
  31:      1383.68  280.340915  ( -1.992180   0.988462 -16.595032)
  32:      1434.64   13.721870  ( -3.359846   1.054302  -1.149675)
  33:      1472.20    9.835656  (  2.236331   2.006064  -0.900104)
  34:      1501.23    8.839505  ( -1.310507   2.172545   1.549879)
  35:      1635.39   67.678857  ( -6.525532   0.202087  -5.005542)
  36:      1877.68  246.998288  (-14.504164   0.395320   6.039141)
  37:      3054.33    0.935443  (  0.466707   0.654297  -0.538074)
  38:      3111.14    0.547819  (  0.215855   0.151420   0.691590)
  39:      3175.40    5.236598  ( -1.595164   1.381597   0.885009)
  40:      3209.88    4.696607  (  1.126494   1.819128   0.344082)
  41:      3278.74    8.701608  ( -1.807415  -1.765848   1.522050)
  42:      3513.95  121.292855  ( -7.440723   1.723231  -7.934669)
  43:      3616.31  125.722511  (  5.801947   7.059875  -6.497545)
  44:      3827.69   99.141956  (  8.009739  -0.520558  -5.891949)

--------------------------
THERMOCHEMISTRY AT 298.15K
--------------------------

Temperature         ... 298.15 K
Pressure            ... 1.00 atm
Total Mass          ... 102.11 AMU

Throughout the following assumptions are being made:
  (1) The electronic state is orbitally nondegenerate
  (2) There are no thermally accessible electronically excited states
  (3) Hindered rotations indicated by low frequency modes) are not
      treated as such but are treated as vibrations and this may
      case some error
  (4) All equations used are the standard statistical mechanics
      equations for an ideal gas
  (5) All vibrations are strinctly harmonic

------------
INNER ENERGY
------------

The inner energy is: U= E(el) + E(ZPE) + E(vib) + E(rot) + E(trans)
    E(el)   - is the total energy from the electronic structure calculation
              = E(kin-el) + E(nuc-el) + E(el-el) + E(nuc-nuc)
    E(ZPE)  - the the zero temperature vibrational energy from the frequency calculation
    E(vib)  - the the finite temperature correction to E(ZPE) due to population
              of excietd vibrational states
    E(rot)  - is the rotational thermal energy
    E(trans)- is the translational thermal energy

Summary of contributions to the inner energy U:
Electronic energy                ...   -361.90349150 Eh
Zero point energy                ...      0.12814501 Eh      80.41 kcal/mol
Thermal vibrational correction   ...      0.00437303 Eh       2.74 kcal/mol
Thermal rotational correction    ...      0.00141627 Eh       0.89 kcal/mol
Thermal translational correction ...      0.00141627 Eh       0.89 kcal/mol
-----------------------------------------------------------------------
Total thermal energy                   -361.76814092 Eh

Summary of corrections to the electronic energy:
(perhaps to be used in another calculation)
Total thermal correction                  0.00720557 Eh       4.52 kcal/mol
Non-thermal (ZPE) correction              0.12814501 Eh      80.41 kcal/mol
-----------------------------------------------------------------------
Total correction                          0.13535058 Eh      84.93 kcal/mol

--------
ENTHALPY
--------

The enthalpy is H = U + kB*T
                kB is Boltzmann's constant
Total free energy                 ...   -361.76814092 Eh
Thermal Enthalpy correction       ...      0.00094421 Eh       0.59 kcal/mol
-----------------------------------------------------------------------
Total Enthalpy                    ...   -361.76719671 Eh

-------
ENTROPY
-------

The entropy contributions are T*S = T*(S(el)+S(vib)+S(rot)+S(trans)
     S(el)   - electronic entropy
     S(vib)  - vibrational entropy
     S(rot)  - rotational entropy
     S(trans)- translational entropy
The entropies will be listed as mutliplied by the temperature to get
units of energy

Electronic entropy                ...      0.00000000 Eh      0.00 kcal/mol
Vibrational entropy               ...      0.00838730 Eh      5.26 kcal/mol
Rotational entropy                ...      0.01203417 Eh      7.55 kcal/mol
Translational entropy             ...      0.01890086 Eh     11.86 kcal/mol
-----------------------------------------------------------------------
Final entropy term                ...      0.03932233 Eh     24.68 kcal/mol

CAUTION: The rotational entropy is not quite correctly treated here
         because it includes a symmetry number that is not yet correctly
         implemented in ORCA!
For a nonlinear molecule the correct rotational entropy is:
    S(rot) = R*(ln(qrot/sn)+1.5)
    R    = 8.31441 J/mol/K = 1.987191683e-3 kcal/mol/K
    qrot = 229631.9351990
    sn is the rotational symmetry number. We have assumed 3 here
       if it is different for your molecule then you should correct
       the printed rotational entropy by manually evaluating the equation
       as given above

For convenience we print out the resulting values for sn=1 - 12:
 sn= 1  qrot/sn=  229631.9352 T*S(rot)=     8.20 kcal/mol T*S(tot)=    25.33 kcal/mol
 sn= 2  qrot/sn=  114815.9676 T*S(rot)=     7.79 kcal/mol T*S(tot)=    24.92 kcal/mol
 sn= 3  qrot/sn=   76543.9784 T*S(rot)=     7.55 kcal/mol T*S(tot)=    24.68 kcal/mol
 sn= 4  qrot/sn=   57407.9838 T*S(rot)=     7.38 kcal/mol T*S(tot)=    24.50 kcal/mol
 sn= 5  qrot/sn=   45926.3870 T*S(rot)=     7.25 kcal/mol T*S(tot)=    24.37 kcal/mol
 sn= 6  qrot/sn=   38271.9892 T*S(rot)=     7.14 kcal/mol T*S(tot)=    24.26 kcal/mol
 sn= 7  qrot/sn=   32804.5622 T*S(rot)=     7.05 kcal/mol T*S(tot)=    24.17 kcal/mol
 sn= 8  qrot/sn=   28703.9919 T*S(rot)=     6.97 kcal/mol T*S(tot)=    24.09 kcal/mol
 sn= 9  qrot/sn=   25514.6595 T*S(rot)=     6.90 kcal/mol T*S(tot)=    24.02 kcal/mol
 sn=10  qrot/sn=   22963.1935 T*S(rot)=     6.84 kcal/mol T*S(tot)=    23.96 kcal/mol
 sn=11  qrot/sn=   20875.6305 T*S(rot)=     6.78 kcal/mol T*S(tot)=    23.91 kcal/mol
 sn=12  qrot/sn=   19135.9946 T*S(rot)=     6.73 kcal/mol T*S(tot)=    23.85 kcal/mol

-------------------
GIBBS FREE ENTHALPY
-------------------

The Gibbs free enthalpy is G = H - T*S

Total enthalpy                    ...   -361.76719671 Eh
Total entropy correction          ...     -0.03932233 Eh    -24.68 kcal/mol
-----------------------------------------------------------------------
Final Gibbs free enthalpy         ...   -361.80651905 Eh

For completeness - the Gibbs free enthalpy minus the electronic energy
G-E(el)                           ...      0.09697245 Eh     60.85 kcal/mol

                             ****ORCA TERMINATED NORMALLY****
TOTAL RUN TIME: 0 days 0 hours 25 minutes 17 seconds 6 msec
