                         Program Version 3.0.3 - RELEASE   -
|  1> ! NORI PBE0 def2-TZVP UseSym TightOPT Freq TightSCF Grid3 FinalGrid5 XYZFile
|  2> % pal
|  3>     nprocs 8
|  4> end
|  5> %method
|  6>     SymThresh 5.0e-2
|  7> end
|  8> % geom
|  9>     MaxIter 10
| 10> end
| 11> % maxcore 2000
| 12> % output
| 13>     printlevel mini
| 14>     print[ P_Basis ] 0
| 15>     print[ P_SCFInfo ] 1
| 16>     print[ P_SCFIterInfo ] 1
| 17>     print[ P_OrbEn ] 0
| 18>     print[ P_Cartesian ] 0
| 19> end
| 20> % elprop
| 21>     Dipole false
| 22> end
| 23> *xyz 1 1
| 24>  O        1.1772959073    -0.1031321734    -0.2648780510
| 25>  N        2.5104007476    -0.0903199068    -0.0562546649
| 26>  C        3.1629611970    -1.1401881968     0.3897998061
| 27>  N        4.3914560630    -0.8304351719     0.7121211401
| 28>  C        4.6592757449     0.5891728626     0.4550298377
| 29>  C        3.2997295284     1.0892660608     0.0172736760
| 30>  C        2.8573333920     2.3054307270    -0.2405040138
| 31>  H        1.0406110939    -0.0122659623    -1.2214830363
| 32>  H        2.7129364578    -2.1207748970     0.4758213070
| 33>  H        5.0763701137    -1.4959845009     1.0324256574
| 34>  H        5.0183989521     1.0845243906     1.3588180387
| 35>  H        5.4123477060     0.6941316097    -0.3309540622
| 36>  H        1.8293631967     2.4827834407    -0.5271774121
| 37>  H        3.5150698996     3.1592617178    -0.1536082227
| 38> *
| 39>
| 40>                          ****END OF INPUT****
 Total Charge           Charge          ....    1
 Multiplicity           Mult            ....    1
 Number of Electrons    NEL             ....   52
FINAL SINGLE POINT ENERGY      -340.787582886544

CARTESIAN COORDINATES (ANGSTROEM)
---------------------------------
  O     -0.000255   -0.000620    2.001586
  N      0.225235   -0.000507    0.671193
  C      1.249551    0.620889    0.131109
  N      1.143873    0.661192   -1.171351
  C     -0.077227   -0.017793   -1.619854
  C     -0.737147   -0.374157   -0.305526
  C     -1.919741   -0.892549   -0.033570
  H      0.119275   -0.913895    2.307797
  H      2.057913    1.041700    0.714938
  H      1.842820    1.050975   -1.783035
  H     -0.688506    0.649669   -2.229892
  H      0.178425   -0.902876   -2.208699
  H     -2.239681   -1.063560    0.985776
  H     -2.606312   -1.143182   -0.830541

FINAL SINGLE POINT ENERGY      -340.787583252661
                    ***********************HURRAY********************
 Multiplicity           Mult            ....    1
 Number of Electrons    NEL             ....   52
 Basis Dimension        Dim             ....  259
FINAL SINGLE POINT ENERGY      -340.787583553571

VIBRATIONAL FREQUENCIES
-----------------------

   0:         0.00 cm**-1
   1:         0.00 cm**-1
   2:         0.00 cm**-1
   3:         0.00 cm**-1
   4:         0.00 cm**-1
   5:         0.00 cm**-1
   6:       119.77 cm**-1
   7:       215.78 cm**-1
   8:       290.57 cm**-1
   9:       333.55 cm**-1
  10:       401.11 cm**-1
  11:       463.44 cm**-1
  12:       489.15 cm**-1
  13:       571.26 cm**-1
  14:       625.97 cm**-1
  15:       743.19 cm**-1
  16:       758.39 cm**-1
  17:       864.90 cm**-1
  18:       910.33 cm**-1
  19:       932.08 cm**-1
  20:       983.29 cm**-1
  21:       995.01 cm**-1
  22:      1018.48 cm**-1
  23:      1153.05 cm**-1
  24:      1215.76 cm**-1
  25:      1217.90 cm**-1
  26:      1296.72 cm**-1
  27:      1337.56 cm**-1
  28:      1356.71 cm**-1
  29:      1436.85 cm**-1
  30:      1444.42 cm**-1
  31:      1484.12 cm**-1
  32:      1589.65 cm**-1
  33:      1692.70 cm**-1
  34:      1767.15 cm**-1
  35:      3075.84 cm**-1
  36:      3126.80 cm**-1
  37:      3192.34 cm**-1
  38:      3261.40 cm**-1
  39:      3287.12 cm**-1
  40:      3660.84 cm**-1
  41:      3729.73 cm**-1

IR SPECTRUM
-----------

 Mode    freq (cm**-1)   T**2         TX         TY         TZ
-------------------------------------------------------------------
   6:       119.77    0.133019  (  0.031524   0.246394   0.267049)
   7:       215.78    4.425191  ( -0.186452   0.792558   1.939659)
   8:       290.57    4.541522  ( -1.775790  -1.055011  -0.524446)
   9:       333.55   84.551782  (  7.700856   4.658108   1.884311)
  10:       401.11  135.094030  ( -9.005743   7.281918  -0.981985)
  11:       463.44    6.992695  (  2.139141  -1.384692  -0.706681)
  12:       489.15   21.410868  ( -0.800938   4.550966  -0.240993)
  13:       571.26   18.610908  (  0.875407  -4.214411  -0.288637)
  14:       625.97    3.834810  (  1.660201   1.035423  -0.080258)
  15:       743.19    1.812525  (  0.590717   0.903950   0.804023)
  16:       758.39    9.007611  ( -0.254872  -0.838657   2.870419)
  17:       864.90    4.212245  (  1.323350   0.249092   1.548852)
  18:       910.33    7.793723  (  1.128786   2.368458  -0.953926)
  19:       932.08   48.617704  ( -2.533957   6.482419   0.418344)
  20:       983.29    5.726445  (  2.194459  -0.662866  -0.686587)
  21:       995.01   13.961111  ( -2.848884  -2.211895   0.975958)
  22:      1018.48    1.059747  (  0.891935  -0.511590   0.049744)
  23:      1153.05   10.537713  (  0.448920   0.249919   3.205265)
  24:      1215.76   12.041057  (  1.089246   2.172414  -2.476937)
  25:      1217.90   23.586436  ( -3.039798  -1.246873   3.576503)
  26:      1296.72  112.795885  ( -5.455633  -3.208116   8.528772)
  27:      1337.56    7.172032  (  1.549049   0.508732  -2.124540)
  28:      1356.71   25.401462  (  4.189852   2.269252  -1.642285)
  29:      1436.85   26.293170  ( -3.181974  -1.322971  -3.797099)
  30:      1444.42   51.253868  ( -1.105315  -0.749143  -7.033558)
  31:      1484.12    2.695661  (  0.079660   0.282928   1.615323)
  32:      1589.65   31.043726  ( -2.881278  -1.500509  -4.526636)
  33:      1692.70  177.545524  (  6.798827   4.515449 -10.532435)
  34:      1767.15   48.693512  ( -5.968183  -2.888057   2.175645)
  35:      3075.84    0.143100  ( -0.230927  -0.137203   0.266360)
  36:      3126.80    1.324002  ( -0.459974   1.037641  -0.189017)
  37:      3192.34   11.945372  ( -3.176199  -1.222669   0.601842)
  38:      3261.40   32.117701  (  4.564474   2.441696   2.306816)
  39:      3287.12    4.427298  (  0.733077   0.365569   1.938106)
  40:      3660.84  260.835216  (-10.488589  -6.264430  10.563220)
  41:      3729.73  106.668418  (  1.319290  -7.748383   6.700034)

--------------------------
THERMOCHEMISTRY AT 298.15K
--------------------------

Temperature         ... 298.15 K
Pressure            ... 1.00 atm
Total Mass          ... 99.11 AMU

Throughout the following assumptions are being made:
  (1) The electronic state is orbitally nondegenerate
  (2) There are no thermally accessible electronically excited states
  (3) Hindered rotations indicated by low frequency modes) are not
      treated as such but are treated as vibrations and this may
      case some error
  (4) All equations used are the standard statistical mechanics
      equations for an ideal gas
  (5) All vibrations are strinctly harmonic

------------
INNER ENERGY
------------

The inner energy is: U= E(el) + E(ZPE) + E(vib) + E(rot) + E(trans)
    E(el)   - is the total energy from the electronic structure calculation
              = E(kin-el) + E(nuc-el) + E(el-el) + E(nuc-nuc)
    E(ZPE)  - the the zero temperature vibrational energy from the frequency calculation
    E(vib)  - the the finite temperature correction to E(ZPE) due to population
              of excietd vibrational states
    E(rot)  - is the rotational thermal energy
    E(trans)- is the translational thermal energy

Summary of contributions to the inner energy U:
Electronic energy                ...   -340.78758355 Eh
Zero point energy                ...      0.11628432 Eh      72.97 kcal/mol
Thermal vibrational correction   ...      0.00372847 Eh       2.34 kcal/mol
Thermal rotational correction    ...      0.00141627 Eh       0.89 kcal/mol
Thermal translational correction ...      0.00141627 Eh       0.89 kcal/mol
-----------------------------------------------------------------------
Total thermal energy                   -340.66473822 Eh

Summary of corrections to the electronic energy:
(perhaps to be used in another calculation)
Total thermal correction                  0.00656101 Eh       4.12 kcal/mol
Non-thermal (ZPE) correction              0.11628432 Eh      72.97 kcal/mol
-----------------------------------------------------------------------
Total correction                          0.12284533 Eh      77.09 kcal/mol

--------
ENTHALPY
--------

The enthalpy is H = U + kB*T
                kB is Boltzmann's constant
Total free energy                 ...   -340.66473822 Eh
Thermal Enthalpy correction       ...      0.00094421 Eh       0.59 kcal/mol
-----------------------------------------------------------------------
Total Enthalpy                    ...   -340.66379401 Eh

-------
ENTROPY
-------

The entropy contributions are T*S = T*(S(el)+S(vib)+S(rot)+S(trans)
     S(el)   - electronic entropy
     S(vib)  - vibrational entropy
     S(rot)  - rotational entropy
     S(trans)- translational entropy
The entropies will be listed as mutliplied by the temperature to get
units of energy

Electronic entropy                ...      0.00000000 Eh      0.00 kcal/mol
Vibrational entropy               ...      0.00597896 Eh      3.75 kcal/mol
Rotational entropy                ...      0.01180149 Eh      7.41 kcal/mol
Translational entropy             ...      0.01885862 Eh     11.83 kcal/mol
-----------------------------------------------------------------------
Final entropy term                ...      0.03663907 Eh     22.99 kcal/mol

CAUTION: The rotational entropy is not quite correctly treated here
         because it includes a symmetry number that is not yet correctly
         implemented in ORCA!
For a nonlinear molecule the correct rotational entropy is:
    S(rot) = R*(ln(qrot/sn)+1.5)
    R    = 8.31441 J/mol/K = 1.987191683e-3 kcal/mol/K
    qrot = 179475.0842409
    sn is the rotational symmetry number. We have assumed 3 here
       if it is different for your molecule then you should correct
       the printed rotational entropy by manually evaluating the equation
       as given above

For convenience we print out the resulting values for sn=1 - 12:
 sn= 1  qrot/sn=  179475.0842 T*S(rot)=     8.06 kcal/mol T*S(tot)=    23.64 kcal/mol
 sn= 2  qrot/sn=   89737.5421 T*S(rot)=     7.65 kcal/mol T*S(tot)=    23.23 kcal/mol
 sn= 3  qrot/sn=   59825.0281 T*S(rot)=     7.41 kcal/mol T*S(tot)=    22.99 kcal/mol
 sn= 4  qrot/sn=   44868.7711 T*S(rot)=     7.24 kcal/mol T*S(tot)=    22.82 kcal/mol
 sn= 5  qrot/sn=   35895.0168 T*S(rot)=     7.10 kcal/mol T*S(tot)=    22.69 kcal/mol
 sn= 6  qrot/sn=   29912.5140 T*S(rot)=     6.99 kcal/mol T*S(tot)=    22.58 kcal/mol
 sn= 7  qrot/sn=   25639.2977 T*S(rot)=     6.90 kcal/mol T*S(tot)=    22.49 kcal/mol
 sn= 8  qrot/sn=   22434.3855 T*S(rot)=     6.82 kcal/mol T*S(tot)=    22.41 kcal/mol
 sn= 9  qrot/sn=   19941.6760 T*S(rot)=     6.75 kcal/mol T*S(tot)=    22.34 kcal/mol
 sn=10  qrot/sn=   17947.5084 T*S(rot)=     6.69 kcal/mol T*S(tot)=    22.28 kcal/mol
 sn=11  qrot/sn=   16315.9167 T*S(rot)=     6.64 kcal/mol T*S(tot)=    22.22 kcal/mol
 sn=12  qrot/sn=   14956.2570 T*S(rot)=     6.58 kcal/mol T*S(tot)=    22.17 kcal/mol

-------------------
GIBBS FREE ENTHALPY
-------------------

The Gibbs free enthalpy is G = H - T*S

Total enthalpy                    ...   -340.66379401 Eh
Total entropy correction          ...     -0.03663907 Eh    -22.99 kcal/mol
-----------------------------------------------------------------------
Final Gibbs free enthalpy         ...   -340.70043308 Eh

For completeness - the Gibbs free enthalpy minus the electronic energy
G-E(el)                           ...      0.08715047 Eh     54.69 kcal/mol

                             ****ORCA TERMINATED NORMALLY****
TOTAL RUN TIME: 0 days 0 hours 27 minutes 9 seconds 977 msec
