                         Program Version 3.0.3 - RELEASE   -
|  1> ! NORI PBE0 def2-TZVP UseSym TightOPT Freq TightSCF Grid3 FinalGrid5 XYZFile
|  2> % pal
|  3>     nprocs 8
|  4> end
|  5> %method
|  6>     SymThresh 5.0e-2
|  7> end
|  8> % geom
|  9>     MaxIter 10
| 10> end
| 11> % maxcore 2000
| 12> % output
| 13>     printlevel mini
| 14>     print[ P_Basis ] 0
| 15>     print[ P_SCFInfo ] 1
| 16>     print[ P_SCFIterInfo ] 1
| 17>     print[ P_OrbEn ] 0
| 18>     print[ P_Cartesian ] 0
| 19> end
| 20> % elprop
| 21>     Dipole false
| 22> end
| 23> *xyz 1 1
| 24>  O        0.9556267794     0.4992779938     0.0940524481
| 25>  N        2.3061156470     0.3818881273     0.1703801420
| 26>  C        2.8579859504     0.5369828613    -0.9559762306
| 27>  C        2.2302833185     0.8807486049    -2.2778281478
| 28>  C        3.4081423943     0.9384898186    -3.2397794774
| 29>  N        4.5947892043     1.2174907298    -2.3443923446
| 30>  C        4.3471614635     0.4339456352    -1.0876316312
| 31>  H        0.6511463449     0.3647985796     0.9994322951
| 32>  H        1.4922574868     0.1365716769    -2.5837535552
| 33>  H        1.7019059289     1.8361104540    -2.2062463715
| 34>  H        3.6013541490    -0.0238627327    -3.7142442124
| 35>  H        3.3493367269     1.7096938286    -4.0059327973
| 36>  H        4.6340234346     2.2143643247    -2.1246374450
| 37>  H        5.4789246593     0.9719411932    -2.7898916039
| 38>  H        4.9070420734     0.8524709601    -0.2532071240
| 39>  H        4.6825744387    -0.5896020552    -1.2749539442
| 40> *
| 41>
| 42>                          ****END OF INPUT****
 Total Charge           Charge          ....    1
 Multiplicity           Mult            ....    1
 Number of Electrons    NEL             ....   54
FINAL SINGLE POINT ENERGY      -342.008221821050

CARTESIAN COORDINATES (ANGSTROEM)
---------------------------------
  O     -0.000404   -0.001193    2.467664
  N      0.885720   -0.000303    1.438967
  C      0.307281   -0.074763    0.317697
  C     -1.164296   -0.095797    0.012191
  C     -1.223228   -0.181055   -1.506198
  N      0.106763    0.383474   -1.953427
  C      1.111080   -0.099462   -0.946922
  H      0.549025    0.062462    3.257933
  H     -1.666367   -0.941397    0.486113
  H     -1.641604    0.809516    0.398738
  H     -1.254034   -1.211394   -1.861016
  H     -2.026898    0.383291   -1.975607
  H      0.070523    1.404264   -1.938740
  H      0.342562    0.104014   -2.905648
  H      1.990837    0.541538   -0.938586
  H      1.400146   -1.111913   -1.241015

FINAL SINGLE POINT ENERGY      -342.008222325866
                    ***********************HURRAY********************
 Multiplicity           Mult            ....    1
 Number of Electrons    NEL             ....   54
 Basis Dimension        Dim             ....  271
FINAL SINGLE POINT ENERGY      -342.008222440941

VIBRATIONAL FREQUENCIES
-----------------------

   0:         0.00 cm**-1
   1:         0.00 cm**-1
   2:         0.00 cm**-1
   3:         0.00 cm**-1
   4:         0.00 cm**-1
   5:         0.00 cm**-1
   6:        78.08 cm**-1
   7:       214.96 cm**-1
   8:       220.63 cm**-1
   9:       313.37 cm**-1
  10:       426.30 cm**-1
  11:       498.65 cm**-1
  12:       554.41 cm**-1
  13:       601.41 cm**-1
  14:       673.53 cm**-1
  15:       796.05 cm**-1
  16:       857.60 cm**-1
  17:       885.20 cm**-1
  18:       894.06 cm**-1
  19:       951.06 cm**-1
  20:      1001.24 cm**-1
  21:      1021.44 cm**-1
  22:      1049.30 cm**-1
  23:      1097.33 cm**-1
  24:      1163.46 cm**-1
  25:      1211.69 cm**-1
  26:      1256.42 cm**-1
  27:      1260.23 cm**-1
  28:      1289.25 cm**-1
  29:      1327.57 cm**-1
  30:      1376.88 cm**-1
  31:      1390.11 cm**-1
  32:      1398.92 cm**-1
  33:      1440.54 cm**-1
  34:      1465.98 cm**-1
  35:      1481.72 cm**-1
  36:      1505.39 cm**-1
  37:      1652.93 cm**-1
  38:      1783.52 cm**-1
  39:      3077.84 cm**-1
  40:      3085.27 cm**-1
  41:      3111.83 cm**-1
  42:      3127.58 cm**-1
  43:      3168.97 cm**-1
  44:      3177.78 cm**-1
  45:      3453.93 cm**-1
  46:      3516.45 cm**-1
  47:      3823.28 cm**-1

IR SPECTRUM
-----------

 Mode    freq (cm**-1)   T**2         TX         TY         TZ
-------------------------------------------------------------------
   6:        78.08    3.007493  (  0.189009   1.317901   1.111263)
   7:       214.96    3.728135  (  0.126937   1.526651   1.175312)
   8:       220.63    3.347191  (  1.197972  -1.046627  -0.903673)
   9:       313.37    1.688708  ( -0.272615  -0.973994   0.815920)
  10:       426.30   45.397025  ( -0.312760   6.705920   0.574322)
  11:       498.65   20.601120  (  0.056440  -2.687748   3.657040)
  12:       554.41   68.620706  ( -0.364559   8.259509  -0.517985)
  13:       601.41   13.766602  (  1.055909  -3.232710  -1.483659)
  14:       673.53    8.466666  (  2.840786   0.204959   0.595477)
  15:       796.05    0.863080  (  0.044104   0.637749  -0.674101)
  16:       857.60    2.916628  ( -1.655631   0.349313   0.231291)
  17:       885.20    7.407034  (  0.311931  -2.173258   1.608316)
  18:       894.06    4.984733  ( -0.960377   1.393694   1.456031)
  19:       951.06    9.465680  (  0.381644   0.226412   3.044465)
  20:      1001.24    6.054911  (  0.594960  -0.292422  -2.369688)
  21:      1021.44    8.563230  (  2.567686   0.327461  -1.364913)
  22:      1049.30    3.654048  ( -1.714315   0.033279   0.845024)
  23:      1097.33  146.593790  ( -0.588794  -0.467734 -12.084218)
  24:      1163.46    6.077732  ( -0.550546  -0.365193   2.375135)
  25:      1211.69   17.242549  ( -3.246260   0.471812   2.545926)
  26:      1256.42   39.339409  ( -6.226043  -0.757566   0.043544)
  27:      1260.23    1.918017  (  0.653193   0.572159   1.078883)
  28:      1289.25    5.444897  ( -1.860910   1.154489  -0.805645)
  29:      1327.57   15.454395  ( -0.992371  -1.252895  -3.591636)
  30:      1376.88    6.716978  (  0.566361   0.424895  -2.493126)
  31:      1390.11   30.940437  ( -4.952076  -0.166755  -2.527760)
  32:      1398.92    7.372944  ( -0.972801   0.107239   2.532805)
  33:      1440.54   59.183046  (  4.843738   0.049087  -5.976524)
  34:      1465.98   20.685020  ( -3.018237   0.508001   3.364105)
  35:      1481.72   14.497678  ( -3.660034   0.755033   0.729214)
  36:      1505.39   10.088205  (  0.941180   1.915996   2.351881)
  37:      1652.93   71.696210  (  1.098608   5.089937  -6.676961)
  38:      1783.52    2.584454  (  0.849627  -0.060537  -1.363423)
  39:      3077.84    0.917017  (  0.643639   0.460716  -0.538967)
  40:      3085.27    1.490403  (  0.215640   0.175413   1.188753)
  41:      3111.83    1.063527  (  0.204777   0.674184   0.753040)
  42:      3127.58    1.554430  (  0.492848   0.669229  -0.929335)
  43:      3168.97    1.341722  (  0.801938   0.834953   0.038346)
  44:      3177.78    0.107181  ( -0.136236  -0.268411  -0.128751)
  45:      3453.93   70.528790  ( -1.036835  -5.609841   6.163072)
  46:      3516.45   85.734263  (  1.724071  -6.170863  -6.684482)
  47:      3823.28  211.280206  ( -4.976849  -0.754340 -13.636061)

--------------------------
THERMOCHEMISTRY AT 298.15K
--------------------------

Temperature         ... 298.15 K
Pressure            ... 1.00 atm
Total Mass          ... 101.13 AMU

Throughout the following assumptions are being made:
  (1) The electronic state is orbitally nondegenerate
  (2) There are no thermally accessible electronically excited states
  (3) Hindered rotations indicated by low frequency modes) are not
      treated as such but are treated as vibrations and this may
      case some error
  (4) All equations used are the standard statistical mechanics
      equations for an ideal gas
  (5) All vibrations are strinctly harmonic

------------
INNER ENERGY
------------

The inner energy is: U= E(el) + E(ZPE) + E(vib) + E(rot) + E(trans)
    E(el)   - is the total energy from the electronic structure calculation
              = E(kin-el) + E(nuc-el) + E(el-el) + E(nuc-nuc)
    E(ZPE)  - the the zero temperature vibrational energy from the frequency calculation
    E(vib)  - the the finite temperature correction to E(ZPE) due to population
              of excietd vibrational states
    E(rot)  - is the rotational thermal energy
    E(trans)- is the translational thermal energy

Summary of contributions to the inner energy U:
Electronic energy                ...   -342.00822244 Eh
Zero point energy                ...      0.14280046 Eh      89.61 kcal/mol
Thermal vibrational correction   ...      0.00378667 Eh       2.38 kcal/mol
Thermal rotational correction    ...      0.00141627 Eh       0.89 kcal/mol
Thermal translational correction ...      0.00141627 Eh       0.89 kcal/mol
-----------------------------------------------------------------------
Total thermal energy                   -341.85880277 Eh

Summary of corrections to the electronic energy:
(perhaps to be used in another calculation)
Total thermal correction                  0.00661921 Eh       4.15 kcal/mol
Non-thermal (ZPE) correction              0.14280046 Eh      89.61 kcal/mol
-----------------------------------------------------------------------
Total correction                          0.14941967 Eh      93.76 kcal/mol

--------
ENTHALPY
--------

The enthalpy is H = U + kB*T
                kB is Boltzmann's constant
Total free energy                 ...   -341.85880277 Eh
Thermal Enthalpy correction       ...      0.00094421 Eh       0.59 kcal/mol
-----------------------------------------------------------------------
Total Enthalpy                    ...   -341.85785856 Eh

-------
ENTROPY
-------

The entropy contributions are T*S = T*(S(el)+S(vib)+S(rot)+S(trans)
     S(el)   - electronic entropy
     S(vib)  - vibrational entropy
     S(rot)  - rotational entropy
     S(trans)- translational entropy
The entropies will be listed as mutliplied by the temperature to get
units of energy

Electronic entropy                ...      0.00000000 Eh      0.00 kcal/mol
Vibrational entropy               ...      0.00642194 Eh      4.03 kcal/mol
Rotational entropy                ...      0.01194093 Eh      7.49 kcal/mol
Translational entropy             ...      0.01888714 Eh     11.85 kcal/mol
-----------------------------------------------------------------------
Final entropy term                ...      0.03725002 Eh     23.37 kcal/mol

CAUTION: The rotational entropy is not quite correctly treated here
         because it includes a symmetry number that is not yet correctly
         implemented in ORCA!
For a nonlinear molecule the correct rotational entropy is:
    S(rot) = R*(ln(qrot/sn)+1.5)
    R    = 8.31441 J/mol/K = 1.987191683e-3 kcal/mol/K
    qrot = 208038.6979904
    sn is the rotational symmetry number. We have assumed 3 here
       if it is different for your molecule then you should correct
       the printed rotational entropy by manually evaluating the equation
       as given above

For convenience we print out the resulting values for sn=1 - 12:
 sn= 1  qrot/sn=  208038.6980 T*S(rot)=     8.14 kcal/mol T*S(tot)=    24.03 kcal/mol
 sn= 2  qrot/sn=  104019.3490 T*S(rot)=     7.73 kcal/mol T*S(tot)=    23.61 kcal/mol
 sn= 3  qrot/sn=   69346.2327 T*S(rot)=     7.49 kcal/mol T*S(tot)=    23.37 kcal/mol
 sn= 4  qrot/sn=   52009.6745 T*S(rot)=     7.32 kcal/mol T*S(tot)=    23.20 kcal/mol
 sn= 5  qrot/sn=   41607.7396 T*S(rot)=     7.19 kcal/mol T*S(tot)=    23.07 kcal/mol
 sn= 6  qrot/sn=   34673.1163 T*S(rot)=     7.08 kcal/mol T*S(tot)=    22.96 kcal/mol
 sn= 7  qrot/sn=   29719.8140 T*S(rot)=     6.99 kcal/mol T*S(tot)=    22.87 kcal/mol
 sn= 8  qrot/sn=   26004.8372 T*S(rot)=     6.91 kcal/mol T*S(tot)=    22.79 kcal/mol
 sn= 9  qrot/sn=   23115.4109 T*S(rot)=     6.84 kcal/mol T*S(tot)=    22.72 kcal/mol
 sn=10  qrot/sn=   20803.8698 T*S(rot)=     6.78 kcal/mol T*S(tot)=    22.66 kcal/mol
 sn=11  qrot/sn=   18912.6089 T*S(rot)=     6.72 kcal/mol T*S(tot)=    22.60 kcal/mol
 sn=12  qrot/sn=   17336.5582 T*S(rot)=     6.67 kcal/mol T*S(tot)=    22.55 kcal/mol

-------------------
GIBBS FREE ENTHALPY
-------------------

The Gibbs free enthalpy is G = H - T*S

Total enthalpy                    ...   -341.85785856 Eh
Total entropy correction          ...     -0.03725002 Eh    -23.37 kcal/mol
-----------------------------------------------------------------------
Final Gibbs free enthalpy         ...   -341.89510858 Eh

For completeness - the Gibbs free enthalpy minus the electronic energy
G-E(el)                           ...      0.11311386 Eh     70.98 kcal/mol

                             ****ORCA TERMINATED NORMALLY****
TOTAL RUN TIME: 0 days 0 hours 31 minutes 15 seconds 413 msec
