                         Program Version 3.0.3 - RELEASE   -
|  1> ! NORI PBE0 def2-TZVP UseSym TightOPT Freq TightSCF Grid3 FinalGrid5 XYZFile
|  2> % pal
|  3>     nprocs 8
|  4> end
|  5> %method
|  6>     SymThresh 5.0e-2
|  7> end
|  8> % geom
|  9>     MaxIter 10
| 10> end
| 11> % maxcore 2000
| 12> % output
| 13>     printlevel mini
| 14>     print[ P_Basis ] 0
| 15>     print[ P_SCFInfo ] 1
| 16>     print[ P_SCFIterInfo ] 1
| 17>     print[ P_OrbEn ] 0
| 18>     print[ P_Cartesian ] 0
| 19> end
| 20> % elprop
| 21>     Dipole false
| 22> end
| 23> *xyz 1 1
| 24>  O        0.8581270198     0.2990735222     0.1104678328
| 25>  N        2.1905504572     0.3411539064     0.3338062146
| 26>  C        2.8387228041     0.8111770307    -0.6503856203
| 27>  C        4.3104505331     0.9055575705    -0.5218603461
| 28>  C        5.1828180297     0.3023944360    -1.6417992011
| 29>  N        6.0780116969     1.5269448504    -1.5923580722
| 30>  C        4.9879180781     2.2569067227    -0.8288469507
| 31>  H        0.4889454824    -0.0714815410     0.9205944576
| 32>  H        2.3380580738     1.1370470692    -1.5651080540
| 33>  H        4.6038780172     0.5271599014     0.4584952683
| 34>  H        5.7169265731    -0.6266437024    -1.4573452760
| 35>  H        4.6894839391     0.2728150801    -2.6125601752
| 36>  H        6.3662594888     1.9264063588    -2.4841599427
| 37>  H        6.9128315063     1.3759310609    -1.0274134468
| 38>  H        4.4298911986     2.8772611442    -1.5293137378
| 39>  H        5.3701471019     2.8582665900    -0.0071929503
| 40> *
| 41>
| 42>                          ****END OF INPUT****
 Total Charge           Charge          ....    1
 Multiplicity           Mult            ....    1
 Number of Electrons    NEL             ....   54
FINAL SINGLE POINT ENERGY      -341.974237297649

CARTESIAN COORDINATES (ANGSTROEM)
---------------------------------
  O      3.057346    0.000300    0.000000
  N      1.848667   -0.604400    0.000000
  C      0.886390    0.222443   -0.000000
  C     -0.489404   -0.324162   -0.000000
  C     -1.481830    0.190270    1.063148
  N     -2.561832    0.277575    0.000000
  C     -1.481830    0.190270   -1.063148
  H      3.691158   -0.726444    0.000000
  H      1.056155    1.301599   -0.000000
  H     -0.435980   -1.414162   -0.000000
  H     -1.751205   -0.455973    1.895310
  H     -1.261367    1.196730    1.416879
  H     -3.145856    1.112696    0.000000
  H     -3.173582   -0.537735   -0.000000
  H     -1.261367    1.196730   -1.416879
  H     -1.751205   -0.455973   -1.895310

FINAL SINGLE POINT ENERGY      -341.974237563955
                    ***********************HURRAY********************
 Multiplicity           Mult            ....    1
 Number of Electrons    NEL             ....   54
 Basis Dimension        Dim             ....  271
FINAL SINGLE POINT ENERGY      -341.974237584850

VIBRATIONAL FREQUENCIES
-----------------------

   0:         0.00 cm**-1
   1:         0.00 cm**-1
   2:         0.00 cm**-1
   3:         0.00 cm**-1
   4:         0.00 cm**-1
   5:         0.00 cm**-1
   6:        87.83 cm**-1
   7:       108.85 cm**-1
   8:       205.41 cm**-1
   9:       242.66 cm**-1
  10:       403.61 cm**-1
  11:       427.29 cm**-1
  12:       504.07 cm**-1
  13:       523.06 cm**-1
  14:       714.98 cm**-1
  15:       823.04 cm**-1
  16:       848.34 cm**-1
  17:       892.24 cm**-1
  18:       902.61 cm**-1
  19:       938.92 cm**-1
  20:       974.63 cm**-1
  21:       995.43 cm**-1
  22:      1071.67 cm**-1
  23:      1071.73 cm**-1
  24:      1140.39 cm**-1
  25:      1205.71 cm**-1
  26:      1245.11 cm**-1
  27:      1280.24 cm**-1
  28:      1282.76 cm**-1
  29:      1293.33 cm**-1
  30:      1318.81 cm**-1
  31:      1321.34 cm**-1
  32:      1323.30 cm**-1
  33:      1376.37 cm**-1
  34:      1474.23 cm**-1
  35:      1480.19 cm**-1
  36:      1499.88 cm**-1
  37:      1650.34 cm**-1
  38:      1735.96 cm**-1
  39:      3109.15 cm**-1
  40:      3116.44 cm**-1
  41:      3117.78 cm**-1
  42:      3123.77 cm**-1
  43:      3194.70 cm**-1
  44:      3195.51 cm**-1
  45:      3470.08 cm**-1
  46:      3536.66 cm**-1
  47:      3825.61 cm**-1

IR SPECTRUM
-----------

 Mode    freq (cm**-1)   T**2         TX         TY         TZ
-------------------------------------------------------------------
   6:        87.83    2.236806  (  0.000025  -0.000013   1.495596)
   7:       108.85    5.174445  (  0.049890  -2.274193  -0.000002)
   8:       205.41    0.203354  ( -0.000045   0.000008   0.450948)
   9:       242.66    0.693747  ( -0.138822   0.821264  -0.000000)
  10:       403.61   12.592855  ( -3.484799   0.670098   0.000005)
  11:       427.29    0.204373  (  0.000025  -0.000004  -0.452076)
  12:       504.07    2.362590  (  0.956337   1.203332  -0.000003)
  13:       523.06  144.337780  (  0.000012  -0.000007 -12.014066)
  14:       714.98   15.443093  (  2.367674   3.136433   0.000002)
  15:       823.04    4.549643  (  0.000006  -0.000014  -2.132989)
  16:       848.34    2.604645  ( -1.611247  -0.092341   0.000001)
  17:       892.24    7.597854  ( -1.404356   2.371843   0.000001)
  18:       902.61    3.295528  (  0.000004   0.000002  -1.815359)
  19:       938.92    6.002274  ( -0.000038   0.000022   2.449954)
  20:       974.63   14.561039  (  3.808817   0.232281   0.000000)
  21:       995.43    7.459509  (  0.000017  -0.000005  -2.731210)
  22:      1071.67    1.513045  ( -0.004660   0.000418  -1.230050)
  23:      1071.73  108.885289  (-10.391765   0.946842   0.000553)
  24:      1140.39   91.455376  ( -9.314509   2.166862  -0.000001)
  25:      1205.71    2.748379  ( -0.918633   1.380033   0.000000)
  26:      1245.11   30.809548  ( -0.000001  -0.000001  -5.550635)
  27:      1280.24    5.002674  ( -2.024518  -0.950789  -0.000007)
  28:      1282.76    9.430134  ( -0.000006  -0.000005   3.070852)
  29:      1293.33   15.896777  (  3.046815   2.571710   0.000004)
  30:      1318.81    6.239425  ( -0.000012   0.000002  -2.497884)
  31:      1321.34   43.333861  (  6.365187   1.678767  -0.000012)
  32:      1323.30   34.291468  ( -0.000007  -0.000001  -5.855892)
  33:      1376.37   24.407281  (  4.595918   1.812407  -0.000000)
  34:      1474.23   35.378805  (  5.748468   1.527717   0.000003)
  35:      1480.19   13.931271  ( -0.000002   0.000019   3.732462)
  36:      1499.88    6.675448  (  0.585093  -2.516568   0.000001)
  37:      1650.34   59.478366  ( -7.711674   0.091908   0.000001)
  38:      1735.96   20.139992  ( -4.470664   0.391353  -0.000000)
  39:      3109.15    3.183382  (  0.217084  -1.770948  -0.000000)
  40:      3116.44    1.483536  ( -1.136882  -0.437077   0.000000)
  41:      3117.78    0.337751  (  0.000001   0.000011   0.581164)
  42:      3123.77    0.918757  (  0.451627   0.845452  -0.000000)
  43:      3194.70    0.208334  ( -0.000001  -0.000007   0.456436)
  44:      3195.51    0.444580  ( -0.150206   0.649629  -0.000000)
  45:      3470.08   85.775847  ( -9.247407   0.511187   0.000000)
  46:      3536.66   90.469844  (  0.634063   9.490406  -0.000000)
  47:      3825.61  200.937730  (-12.358050   6.943797  -0.000000)

--------------------------
THERMOCHEMISTRY AT 298.15K
--------------------------

Temperature         ... 298.15 K
Pressure            ... 1.00 atm
Total Mass          ... 101.13 AMU

Throughout the following assumptions are being made:
  (1) The electronic state is orbitally nondegenerate
  (2) There are no thermally accessible electronically excited states
  (3) Hindered rotations indicated by low frequency modes) are not
      treated as such but are treated as vibrations and this may
      case some error
  (4) All equations used are the standard statistical mechanics
      equations for an ideal gas
  (5) All vibrations are strinctly harmonic

------------
INNER ENERGY
------------

The inner energy is: U= E(el) + E(ZPE) + E(vib) + E(rot) + E(trans)
    E(el)   - is the total energy from the electronic structure calculation
              = E(kin-el) + E(nuc-el) + E(el-el) + E(nuc-nuc)
    E(ZPE)  - the the zero temperature vibrational energy from the frequency calculation
    E(vib)  - the the finite temperature correction to E(ZPE) due to population
              of excietd vibrational states
    E(rot)  - is the rotational thermal energy
    E(trans)- is the translational thermal energy

Summary of contributions to the inner energy U:
Electronic energy                ...   -341.97423758 Eh
Zero point energy                ...      0.14136946 Eh      88.71 kcal/mol
Thermal vibrational correction   ...      0.00422397 Eh       2.65 kcal/mol
Thermal rotational correction    ...      0.00141627 Eh       0.89 kcal/mol
Thermal translational correction ...      0.00141627 Eh       0.89 kcal/mol
-----------------------------------------------------------------------
Total thermal energy                   -341.82581161 Eh

Summary of corrections to the electronic energy:
(perhaps to be used in another calculation)
Total thermal correction                  0.00705651 Eh       4.43 kcal/mol
Non-thermal (ZPE) correction              0.14136946 Eh      88.71 kcal/mol
-----------------------------------------------------------------------
Total correction                          0.14842597 Eh      93.14 kcal/mol

--------
ENTHALPY
--------

The enthalpy is H = U + kB*T
                kB is Boltzmann's constant
Total free energy                 ...   -341.82581161 Eh
Thermal Enthalpy correction       ...      0.00094421 Eh       0.59 kcal/mol
-----------------------------------------------------------------------
Total Enthalpy                    ...   -341.82486741 Eh

-------
ENTROPY
-------

The entropy contributions are T*S = T*(S(el)+S(vib)+S(rot)+S(trans)
     S(el)   - electronic entropy
     S(vib)  - vibrational entropy
     S(rot)  - rotational entropy
     S(trans)- translational entropy
The entropies will be listed as mutliplied by the temperature to get
units of energy

Electronic entropy                ...      0.00000000 Eh      0.00 kcal/mol
Vibrational entropy               ...      0.00745036 Eh      4.68 kcal/mol
Rotational entropy                ...      0.01207600 Eh      7.58 kcal/mol
Translational entropy             ...      0.01888714 Eh     11.85 kcal/mol
-----------------------------------------------------------------------
Final entropy term                ...      0.03841350 Eh     24.10 kcal/mol

CAUTION: The rotational entropy is not quite correctly treated here
         because it includes a symmetry number that is not yet correctly
         implemented in ORCA!
For a nonlinear molecule the correct rotational entropy is:
    S(rot) = R*(ln(qrot/sn)+1.5)
    R    = 8.31441 J/mol/K = 1.987191683e-3 kcal/mol/K
    qrot = 240032.9865452
    sn is the rotational symmetry number. We have assumed 3 here
       if it is different for your molecule then you should correct
       the printed rotational entropy by manually evaluating the equation
       as given above

For convenience we print out the resulting values for sn=1 - 12:
 sn= 1  qrot/sn=  240032.9865 T*S(rot)=     8.23 kcal/mol T*S(tot)=    24.76 kcal/mol
 sn= 2  qrot/sn=  120016.4933 T*S(rot)=     7.82 kcal/mol T*S(tot)=    24.35 kcal/mol
 sn= 3  qrot/sn=   80010.9955 T*S(rot)=     7.58 kcal/mol T*S(tot)=    24.10 kcal/mol
 sn= 4  qrot/sn=   60008.2466 T*S(rot)=     7.41 kcal/mol T*S(tot)=    23.93 kcal/mol
 sn= 5  qrot/sn=   48006.5973 T*S(rot)=     7.28 kcal/mol T*S(tot)=    23.80 kcal/mol
 sn= 6  qrot/sn=   40005.4978 T*S(rot)=     7.17 kcal/mol T*S(tot)=    23.69 kcal/mol
 sn= 7  qrot/sn=   34290.4266 T*S(rot)=     7.08 kcal/mol T*S(tot)=    23.60 kcal/mol
 sn= 8  qrot/sn=   30004.1233 T*S(rot)=     7.00 kcal/mol T*S(tot)=    23.52 kcal/mol
 sn= 9  qrot/sn=   26670.3318 T*S(rot)=     6.93 kcal/mol T*S(tot)=    23.45 kcal/mol
 sn=10  qrot/sn=   24003.2987 T*S(rot)=     6.86 kcal/mol T*S(tot)=    23.39 kcal/mol
 sn=11  qrot/sn=   21821.1806 T*S(rot)=     6.81 kcal/mol T*S(tot)=    23.33 kcal/mol
 sn=12  qrot/sn=   20002.7489 T*S(rot)=     6.76 kcal/mol T*S(tot)=    23.28 kcal/mol

-------------------
GIBBS FREE ENTHALPY
-------------------

The Gibbs free enthalpy is G = H - T*S

Total enthalpy                    ...   -341.82486741 Eh
Total entropy correction          ...     -0.03841350 Eh    -24.10 kcal/mol
-----------------------------------------------------------------------
Final Gibbs free enthalpy         ...   -341.86328091 Eh

For completeness - the Gibbs free enthalpy minus the electronic energy
G-E(el)                           ...      0.11095668 Eh     69.63 kcal/mol

                             ****ORCA TERMINATED NORMALLY****
TOTAL RUN TIME: 0 days 0 hours 29 minutes 16 seconds 428 msec
