                         Program Version 3.0.3 - RELEASE   -
|  1> ! NORI PBE0 def2-TZVP UseSym TightOPT Freq TightSCF Grid3 FinalGrid5 XYZFile
|  2> % pal
|  3>     nprocs 8
|  4> end
|  5> %method
|  6>     SymThresh 5.0e-2
|  7> end
|  8> % geom
|  9>     MaxIter 10
| 10> end
| 11> % maxcore 2000
| 12> % output
| 13>     printlevel mini
| 14>     print[ P_Basis ] 0
| 15>     print[ P_SCFInfo ] 1
| 16>     print[ P_SCFIterInfo ] 1
| 17>     print[ P_OrbEn ] 0
| 18>     print[ P_Cartesian ] 0
| 19> end
| 20> % elprop
| 21>     Dipole false
| 22> end
| 23> *xyz 1 1
| 24>  O        0.6695356546     0.5590112439     0.5153265299
| 25>  N        1.9727912925     0.6214140099     0.8879502945
| 26>  C        2.7313480749     1.0121669373    -0.0492525482
| 27>  C        4.1924800838     1.1319972927     0.2557081810
| 28>  C        4.5455253007     2.5653658019     0.5459061012
| 29>  C        4.3913722045     3.1236297540     1.8945466110
| 30>  N        5.7550690306     2.8028989576     1.3979569840
| 31>  H        0.2153704887     0.1999305183     1.2858079621
| 32>  H        2.3465453481     1.2559200434    -1.0395097478
| 33>  H        4.7910414128     0.7687361366    -0.5843029349
| 34>  H        4.4084292550     0.5112112777     1.1307113606
| 35>  H        4.5021737471     3.2648698054    -0.2824661117
| 36>  H        4.0499041421     2.4723145751     2.6897377977
| 37>  H        4.2126497916     4.1823623233     2.0305732124
| 38>  H        6.3793152865     3.5692097380     1.1699415062
| 39>  H        6.2229588864     1.9907015850     1.7865348020
| 40> *
| 41>
| 42>                          ****END OF INPUT****
 Total Charge           Charge          ....    1
 Multiplicity           Mult            ....    1
 Number of Electrons    NEL             ....   54
FINAL SINGLE POINT ENERGY      -341.967495981467

CARTESIAN COORDINATES (ANGSTROEM)
---------------------------------
  O     -0.000664    0.000708    2.989676
  N      0.501188   -0.000239    1.729002
  C     -0.083322   -0.830672    0.970618
  C      0.380034   -0.904906   -0.451397
  C     -0.541982   -0.113537   -1.338626
  C     -0.352573    1.329333   -1.529721
  N      0.033732    0.399653   -2.623129
  H      0.556878    0.622428    3.470748
  H     -0.893407   -1.467003    1.327084
  H      0.414505   -1.943905   -0.790432
  H      1.391094   -0.489158   -0.501004
  H     -1.545821   -0.499770   -1.482033
  H      0.488585    1.810683   -1.045862
  H     -1.195281    1.963796   -1.771517
  H     -0.533522    0.379449   -3.463545
  H      1.023108    0.246790   -2.788830

FINAL SINGLE POINT ENERGY      -341.967496284763
                    ***********************HURRAY********************
 Multiplicity           Mult            ....    1
 Number of Electrons    NEL             ....   54
 Basis Dimension        Dim             ....  271
FINAL SINGLE POINT ENERGY      -341.967496384065

VIBRATIONAL FREQUENCIES
-----------------------

   0:         0.00 cm**-1
   1:         0.00 cm**-1
   2:         0.00 cm**-1
   3:         0.00 cm**-1
   4:         0.00 cm**-1
   5:         0.00 cm**-1
   6:        49.49 cm**-1
   7:        77.16 cm**-1
   8:       170.95 cm**-1
   9:       298.83 cm**-1
  10:       333.22 cm**-1
  11:       360.67 cm**-1
  12:       430.37 cm**-1
  13:       500.02 cm**-1
  14:       612.49 cm**-1
  15:       789.28 cm**-1
  16:       850.26 cm**-1
  17:       857.44 cm**-1
  18:       875.85 cm**-1
  19:       932.26 cm**-1
  20:       943.43 cm**-1
  21:       989.93 cm**-1
  22:      1023.75 cm**-1
  23:      1059.13 cm**-1
  24:      1113.29 cm**-1
  25:      1154.39 cm**-1
  26:      1170.85 cm**-1
  27:      1192.54 cm**-1
  28:      1246.54 cm**-1
  29:      1256.98 cm**-1
  30:      1285.48 cm**-1
  31:      1305.00 cm**-1
  32:      1339.67 cm**-1
  33:      1429.37 cm**-1
  34:      1452.71 cm**-1
  35:      1468.14 cm**-1
  36:      1497.28 cm**-1
  37:      1631.78 cm**-1
  38:      1737.67 cm**-1
  39:      3060.79 cm**-1
  40:      3116.73 cm**-1
  41:      3140.22 cm**-1
  42:      3171.28 cm**-1
  43:      3194.60 cm**-1
  44:      3274.74 cm**-1
  45:      3511.51 cm**-1
  46:      3615.47 cm**-1
  47:      3832.59 cm**-1

IR SPECTRUM
-----------

 Mode    freq (cm**-1)   T**2         TX         TY         TZ
-------------------------------------------------------------------
   6:        49.49    3.698748  ( -0.323334  -0.579170  -1.805205)
   7:        77.16    1.385758  ( -1.141170  -0.284076  -0.052813)
   8:       170.95    1.333990  (  1.147917  -0.127204  -0.009792)
   9:       298.83    0.350421  ( -0.430894  -0.302432  -0.270716)
  10:       333.22    3.278498  ( -0.723987  -1.627362   0.325628)
  11:       360.67    4.996965  (  0.622505  -0.472273   2.094376)
  12:       430.37    2.271393  ( -0.648762  -0.401113   1.299850)
  13:       500.02  146.668735  ( -7.369634   9.117639  -3.037417)
  14:       612.49   11.219948  ( -1.340097   0.531988   3.023421)
  15:       789.28    7.649829  ( -0.568553  -0.077691  -2.705650)
  16:       850.26   36.244685  (  1.447848  -0.345952  -5.833416)
  17:       857.44    1.567383  (  0.005083   1.101396   0.595217)
  18:       875.85    1.302441  (  1.048777  -0.386998   0.229650)
  19:       932.26   16.033479  ( -2.276016   0.651419  -3.229378)
  20:       943.43   12.707638  (  2.075136  -1.492516  -2.484722)
  21:       989.93   24.898607  (  0.685014  -4.247359   2.527707)
  22:      1023.75   76.935583  (  1.732648   8.300454  -2.244099)
  23:      1059.13   28.628279  ( -0.744966  -4.472753  -2.840385)
  24:      1113.29  149.965309  (  0.588317   2.859937  11.892853)
  25:      1154.39    2.043656  ( -1.230966  -0.686721   0.238313)
  26:      1170.85   12.181905  (  1.058551   0.670009   3.257677)
  27:      1192.54    5.240808  ( -1.394108  -1.699985  -0.638217)
  28:      1246.54    3.209554  (  1.041776  -1.105374   0.949951)
  29:      1256.98    1.527836  (  1.226560  -0.113673  -0.102301)
  30:      1285.48   33.662117  ( -1.828388  -1.749901   5.220820)
  31:      1305.00   20.573202  ( -2.171257   0.345399   3.967309)
  32:      1339.67   17.665835  ( -1.474616   0.293378   3.924955)
  33:      1429.37    8.336216  (  0.101858   0.817157   2.767327)
  34:      1452.71   41.511498  ( -2.112128   1.281689   5.950436)
  35:      1468.14   10.971645  (  3.214154  -0.373591   0.708016)
  36:      1497.28   11.236586  (  0.490824   3.315659  -0.045612)
  37:      1631.78   70.233482  ( -3.481121   0.366682   7.614514)
  38:      1737.67    9.529078  ( -0.116879   0.226989   3.076344)
  39:      3060.79    5.124203  (  0.820525   0.030275  -2.109508)
  40:      3116.73    0.515511  ( -0.197756  -0.670305   0.164605)
  41:      3140.22    3.538721  (  0.911580   0.833743  -1.418667)
  42:      3171.28    3.560854  (  0.057656  -1.768081  -0.656824)
  43:      3194.60    1.100133  (  0.805002   0.614796  -0.272271)
  44:      3274.74    6.964789  ( -2.446537   0.051072  -0.988248)
  45:      3511.51  120.708355  ( -3.381989   1.281670  10.374383)
  46:      3615.47  126.717192  ( -9.900085   0.874754  -5.285859)
  47:      3832.59  169.512619  (  4.905784   6.615581  10.083649)

--------------------------
THERMOCHEMISTRY AT 298.15K
--------------------------

Temperature         ... 298.15 K
Pressure            ... 1.00 atm
Total Mass          ... 101.13 AMU

Throughout the following assumptions are being made:
  (1) The electronic state is orbitally nondegenerate
  (2) There are no thermally accessible electronically excited states
  (3) Hindered rotations indicated by low frequency modes) are not
      treated as such but are treated as vibrations and this may
      case some error
  (4) All equations used are the standard statistical mechanics
      equations for an ideal gas
  (5) All vibrations are strinctly harmonic

------------
INNER ENERGY
------------

The inner energy is: U= E(el) + E(ZPE) + E(vib) + E(rot) + E(trans)
    E(el)   - is the total energy from the electronic structure calculation
              = E(kin-el) + E(nuc-el) + E(el-el) + E(nuc-nuc)
    E(ZPE)  - the the zero temperature vibrational energy from the frequency calculation
    E(vib)  - the the finite temperature correction to E(ZPE) due to population
              of excietd vibrational states
    E(rot)  - is the rotational thermal energy
    E(trans)- is the translational thermal energy

Summary of contributions to the inner energy U:
Electronic energy                ...   -341.96749638 Eh
Zero point energy                ...      0.13977500 Eh      87.71 kcal/mol
Thermal vibrational correction   ...      0.00466404 Eh       2.93 kcal/mol
Thermal rotational correction    ...      0.00141627 Eh       0.89 kcal/mol
Thermal translational correction ...      0.00141627 Eh       0.89 kcal/mol
-----------------------------------------------------------------------
Total thermal energy                   -341.82022480 Eh

Summary of corrections to the electronic energy:
(perhaps to be used in another calculation)
Total thermal correction                  0.00749658 Eh       4.70 kcal/mol
Non-thermal (ZPE) correction              0.13977500 Eh      87.71 kcal/mol
-----------------------------------------------------------------------
Total correction                          0.14727158 Eh      92.41 kcal/mol

--------
ENTHALPY
--------

The enthalpy is H = U + kB*T
                kB is Boltzmann's constant
Total free energy                 ...   -341.82022480 Eh
Thermal Enthalpy correction       ...      0.00094421 Eh       0.59 kcal/mol
-----------------------------------------------------------------------
Total Enthalpy                    ...   -341.81928059 Eh

-------
ENTROPY
-------

The entropy contributions are T*S = T*(S(el)+S(vib)+S(rot)+S(trans)
     S(el)   - electronic entropy
     S(vib)  - vibrational entropy
     S(rot)  - rotational entropy
     S(trans)- translational entropy
The entropies will be listed as mutliplied by the temperature to get
units of energy

Electronic entropy                ...      0.00000000 Eh      0.00 kcal/mol
Vibrational entropy               ...      0.00882244 Eh      5.54 kcal/mol
Rotational entropy                ...      0.01217465 Eh      7.64 kcal/mol
Translational entropy             ...      0.01888714 Eh     11.85 kcal/mol
-----------------------------------------------------------------------
Final entropy term                ...      0.03988423 Eh     25.03 kcal/mol

CAUTION: The rotational entropy is not quite correctly treated here
         because it includes a symmetry number that is not yet correctly
         implemented in ORCA!
For a nonlinear molecule the correct rotational entropy is:
    S(rot) = R*(ln(qrot/sn)+1.5)
    R    = 8.31441 J/mol/K = 1.987191683e-3 kcal/mol/K
    qrot = 266469.1858546
    sn is the rotational symmetry number. We have assumed 3 here
       if it is different for your molecule then you should correct
       the printed rotational entropy by manually evaluating the equation
       as given above

For convenience we print out the resulting values for sn=1 - 12:
 sn= 1  qrot/sn=  266469.1859 T*S(rot)=     8.29 kcal/mol T*S(tot)=    25.68 kcal/mol
 sn= 2  qrot/sn=  133234.5929 T*S(rot)=     7.88 kcal/mol T*S(tot)=    25.27 kcal/mol
 sn= 3  qrot/sn=   88823.0620 T*S(rot)=     7.64 kcal/mol T*S(tot)=    25.03 kcal/mol
 sn= 4  qrot/sn=   66617.2965 T*S(rot)=     7.47 kcal/mol T*S(tot)=    24.86 kcal/mol
 sn= 5  qrot/sn=   53293.8372 T*S(rot)=     7.34 kcal/mol T*S(tot)=    24.73 kcal/mol
 sn= 6  qrot/sn=   44411.5310 T*S(rot)=     7.23 kcal/mol T*S(tot)=    24.62 kcal/mol
 sn= 7  qrot/sn=   38067.0266 T*S(rot)=     7.14 kcal/mol T*S(tot)=    24.53 kcal/mol
 sn= 8  qrot/sn=   33308.6482 T*S(rot)=     7.06 kcal/mol T*S(tot)=    24.45 kcal/mol
 sn= 9  qrot/sn=   29607.6873 T*S(rot)=     6.99 kcal/mol T*S(tot)=    24.38 kcal/mol
 sn=10  qrot/sn=   26646.9186 T*S(rot)=     6.93 kcal/mol T*S(tot)=    24.31 kcal/mol
 sn=11  qrot/sn=   24224.4714 T*S(rot)=     6.87 kcal/mol T*S(tot)=    24.26 kcal/mol
 sn=12  qrot/sn=   22205.7655 T*S(rot)=     6.82 kcal/mol T*S(tot)=    24.21 kcal/mol

-------------------
GIBBS FREE ENTHALPY
-------------------

The Gibbs free enthalpy is G = H - T*S

Total enthalpy                    ...   -341.81928059 Eh
Total entropy correction          ...     -0.03988423 Eh    -25.03 kcal/mol
-----------------------------------------------------------------------
Final Gibbs free enthalpy         ...   -341.85916482 Eh

For completeness - the Gibbs free enthalpy minus the electronic energy
G-E(el)                           ...      0.10833156 Eh     67.98 kcal/mol

                             ****ORCA TERMINATED NORMALLY****
TOTAL RUN TIME: 0 days 0 hours 26 minutes 40 seconds 694 msec
