                         Program Version 3.0.3 - RELEASE   -
|  1> ! NORI PBE0 def2-TZVP UseSym TightOPT Freq TightSCF Grid3 FinalGrid5 XYZFile
|  2> % pal
|  3>     nprocs 8
|  4> end
|  5> %method
|  6>     SymThresh 5.0e-2
|  7> end
|  8> % geom
|  9>     MaxIter 10
| 10> end
| 11> % maxcore 2000
| 12> % output
| 13>     printlevel mini
| 14>     print[ P_Basis ] 0
| 15>     print[ P_SCFInfo ] 1
| 16>     print[ P_SCFIterInfo ] 1
| 17>     print[ P_OrbEn ] 0
| 18>     print[ P_Cartesian ] 0
| 19> end
| 20> % elprop
| 21>     Dipole false
| 22> end
| 23> *xyz 1 1
| 24>  O        1.7851821495    -1.0116519432    -2.2852166747
| 25>  N        2.8819356512    -0.5082727779    -1.6874954078
| 26>  C        2.7774295480     0.7292584760    -1.4198203442
| 27>  C        3.9510402835     1.3618883364    -0.7608614047
| 28>  N        4.8067370785     2.0817962209    -1.7472533161
| 29>  C        6.2646228857     2.2193810311    -1.5441216846
| 30>  C        5.7506881108     1.3328702310    -2.6005299115
| 31>  H        1.9701658449    -1.9528481169    -2.3905637721
| 32>  H        1.8768811125     1.2997856068    -1.6459161284
| 33>  H        3.6622832591     2.0927877184    -0.0032362839
| 34>  H        4.5781150916     0.5963139641    -0.3029093702
| 35>  H        4.3530981557     2.8721493508    -2.1952115525
| 36>  H        6.6722888610     3.1871007328    -1.8064913261
| 37>  H        6.6155866906     1.7889351569    -0.6150773807
| 38>  H        5.7868546664     1.6557934332    -3.6329895680
| 39>  H        5.7207606109     0.2629725795    -2.4338858744
| 40> *
| 41>
| 42>                          ****END OF INPUT****
 Total Charge           Charge          ....    1
 Multiplicity           Mult            ....    1
 Number of Electrons    NEL             ....   54
FINAL SINGLE POINT ENERGY      -341.961529225165
FINAL SINGLE POINT ENERGY      -341.961530327073

CARTESIAN COORDINATES (ANGSTROEM)
---------------------------------
  O     -0.000038    0.001157    2.932124
  N      0.492101    0.000797    1.678692
  C     -0.078942    0.845760    0.920976
  C      0.406883    0.905110   -0.483359
  N     -0.478778    0.130535   -1.399374
  C      0.051718   -0.514335   -2.619720
  C     -0.368531   -1.339592   -1.475709
  H      0.543592   -0.635364    3.412025
  H     -0.871680    1.503926    1.276210
  H      0.443329    1.925144   -0.870227
  H      1.398463    0.457488   -0.553320
  H     -1.422547    0.497439   -1.476170
  H     -0.587091   -0.437942   -3.490132
  H      1.106110   -0.332372   -2.783783
  H     -1.313297   -1.865857   -1.515273
  H      0.379077   -1.747284   -0.807042

FINAL SINGLE POINT ENERGY      -341.961530636124
                    ***********************HURRAY********************
 Multiplicity           Mult            ....    1
 Number of Electrons    NEL             ....   54
 Basis Dimension        Dim             ....  271
FINAL SINGLE POINT ENERGY      -341.961530879568

VIBRATIONAL FREQUENCIES
-----------------------

   0:         0.00 cm**-1
   1:         0.00 cm**-1
   2:         0.00 cm**-1
   3:         0.00 cm**-1
   4:         0.00 cm**-1
   5:         0.00 cm**-1
   6:        61.40 cm**-1
   7:        79.43 cm**-1
   8:       184.84 cm**-1
   9:       291.08 cm**-1
  10:       335.43 cm**-1
  11:       362.79 cm**-1
  12:       445.11 cm**-1
  13:       536.69 cm**-1
  14:       618.26 cm**-1
  15:       780.38 cm**-1
  16:       818.99 cm**-1
  17:       871.73 cm**-1
  18:       917.36 cm**-1
  19:       934.54 cm**-1
  20:       980.59 cm**-1
  21:      1001.61 cm**-1
  22:      1098.97 cm**-1
  23:      1138.75 cm**-1
  24:      1150.49 cm**-1
  25:      1154.02 cm**-1
  26:      1178.06 cm**-1
  27:      1195.33 cm**-1
  28:      1214.77 cm**-1
  29:      1268.44 cm**-1
  30:      1292.70 cm**-1
  31:      1319.24 cm**-1
  32:      1377.02 cm**-1
  33:      1456.28 cm**-1
  34:      1460.47 cm**-1
  35:      1471.44 cm**-1
  36:      1482.40 cm**-1
  37:      1519.43 cm**-1
  38:      1725.44 cm**-1
  39:      3096.42 cm**-1
  40:      3141.14 cm**-1
  41:      3162.48 cm**-1
  42:      3172.64 cm**-1
  43:      3174.13 cm**-1
  44:      3270.07 cm**-1
  45:      3279.84 cm**-1
  46:      3540.64 cm**-1
  47:      3818.31 cm**-1

IR SPECTRUM
-----------

 Mode    freq (cm**-1)   T**2         TX         TY         TZ
-------------------------------------------------------------------
   6:        61.40    0.965818  ( -0.063102  -0.441314  -0.875830)
   7:        79.43    1.812682  ( -0.034257  -0.742261   1.122745)
   8:       184.84    0.188610  (  0.173812  -0.293855  -0.268419)
   9:       291.08    1.055423  (  0.122151   0.985109  -0.264695)
  10:       335.43    4.813554  (  1.856413  -1.051713   0.511063)
  11:       362.79    2.231644  ( -0.106585  -0.163197  -1.481098)
  12:       445.11    3.238108  ( -0.175677   0.533670   1.709515)
  13:       536.69  147.533254  ( -7.621349  -8.920649  -3.141707)
  14:       618.26   15.270088  (  1.338238   0.878944  -3.564641)
  15:       780.38    0.513678  (  0.256068   0.493574  -0.452208)
  16:       818.99    5.925840  (  1.408025  -1.926746  -0.480576)
  17:       871.73    3.763754  ( -0.235128   1.240831  -1.472687)
  18:       917.36    8.821435  ( -1.264571  -0.966519  -2.507616)
  19:       934.54   20.812355  ( -1.885039   0.040655  -4.154194)
  20:       980.59   97.460583  ( -1.701643   2.196793   9.473072)
  21:      1001.61   52.468935  ( -2.159702  -6.713885  -1.651776)
  22:      1098.97   14.730964  (  1.157150  -0.777106   3.576042)
  23:      1138.75  106.222771  ( -1.447344   3.634842  -9.534982)
  24:      1150.49   24.446697  ( -0.687103  -1.661089   4.606014)
  25:      1154.02    4.037106  (  0.370016  -0.146819  -1.969426)
  26:      1178.06    2.118975  (  0.129465   0.350120  -1.406993)
  27:      1195.33   14.426488  (  0.256240  -2.151106   3.119867)
  28:      1214.77   11.772741  (  0.401709   2.015107  -2.747857)
  29:      1268.44   27.943199  (  0.821854  -2.648329  -4.500457)
  30:      1292.70   45.998339  ( -2.845376   0.615534   6.125626)
  31:      1319.24   11.687094  (  1.728330  -1.045080   2.758220)
  32:      1377.02    6.096996  ( -1.499542   0.112142   1.958518)
  33:      1456.28   26.223393  (  2.337467   3.720688  -2.629852)
  34:      1460.47   83.593952  (  1.539577  -1.623984  -8.864893)
  35:      1471.44    7.346062  (  2.616816   0.680339   0.188345)
  36:      1482.40   17.061439  (  0.087515   2.402427  -3.358888)
  37:      1519.43    5.644623  ( -1.808580  -0.943420  -1.218039)
  38:      1725.44   24.206424  (  0.218976  -0.908189   4.830494)
  39:      3096.42    1.160776  ( -0.043220   0.224631  -1.052829)
  40:      3141.14    0.857496  ( -0.614103   0.281920   0.633163)
  41:      3162.48    0.746644  (  0.287315  -0.005174   0.814903)
  42:      3172.64    4.711658  (  0.467211   1.191834  -1.752970)
  43:      3174.13    1.446873  ( -0.256346   1.012822   0.596114)
  44:      3270.07    0.057214  (  0.002266  -0.063348   0.230642)
  45:      3279.84   13.039380  ( -3.220199  -0.171147  -1.624933)
  46:      3540.64   86.113826  ( -8.236623   4.248836  -0.468254)
  47:      3818.31  193.589060  ( -5.054517   7.138617 -10.820401)

--------------------------
THERMOCHEMISTRY AT 298.15K
--------------------------

Temperature         ... 298.15 K
Pressure            ... 1.00 atm
Total Mass          ... 101.13 AMU

Throughout the following assumptions are being made:
  (1) The electronic state is orbitally nondegenerate
  (2) There are no thermally accessible electronically excited states
  (3) Hindered rotations indicated by low frequency modes) are not
      treated as such but are treated as vibrations and this may
      case some error
  (4) All equations used are the standard statistical mechanics
      equations for an ideal gas
  (5) All vibrations are strinctly harmonic

------------
INNER ENERGY
------------

The inner energy is: U= E(el) + E(ZPE) + E(vib) + E(rot) + E(trans)
    E(el)   - is the total energy from the electronic structure calculation
              = E(kin-el) + E(nuc-el) + E(el-el) + E(nuc-nuc)
    E(ZPE)  - the the zero temperature vibrational energy from the frequency calculation
    E(vib)  - the the finite temperature correction to E(ZPE) due to population
              of excietd vibrational states
    E(rot)  - is the rotational thermal energy
    E(trans)- is the translational thermal energy

Summary of contributions to the inner energy U:
Electronic energy                ...   -341.96153088 Eh
Zero point energy                ...      0.13983200 Eh      87.75 kcal/mol
Thermal vibrational correction   ...      0.00454563 Eh       2.85 kcal/mol
Thermal rotational correction    ...      0.00141627 Eh       0.89 kcal/mol
Thermal translational correction ...      0.00141627 Eh       0.89 kcal/mol
-----------------------------------------------------------------------
Total thermal energy                   -341.81432071 Eh

Summary of corrections to the electronic energy:
(perhaps to be used in another calculation)
Total thermal correction                  0.00737817 Eh       4.63 kcal/mol
Non-thermal (ZPE) correction              0.13983200 Eh      87.75 kcal/mol
-----------------------------------------------------------------------
Total correction                          0.14721017 Eh      92.38 kcal/mol

--------
ENTHALPY
--------

The enthalpy is H = U + kB*T
                kB is Boltzmann's constant
Total free energy                 ...   -341.81432071 Eh
Thermal Enthalpy correction       ...      0.00094421 Eh       0.59 kcal/mol
-----------------------------------------------------------------------
Total Enthalpy                    ...   -341.81337650 Eh

-------
ENTROPY
-------

The entropy contributions are T*S = T*(S(el)+S(vib)+S(rot)+S(trans)
     S(el)   - electronic entropy
     S(vib)  - vibrational entropy
     S(rot)  - rotational entropy
     S(trans)- translational entropy
The entropies will be listed as mutliplied by the temperature to get
units of energy

Electronic entropy                ...      0.00000000 Eh      0.00 kcal/mol
Vibrational entropy               ...      0.00843121 Eh      5.29 kcal/mol
Rotational entropy                ...      0.01213871 Eh      7.62 kcal/mol
Translational entropy             ...      0.01888714 Eh     11.85 kcal/mol
-----------------------------------------------------------------------
Final entropy term                ...      0.03945706 Eh     24.76 kcal/mol

CAUTION: The rotational entropy is not quite correctly treated here
         because it includes a symmetry number that is not yet correctly
         implemented in ORCA!
For a nonlinear molecule the correct rotational entropy is:
    S(rot) = R*(ln(qrot/sn)+1.5)
    R    = 8.31441 J/mol/K = 1.987191683e-3 kcal/mol/K
    qrot = 256517.0706275
    sn is the rotational symmetry number. We have assumed 3 here
       if it is different for your molecule then you should correct
       the printed rotational entropy by manually evaluating the equation
       as given above

For convenience we print out the resulting values for sn=1 - 12:
 sn= 1  qrot/sn=  256517.0706 T*S(rot)=     8.27 kcal/mol T*S(tot)=    25.41 kcal/mol
 sn= 2  qrot/sn=  128258.5353 T*S(rot)=     7.86 kcal/mol T*S(tot)=    25.00 kcal/mol
 sn= 3  qrot/sn=   85505.6902 T*S(rot)=     7.62 kcal/mol T*S(tot)=    24.76 kcal/mol
 sn= 4  qrot/sn=   64129.2677 T*S(rot)=     7.45 kcal/mol T*S(tot)=    24.59 kcal/mol
 sn= 5  qrot/sn=   51303.4141 T*S(rot)=     7.31 kcal/mol T*S(tot)=    24.46 kcal/mol
 sn= 6  qrot/sn=   42752.8451 T*S(rot)=     7.21 kcal/mol T*S(tot)=    24.35 kcal/mol
 sn= 7  qrot/sn=   36645.2958 T*S(rot)=     7.12 kcal/mol T*S(tot)=    24.26 kcal/mol
 sn= 8  qrot/sn=   32064.6338 T*S(rot)=     7.04 kcal/mol T*S(tot)=    24.18 kcal/mol
 sn= 9  qrot/sn=   28501.8967 T*S(rot)=     6.97 kcal/mol T*S(tot)=    24.11 kcal/mol
 sn=10  qrot/sn=   25651.7071 T*S(rot)=     6.90 kcal/mol T*S(tot)=    24.05 kcal/mol
 sn=11  qrot/sn=   23319.7337 T*S(rot)=     6.85 kcal/mol T*S(tot)=    23.99 kcal/mol
 sn=12  qrot/sn=   21376.4226 T*S(rot)=     6.80 kcal/mol T*S(tot)=    23.94 kcal/mol

-------------------
GIBBS FREE ENTHALPY
-------------------

The Gibbs free enthalpy is G = H - T*S

Total enthalpy                    ...   -341.81337650 Eh
Total entropy correction          ...     -0.03945706 Eh    -24.76 kcal/mol
-----------------------------------------------------------------------
Final Gibbs free enthalpy         ...   -341.85283356 Eh

For completeness - the Gibbs free enthalpy minus the electronic energy
G-E(el)                           ...      0.10869732 Eh     68.21 kcal/mol

                             ****ORCA TERMINATED NORMALLY****
TOTAL RUN TIME: 0 days 0 hours 30 minutes 7 seconds 199 msec
