                         Program Version 3.0.3 - RELEASE   -
|  1> ! NORI PBE0 def2-TZVP UseSym TightOPT Freq TightSCF Grid3 FinalGrid5 XYZFile
|  2> % pal
|  3>     nprocs 8
|  4> end
|  5> %method
|  6>     SymThresh 5.0e-2
|  7> end
|  8> % geom
|  9>     MaxIter 10
| 10> end
| 11> % maxcore 2000
| 12> % output
| 13>     printlevel mini
| 14>     print[ P_Basis ] 0
| 15>     print[ P_SCFInfo ] 1
| 16>     print[ P_SCFIterInfo ] 1
| 17>     print[ P_OrbEn ] 0
| 18>     print[ P_Cartesian ] 0
| 19> end
| 20> % elprop
| 21>     Dipole false
| 22> end
| 23> *xyz 1 1
| 24>  C        0.9691911894     0.1280542520     0.0491056987
| 25>  C        2.4565268113     0.0028673245     0.0136964839
| 26>  N        3.2320595233     1.0417326269     0.8274396112
| 27>  C        4.3165656096     0.1574559435     1.3821739015
| 28>  S        3.2708562058    -1.2987186600     1.0260331654
| 29>  O        2.4578831130    -1.5633530978     2.1649803285
| 30>  O        3.9235263923    -2.2965756460     0.2607585650
| 31>  H        0.6396743387     1.0553159792    -0.4264365194
| 32>  H        0.5872581998     0.0741333207     1.0707126755
| 33>  H        0.5346204550    -0.6986363353    -0.5171032113
| 34>  H        2.8887703363    -0.0171198495    -0.9888015742
| 35>  H        2.6412077346     1.4149358938     1.5742215615
| 36>  H        3.5774130030     1.8257965601     0.2715401596
| 37>  H        4.5386077663     0.3468057733     2.4296726944
| 38>  H        5.2009993217     0.1927159147     0.7486664596
| 39> *
| 40>
| 41>                          ****END OF INPUT****
 Total Charge           Charge          ....    1
 Multiplicity           Mult            ....    1
 Number of Electrons    NEL             ....   64
FINAL SINGLE POINT ENERGY      -721.858832164023
FINAL SINGLE POINT ENERGY      -721.858832696101

CARTESIAN COORDINATES (ANGSTROEM)
---------------------------------
  C      0.593073    1.489476   -1.679452
  C     -0.360043    0.560746   -1.002474
  N     -0.286741   -0.905232   -1.437505
  C     -0.478489   -1.566715   -0.098981
  S      0.000219    0.000013    0.711499
  O      1.411729   -0.000425    0.901343
  O     -0.935548    0.454966    1.672806
  H      0.369268    1.575722   -2.745621
  H      1.628666    1.174075   -1.537403
  H      0.480924    2.484192   -1.242805
  H     -1.407464    0.864929   -1.054511
  H      0.638144   -1.110806   -1.822465
  H     -0.987427   -1.163355   -2.134053
  H      0.180630   -2.415944    0.065255
  H     -1.527981   -1.807664    0.062039

FINAL SINGLE POINT ENERGY      -721.858832896974
                    ***********************HURRAY********************
 Multiplicity           Mult            ....    1
 Number of Electrons    NEL             ....   64
 Basis Dimension        Dim             ....  271
FINAL SINGLE POINT ENERGY      -721.858832930698

VIBRATIONAL FREQUENCIES
-----------------------

   0:         0.00 cm**-1
   1:         0.00 cm**-1
   2:         0.00 cm**-1
   3:         0.00 cm**-1
   4:         0.00 cm**-1
   5:         0.00 cm**-1
   6:        95.98 cm**-1
   7:       190.12 cm**-1
   8:       211.03 cm**-1
   9:       239.49 cm**-1
  10:       311.93 cm**-1
  11:       405.47 cm**-1
  12:       425.73 cm**-1
  13:       497.31 cm**-1
  14:       622.19 cm**-1
  15:       676.46 cm**-1
  16:       726.83 cm**-1
  17:       817.50 cm**-1
  18:       852.20 cm**-1
  19:       919.94 cm**-1
  20:       948.34 cm**-1
  21:      1004.34 cm**-1
  22:      1038.60 cm**-1
  23:      1093.39 cm**-1
  24:      1172.61 cm**-1
  25:      1204.34 cm**-1
  26:      1233.33 cm**-1
  27:      1279.24 cm**-1
  28:      1296.02 cm**-1
  29:      1325.35 cm**-1
  30:      1373.01 cm**-1
  31:      1414.88 cm**-1
  32:      1459.53 cm**-1
  33:      1468.34 cm**-1
  34:      1477.02 cm**-1
  35:      1488.54 cm**-1
  36:      1637.04 cm**-1
  37:      3059.70 cm**-1
  38:      3122.37 cm**-1
  39:      3125.59 cm**-1
  40:      3141.93 cm**-1
  41:      3153.10 cm**-1
  42:      3215.28 cm**-1
  43:      3440.04 cm**-1
  44:      3507.83 cm**-1

IR SPECTRUM
-----------

 Mode    freq (cm**-1)   T**2         TX         TY         TZ
-------------------------------------------------------------------
   6:        95.98    1.473670  (  0.798991   0.018622   0.913749)
   7:       190.12    2.225617  ( -0.394542  -0.715693   1.248094)
   8:       211.03    3.925197  (  0.015454  -1.478338   1.318892)
   9:       239.49    2.555426  ( -0.772618  -1.316405   0.474936)
  10:       311.93    2.254231  (  0.380096   1.427755  -0.266973)
  11:       405.47    8.167949  ( -0.402104  -2.185824  -1.796785)
  12:       425.73   23.874542  ( -1.847373  -1.075661  -4.393713)
  13:       497.31    9.153468  ( -0.745157  -2.535972   1.472092)
  14:       622.19   11.284441  ( -0.111333  -1.692482  -2.899578)
  15:       676.46   26.719190  (  1.742525  -2.079967   4.399606)
  16:       726.83   36.914938  (  2.112612   5.627089  -0.887515)
  17:       817.50   25.445869  ( -0.102477  -4.607470   2.050997)
  18:       852.20    4.725305  ( -1.924606   0.509150  -0.872904)
  19:       919.94   10.259528  (  0.738509   2.929783  -1.063250)
  20:       948.34    4.005928  ( -0.001808  -1.567627   1.244376)
  21:      1004.34    3.360064  ( -0.940505   1.093722  -1.131055)
  22:      1038.60    9.349584  (  0.233879  -2.760704  -1.293600)
  23:      1093.39    7.552559  ( -0.347899  -2.511234  -1.060768)
  24:      1172.61   13.898108  ( -0.178003  -3.723762   0.004654)
  25:      1204.34   40.672192  ( -1.837097   0.010888  -6.107139)
  26:      1233.33   46.706411  ( -3.008333  -3.309834  -5.167334)
  27:      1279.24   54.465385  (  3.350226   3.372842   5.644936)
  28:      1296.02   19.215509  ( -0.888753   1.559754  -3.999099)
  29:      1325.35   41.852878  (  0.304479  -6.005764   2.385574)
  30:      1373.01   12.634306  ( -0.680716  -3.468473   0.375003)
  31:      1414.88   13.737458  ( -2.426784  -2.137879   1.810429)
  32:      1459.53   19.440014  (  1.180783   4.193778  -0.676749)
  33:      1468.34   55.786011  ( -5.969221   2.478928   3.742904)
  34:      1477.02   26.115274  (  4.436606  -0.545816   2.476668)
  35:      1488.54  131.958778  ( 10.116921  -2.242022  -4.957824)
  36:      1637.04   58.874614  ( -1.539472   3.551252   6.625198)
  37:      3059.70    4.287427  ( -0.643980  -1.960463  -0.171177)
  38:      3122.37    7.278676  ( -0.561060   2.473598  -0.919347)
  39:      3125.59    6.100769  ( -1.254141  -2.116989   0.215079)
  40:      3141.93    1.552975  (  0.282615   1.139362   0.418279)
  41:      3153.10    2.436840  ( -0.385484   1.467365  -0.367535)
  42:      3215.28   11.041049  ( -3.041567   1.334486   0.095223)
  43:      3440.04   88.246847  ( -2.139904   4.146754   8.153042)
  44:      3507.83  109.482607  (  9.831752   1.273070   3.346423)

--------------------------
THERMOCHEMISTRY AT 298.15K
--------------------------

Temperature         ... 298.15 K
Pressure            ... 1.00 atm
Total Mass          ... 122.16 AMU

Throughout the following assumptions are being made:
  (1) The electronic state is orbitally nondegenerate
  (2) There are no thermally accessible electronically excited states
  (3) Hindered rotations indicated by low frequency modes) are not
      treated as such but are treated as vibrations and this may
      case some error
  (4) All equations used are the standard statistical mechanics
      equations for an ideal gas
  (5) All vibrations are strinctly harmonic

------------
INNER ENERGY
------------

The inner energy is: U= E(el) + E(ZPE) + E(vib) + E(rot) + E(trans)
    E(el)   - is the total energy from the electronic structure calculation
              = E(kin-el) + E(nuc-el) + E(el-el) + E(nuc-nuc)
    E(ZPE)  - the the zero temperature vibrational energy from the frequency calculation
    E(vib)  - the the finite temperature correction to E(ZPE) due to population
              of excietd vibrational states
    E(rot)  - is the rotational thermal energy
    E(trans)- is the translational thermal energy

Summary of contributions to the inner energy U:
Electronic energy                ...   -721.85883293 Eh
Zero point energy                ...      0.12455188 Eh      78.16 kcal/mol
Thermal vibrational correction   ...      0.00440795 Eh       2.77 kcal/mol
Thermal rotational correction    ...      0.00141627 Eh       0.89 kcal/mol
Thermal translational correction ...      0.00141627 Eh       0.89 kcal/mol
-----------------------------------------------------------------------
Total thermal energy                   -721.72704055 Eh

Summary of corrections to the electronic energy:
(perhaps to be used in another calculation)
Total thermal correction                  0.00724050 Eh       4.54 kcal/mol
Non-thermal (ZPE) correction              0.12455188 Eh      78.16 kcal/mol
-----------------------------------------------------------------------
Total correction                          0.13179238 Eh      82.70 kcal/mol

--------
ENTHALPY
--------

The enthalpy is H = U + kB*T
                kB is Boltzmann's constant
Total free energy                 ...   -721.72704055 Eh
Thermal Enthalpy correction       ...      0.00094421 Eh       0.59 kcal/mol
-----------------------------------------------------------------------
Total Enthalpy                    ...   -721.72609635 Eh

-------
ENTROPY
-------

The entropy contributions are T*S = T*(S(el)+S(vib)+S(rot)+S(trans)
     S(el)   - electronic entropy
     S(vib)  - vibrational entropy
     S(rot)  - rotational entropy
     S(trans)- translational entropy
The entropies will be listed as mutliplied by the temperature to get
units of energy

Electronic entropy                ...      0.00000000 Eh      0.00 kcal/mol
Vibrational entropy               ...      0.00741360 Eh      4.65 kcal/mol
Rotational entropy                ...      0.01208187 Eh      7.58 kcal/mol
Translational entropy             ...      0.01915475 Eh     12.02 kcal/mol
-----------------------------------------------------------------------
Final entropy term                ...      0.03865022 Eh     24.25 kcal/mol

CAUTION: The rotational entropy is not quite correctly treated here
         because it includes a symmetry number that is not yet correctly
         implemented in ORCA!
For a nonlinear molecule the correct rotational entropy is:
    S(rot) = R*(ln(qrot/sn)+1.5)
    R    = 8.31441 J/mol/K = 1.987191683e-3 kcal/mol/K
    qrot = 241530.9775553
    sn is the rotational symmetry number. We have assumed 3 here
       if it is different for your molecule then you should correct
       the printed rotational entropy by manually evaluating the equation
       as given above

For convenience we print out the resulting values for sn=1 - 12:
 sn= 1  qrot/sn=  241530.9776 T*S(rot)=     8.23 kcal/mol T*S(tot)=    24.90 kcal/mol
 sn= 2  qrot/sn=  120765.4888 T*S(rot)=     7.82 kcal/mol T*S(tot)=    24.49 kcal/mol
 sn= 3  qrot/sn=   80510.3259 T*S(rot)=     7.58 kcal/mol T*S(tot)=    24.25 kcal/mol
 sn= 4  qrot/sn=   60382.7444 T*S(rot)=     7.41 kcal/mol T*S(tot)=    24.08 kcal/mol
 sn= 5  qrot/sn=   48306.1955 T*S(rot)=     7.28 kcal/mol T*S(tot)=    23.95 kcal/mol
 sn= 6  qrot/sn=   40255.1629 T*S(rot)=     7.17 kcal/mol T*S(tot)=    23.84 kcal/mol
 sn= 7  qrot/sn=   34504.4254 T*S(rot)=     7.08 kcal/mol T*S(tot)=    23.75 kcal/mol
 sn= 8  qrot/sn=   30191.3722 T*S(rot)=     7.00 kcal/mol T*S(tot)=    23.67 kcal/mol
 sn= 9  qrot/sn=   26836.7753 T*S(rot)=     6.93 kcal/mol T*S(tot)=    23.60 kcal/mol
 sn=10  qrot/sn=   24153.0978 T*S(rot)=     6.87 kcal/mol T*S(tot)=    23.54 kcal/mol
 sn=11  qrot/sn=   21957.3616 T*S(rot)=     6.81 kcal/mol T*S(tot)=    23.48 kcal/mol
 sn=12  qrot/sn=   20127.5815 T*S(rot)=     6.76 kcal/mol T*S(tot)=    23.43 kcal/mol

-------------------
GIBBS FREE ENTHALPY
-------------------

The Gibbs free enthalpy is G = H - T*S

Total enthalpy                    ...   -721.72609635 Eh
Total entropy correction          ...     -0.03865022 Eh    -24.25 kcal/mol
-----------------------------------------------------------------------
Final Gibbs free enthalpy         ...   -721.76474656 Eh

For completeness - the Gibbs free enthalpy minus the electronic energy
G-E(el)                           ...      0.09408637 Eh     59.04 kcal/mol

                             ****ORCA TERMINATED NORMALLY****
TOTAL RUN TIME: 0 days 0 hours 30 minutes 16 seconds 837 msec
