                         Program Version 3.0.3 - RELEASE   -
|  1> ! NORI PBE0 def2-TZVP UseSym TightOPT Freq TightSCF Grid3 FinalGrid5 XYZFile
|  2> % pal
|  3>     nprocs 8
|  4> end
|  5> %method
|  6>     SymThresh 5.0e-2
|  7> end
|  8> % geom
|  9>     MaxIter 10
| 10> end
| 11> % maxcore 2000
| 12> % output
| 13>     printlevel mini
| 14>     print[ P_Basis ] 0
| 15>     print[ P_SCFInfo ] 1
| 16>     print[ P_SCFIterInfo ] 1
| 17>     print[ P_OrbEn ] 0
| 18>     print[ P_Cartesian ] 0
| 19> end
| 20> % elprop
| 21>     Dipole false
| 22> end
| 23> *xyz 1 1
| 24>  C        1.0136887966    -0.0579034296     0.5095615524
| 25>  N        2.3772647879     0.0369491456    -0.0864022681
| 26>  C        3.2097682444     1.1740774590     0.4631997264
| 27>  S        4.1608566408    -0.0164063029     1.4674002663
| 28>  O        3.5612878664    -0.1363019407     2.7518329349
| 29>  O        5.5571577670     0.0513950751     1.2411814077
| 30>  C        3.2923005161    -1.1073330301     0.2904304921
| 31>  H        0.5221078437    -0.9434406537     0.1094568859
| 32>  H        0.4554243092     0.8380367018     0.2411863758
| 33>  H        1.1174465885    -0.1339204491     1.5913433997
| 34>  H        2.2901506179     0.1106864225    -1.1003486630
| 35>  H        2.6216274546     1.9086453054     1.0090321542
| 36>  H        3.8219869037     1.6218540109    -0.3186875362
| 37>  H        3.9300751908    -1.3887005459    -0.5465218332
| 38>  H        2.7611164726    -1.9555277684     0.7169551050
| 39> *
| 40>
| 41>                          ****END OF INPUT****
 Total Charge           Charge          ....    1
 Multiplicity           Mult            ....    1
 Number of Electrons    NEL             ....   64
FINAL SINGLE POINT ENERGY      -721.846747249996

CARTESIAN COORDINATES (ANGSTROEM)
---------------------------------
  C     -2.353321   -0.800390   -0.000000
  N     -1.491304    0.416613   -0.000000
  C     -0.503568    0.469020    1.144683
  S      0.837865   -0.000052    0.000000
  O      0.985049   -1.414982   -0.000000
  O      1.918556    0.915078    0.000000
  C     -0.503568    0.469020   -1.144683
  H     -2.975276   -0.783863   -0.893647
  H     -2.975276   -0.783863    0.893647
  H     -1.707282   -1.677377    0.000000
  H     -2.087925    1.244293   -0.000000
  H     -0.732695   -0.238068    1.938875
  H     -0.384585    1.488214    1.510395
  H     -0.384585    1.488214   -1.510395
  H     -0.732695   -0.238068   -1.938875

FINAL SINGLE POINT ENERGY      -721.846747494243
                    ***********************HURRAY********************
 Multiplicity           Mult            ....    1
 Number of Electrons    NEL             ....   64
 Basis Dimension        Dim             ....  271
FINAL SINGLE POINT ENERGY      -721.846747539145

VIBRATIONAL FREQUENCIES
-----------------------

   0:         0.00 cm**-1
   1:         0.00 cm**-1
   2:         0.00 cm**-1
   3:         0.00 cm**-1
   4:         0.00 cm**-1
   5:         0.00 cm**-1
   6:        84.96 cm**-1
   7:       215.71 cm**-1
   8:       267.07 cm**-1
   9:       283.54 cm**-1
  10:       371.20 cm**-1
  11:       375.05 cm**-1
  12:       441.29 cm**-1
  13:       448.67 cm**-1
  14:       639.30 cm**-1
  15:       737.46 cm**-1
  16:       773.59 cm**-1
  17:       817.94 cm**-1
  18:       834.56 cm**-1
  19:       919.91 cm**-1
  20:       941.35 cm**-1
  21:      1013.03 cm**-1
  22:      1083.96 cm**-1
  23:      1109.84 cm**-1
  24:      1205.28 cm**-1
  25:      1212.09 cm**-1
  26:      1219.91 cm**-1
  27:      1275.19 cm**-1
  28:      1297.94 cm**-1
  29:      1331.33 cm**-1
  30:      1417.37 cm**-1
  31:      1446.96 cm**-1
  32:      1447.31 cm**-1
  33:      1470.93 cm**-1
  34:      1488.10 cm**-1
  35:      1491.81 cm**-1
  36:      1498.85 cm**-1
  37:      3084.06 cm**-1
  38:      3118.19 cm**-1
  39:      3121.23 cm**-1
  40:      3190.43 cm**-1
  41:      3190.48 cm**-1
  42:      3209.70 cm**-1
  43:      3209.75 cm**-1
  44:      3479.27 cm**-1

IR SPECTRUM
-----------

 Mode    freq (cm**-1)   T**2         TX         TY         TZ
-------------------------------------------------------------------
   6:        84.96    3.392284  ( -1.312988  -1.291645   0.000007)
   7:       215.71    0.612106  ( -0.000014  -0.000004  -0.782372)
   8:       267.07    0.594163  ( -0.000002   0.000005   0.770820)
   9:       283.54    0.013844  ( -0.117062  -0.011850  -0.000002)
  10:       371.20   12.853822  (  3.474389  -0.884558  -0.000005)
  11:       375.05    2.345589  ( -0.000019  -0.000001  -1.531532)
  12:       441.29   10.952538  ( -0.000036   0.000014  -3.309462)
  13:       448.67   13.519121  (  3.419603  -1.351086  -0.000040)
  14:       639.30   30.158348  ( -5.277878   1.517350   0.000000)
  15:       737.46   43.739562  (  0.000002   0.000011  -6.613589)
  16:       773.59    1.015629  ( -0.992695  -0.173741  -0.000010)
  17:       817.94   14.120237  ( -0.000002  -0.000004   3.757690)
  18:       834.56    3.878311  ( -0.189664  -1.960188  -0.000001)
  19:       919.91   11.041146  ( -0.000002  -0.000003   3.322822)
  20:       941.35    7.491846  ( -2.237337  -1.576760  -0.000004)
  21:      1013.03   19.401950  (  3.985164   1.876277  -0.000000)
  22:      1083.96    3.855890  (  0.000001   0.000001   1.963642)
  23:      1109.84    2.072291  ( -1.429572   0.169158  -0.000007)
  24:      1205.28    6.190575  (  0.000014  -0.000006   2.488087)
  25:      1212.09   67.894527  (  7.861269  -2.468801  -0.000009)
  26:      1219.91    0.580367  (  0.000035  -0.000009   0.761818)
  27:      1275.19   18.020608  ( -3.491421   2.414661   0.000001)
  28:      1297.94   84.133533  (  8.172659  -4.164274   0.000001)
  29:      1331.33   10.324597  ( -0.000001  -0.000001   3.213191)
  30:      1417.37   13.143948  (  2.761529   2.349022  -0.000003)
  31:      1446.96   41.022735  ( -0.000006  -0.000030   6.404899)
  32:      1447.31   16.270183  (  0.727789   3.967431   0.000063)
  33:      1470.93    9.282716  (  0.875997   2.918106   0.000007)
  34:      1488.10  130.962503  ( -3.371150 -10.936080   0.000098)
  35:      1491.81   12.020051  (  0.000214   0.000363   3.466995)
  36:      1498.85   65.194646  ( -6.903943  -4.186910   0.000060)
  37:      3084.06    0.596007  (  0.062894  -0.769449   0.000009)
  38:      3118.19   13.498300  (  0.000000  -0.000000   3.674003)
  39:      3121.23    1.719600  ( -0.542367   1.193917   0.000000)
  40:      3190.43    0.951068  (  0.016267  -0.014563  -0.974983)
  41:      3190.48    2.206428  (  1.107006  -0.990333   0.014320)
  42:      3209.70   18.081975  (  0.929195   4.149527   0.000030)
  43:      3209.75    1.838731  (  0.000018   0.000098  -1.355998)
  44:      3479.27   95.528936  (  6.419328  -7.370289   0.000000)

--------------------------
THERMOCHEMISTRY AT 298.15K
--------------------------

Temperature         ... 298.15 K
Pressure            ... 1.00 atm
Total Mass          ... 122.16 AMU

Throughout the following assumptions are being made:
  (1) The electronic state is orbitally nondegenerate
  (2) There are no thermally accessible electronically excited states
  (3) Hindered rotations indicated by low frequency modes) are not
      treated as such but are treated as vibrations and this may
      case some error
  (4) All equations used are the standard statistical mechanics
      equations for an ideal gas
  (5) All vibrations are strinctly harmonic

------------
INNER ENERGY
------------

The inner energy is: U= E(el) + E(ZPE) + E(vib) + E(rot) + E(trans)
    E(el)   - is the total energy from the electronic structure calculation
              = E(kin-el) + E(nuc-el) + E(el-el) + E(nuc-nuc)
    E(ZPE)  - the the zero temperature vibrational energy from the frequency calculation
    E(vib)  - the the finite temperature correction to E(ZPE) due to population
              of excietd vibrational states
    E(rot)  - is the rotational thermal energy
    E(trans)- is the translational thermal energy

Summary of contributions to the inner energy U:
Electronic energy                ...   -721.84674754 Eh
Zero point energy                ...      0.12476297 Eh      78.29 kcal/mol
Thermal vibrational correction   ...      0.00418371 Eh       2.63 kcal/mol
Thermal rotational correction    ...      0.00141627 Eh       0.89 kcal/mol
Thermal translational correction ...      0.00141627 Eh       0.89 kcal/mol
-----------------------------------------------------------------------
Total thermal energy                   -721.71496831 Eh

Summary of corrections to the electronic energy:
(perhaps to be used in another calculation)
Total thermal correction                  0.00701625 Eh       4.40 kcal/mol
Non-thermal (ZPE) correction              0.12476297 Eh      78.29 kcal/mol
-----------------------------------------------------------------------
Total correction                          0.13177923 Eh      82.69 kcal/mol

--------
ENTHALPY
--------

The enthalpy is H = U + kB*T
                kB is Boltzmann's constant
Total free energy                 ...   -721.71496831 Eh
Thermal Enthalpy correction       ...      0.00094421 Eh       0.59 kcal/mol
-----------------------------------------------------------------------
Total Enthalpy                    ...   -721.71402410 Eh

-------
ENTROPY
-------

The entropy contributions are T*S = T*(S(el)+S(vib)+S(rot)+S(trans)
     S(el)   - electronic entropy
     S(vib)  - vibrational entropy
     S(rot)  - rotational entropy
     S(trans)- translational entropy
The entropies will be listed as mutliplied by the temperature to get
units of energy

Electronic entropy                ...      0.00000000 Eh      0.00 kcal/mol
Vibrational entropy               ...      0.00696798 Eh      4.37 kcal/mol
Rotational entropy                ...      0.01205058 Eh      7.56 kcal/mol
Translational entropy             ...      0.01915475 Eh     12.02 kcal/mol
-----------------------------------------------------------------------
Final entropy term                ...      0.03817331 Eh     23.95 kcal/mol

CAUTION: The rotational entropy is not quite correctly treated here
         because it includes a symmetry number that is not yet correctly
         implemented in ORCA!
For a nonlinear molecule the correct rotational entropy is:
    S(rot) = R*(ln(qrot/sn)+1.5)
    R    = 8.31441 J/mol/K = 1.987191683e-3 kcal/mol/K
    qrot = 233658.4568941
    sn is the rotational symmetry number. We have assumed 3 here
       if it is different for your molecule then you should correct
       the printed rotational entropy by manually evaluating the equation
       as given above

For convenience we print out the resulting values for sn=1 - 12:
 sn= 1  qrot/sn=  233658.4569 T*S(rot)=     8.21 kcal/mol T*S(tot)=    24.60 kcal/mol
 sn= 2  qrot/sn=  116829.2284 T*S(rot)=     7.80 kcal/mol T*S(tot)=    24.19 kcal/mol
 sn= 3  qrot/sn=   77886.1523 T*S(rot)=     7.56 kcal/mol T*S(tot)=    23.95 kcal/mol
 sn= 4  qrot/sn=   58414.6142 T*S(rot)=     7.39 kcal/mol T*S(tot)=    23.78 kcal/mol
 sn= 5  qrot/sn=   46731.6914 T*S(rot)=     7.26 kcal/mol T*S(tot)=    23.65 kcal/mol
 sn= 6  qrot/sn=   38943.0761 T*S(rot)=     7.15 kcal/mol T*S(tot)=    23.54 kcal/mol
 sn= 7  qrot/sn=   33379.7796 T*S(rot)=     7.06 kcal/mol T*S(tot)=    23.45 kcal/mol
 sn= 8  qrot/sn=   29207.3071 T*S(rot)=     6.98 kcal/mol T*S(tot)=    23.37 kcal/mol
 sn= 9  qrot/sn=   25962.0508 T*S(rot)=     6.91 kcal/mol T*S(tot)=    23.30 kcal/mol
 sn=10  qrot/sn=   23365.8457 T*S(rot)=     6.85 kcal/mol T*S(tot)=    23.24 kcal/mol
 sn=11  qrot/sn=   21241.6779 T*S(rot)=     6.79 kcal/mol T*S(tot)=    23.18 kcal/mol
 sn=12  qrot/sn=   19471.5381 T*S(rot)=     6.74 kcal/mol T*S(tot)=    23.13 kcal/mol

-------------------
GIBBS FREE ENTHALPY
-------------------

The Gibbs free enthalpy is G = H - T*S

Total enthalpy                    ...   -721.71402410 Eh
Total entropy correction          ...     -0.03817331 Eh    -23.95 kcal/mol
-----------------------------------------------------------------------
Final Gibbs free enthalpy         ...   -721.75219741 Eh

For completeness - the Gibbs free enthalpy minus the electronic energy
G-E(el)                           ...      0.09455013 Eh     59.33 kcal/mol

                             ****ORCA TERMINATED NORMALLY****
TOTAL RUN TIME: 0 days 0 hours 33 minutes 47 seconds 380 msec
