                         Program Version 3.0.3 - RELEASE   -
|  1> ! NORI PBE0 def2-TZVP UseSym TightOPT Freq TightSCF Grid3 FinalGrid5 XYZFile
|  2> % pal
|  3>     nprocs 8
|  4> end
|  5> %method
|  6>     SymThresh 5.0e-2
|  7> end
|  8> % geom
|  9>     MaxIter 10
| 10> end
| 11> % maxcore 2000
| 12> % output
| 13>     printlevel mini
| 14>     print[ P_Basis ] 0
| 15>     print[ P_SCFInfo ] 1
| 16>     print[ P_SCFIterInfo ] 1
| 17>     print[ P_OrbEn ] 0
| 18>     print[ P_Cartesian ] 0
| 19> end
| 20> % elprop
| 21>     Dipole false
| 22> end
| 23> *xyz 1 1
| 24>  C        1.1955789642     0.4371268882    -0.6949686800
| 25>  N        2.0366612534    -0.0930421373     0.4197438861
| 26>  C        2.9067888930     0.9147301951     1.0775162902
| 27>  S        4.4055755319     0.9947138629     0.0262783651
| 28>  C        5.7029525411     1.4403093432     1.1191981611
| 29>  O        4.5460734202    -0.3859289037    -0.3742947830
| 30>  O        4.2021892847     2.0187042876    -0.9471138262
| 31>  H        0.6558295613    -0.3950137829    -1.1425675989
| 32>  H        1.8495454992     0.9034029091    -1.4296399664
| 33>  H        0.4981801630     1.1680578673    -0.2901369220
| 34>  H        1.4446370877    -0.5514145866     1.1131102283
| 35>  H        2.6960370169    -0.8003896559     0.0401806161
| 36>  H        2.4097599778     1.8819055925     1.1237437001
| 37>  H        3.1798404960     0.5603503313     2.0713981461
| 38>  H        6.5920805532     1.5039458873     0.4869434429
| 39>  H        5.8354731935     0.6697079382     1.8774195755
| 40>  H        5.4904765630     2.4193939637     1.5493093649
| 41> *
| 42>
| 43>                          ****END OF INPUT****
 Total Charge           Charge          ....    1
 Multiplicity           Mult            ....    1
 Number of Electrons    NEL             ....   66
FINAL SINGLE POINT ENERGY      -723.099184813282
FINAL SINGLE POINT ENERGY      -723.099186022283

CARTESIAN COORDINATES (ANGSTROEM)
---------------------------------
  C     -0.076117    0.989423   -2.438784
  N      0.295579   -0.334458   -1.854451
  C     -0.608210   -0.817541   -0.779284
  S     -0.002076    0.000955    0.744268
  C     -0.402767   -1.106016    2.044388
  O      1.424420    0.005261    0.517813
  O     -0.719627    1.225516    0.895956
  H      0.687624    1.271720   -3.160902
  H     -0.125026    1.720122   -1.633568
  H     -1.044202    0.896823   -2.926667
  H      0.365334   -1.033441   -2.594682
  H      1.224992   -0.253292   -1.398091
  H     -1.639288   -0.538223   -0.988042
  H     -0.501872   -1.897667   -0.678228
  H     -0.060285   -0.605611    2.953687
  H      0.127585   -2.047722    1.910915
  H     -1.484600   -1.236277    2.084629

FINAL SINGLE POINT ENERGY      -723.099186736852
                    ***********************HURRAY********************
 Multiplicity           Mult            ....    1
 Number of Electrons    NEL             ....   66
 Basis Dimension        Dim             ....  283
FINAL SINGLE POINT ENERGY      -723.099186894195

VIBRATIONAL FREQUENCIES
-----------------------

   0:         0.00 cm**-1
   1:         0.00 cm**-1
   2:         0.00 cm**-1
   3:         0.00 cm**-1
   4:         0.00 cm**-1
   5:         0.00 cm**-1
   6:        70.32 cm**-1
   7:       103.79 cm**-1
   8:       182.90 cm**-1
   9:       200.92 cm**-1
  10:       228.38 cm**-1
  11:       294.96 cm**-1
  12:       311.95 cm**-1
  13:       367.67 cm**-1
  14:       393.63 cm**-1
  15:       483.50 cm**-1
  16:       541.23 cm**-1
  17:       649.70 cm**-1
  18:       773.78 cm**-1
  19:       865.43 cm**-1
  20:       869.84 cm**-1
  21:       930.85 cm**-1
  22:       971.62 cm**-1
  23:       978.26 cm**-1
  24:      1045.36 cm**-1
  25:      1127.23 cm**-1
  26:      1155.01 cm**-1
  27:      1190.11 cm**-1
  28:      1274.08 cm**-1
  29:      1312.68 cm**-1
  30:      1347.48 cm**-1
  31:      1383.40 cm**-1
  32:      1409.72 cm**-1
  33:      1432.48 cm**-1
  34:      1433.63 cm**-1
  35:      1454.45 cm**-1
  36:      1459.95 cm**-1
  37:      1473.30 cm**-1
  38:      1494.02 cm**-1
  39:      1497.45 cm**-1
  40:      1615.47 cm**-1
  41:      3067.48 cm**-1
  42:      3091.88 cm**-1
  43:      3111.02 cm**-1
  44:      3165.95 cm**-1
  45:      3190.23 cm**-1
  46:      3192.73 cm**-1
  47:      3196.09 cm**-1
  48:      3197.61 cm**-1
  49:      3223.19 cm**-1
  50:      3486.16 cm**-1

IR SPECTRUM
-----------

 Mode    freq (cm**-1)   T**2         TX         TY         TZ
-------------------------------------------------------------------
   6:        70.32    3.480530  (  1.180727  -1.419662  -0.266408)
   7:       103.79    1.459192  ( -0.245827   0.609634  -1.013463)
   8:       182.90   10.228611  (  1.048872   0.979179   2.858266)
   9:       200.92    5.399997  (  0.414087  -0.468542  -2.238079)
  10:       228.38    4.773428  (  0.828274   1.946290   0.547124)
  11:       294.96   22.323564  (  0.425761   0.217811   4.700516)
  12:       311.95    8.242010  (  0.171807   0.360981  -2.842918)
  13:       367.67   13.453069  (  0.021362   0.255089  -3.658899)
  14:       393.63   14.926920  ( -0.483465  -0.526496   3.796839)
  15:       483.50   21.537974  ( -1.981546  -4.137590   0.701283)
  16:       541.23   24.171097  (  0.576536  -0.425596   4.863905)
  17:       649.70   35.187587  (  1.982317   2.497606   5.001997)
  18:       773.78   25.253957  (  0.264759   1.324850  -4.840313)
  19:       865.43   69.370355  (  1.633245  -0.823105   8.125599)
  20:       869.84   12.933653  ( -0.310378   2.504645  -2.562044)
  21:       930.85    1.013737  (  0.994931  -0.025547   0.152300)
  22:       971.62   31.492076  (  0.993935   0.709956   5.477238)
  23:       978.26    3.812407  (  0.034552   1.589526   1.133411)
  24:      1045.36    6.443856  ( -0.248930  -2.128857   1.360094)
  25:      1127.23   23.548878  ( -2.784676  -2.497075   3.091775)
  26:      1155.01    5.067965  ( -0.474272  -1.024349  -1.947753)
  27:      1190.11  114.130408  (  7.354661   7.706329  -0.807377)
  28:      1274.08    0.817342  ( -0.415995  -0.514349   0.616227)
  29:      1312.68    5.566652  ( -0.128920  -1.586345  -1.741706)
  30:      1347.48   28.527461  ( -2.964159  -2.565325   3.627718)
  31:      1383.40  153.424789  ( -9.265356   6.758387   4.679977)
  32:      1409.72   50.762685  ( -5.618012   3.178185   3.016581)
  33:      1432.48   16.632920  ( -3.012778   1.347603  -2.395841)
  34:      1433.63    3.027316  (  0.741660   1.271341   0.927874)
  35:      1454.45    9.283773  (  2.884731   0.039646   0.980064)
  36:      1459.95   59.174181  ( -1.959072   6.538209  -3.547963)
  37:      1473.30    9.953381  (  2.677376  -0.287255   1.643935)
  38:      1494.02   23.511883  ( -4.024896  -2.647333   0.551114)
  39:      1497.45   25.356253  ( -1.046931   0.552779   4.894346)
  40:      1615.47   59.659510  (  4.512560  -3.320828  -5.316805)
  41:      3067.48   16.681922  (  0.212658   0.825001  -3.994505)
  42:      3091.88    1.292432  (  0.406627   0.478080   0.947906)
  43:      3111.02    1.322999  (  0.746679   0.699021   0.526156)
  44:      3165.95    9.976487  ( -1.369848  -1.282769  -2.540572)
  45:      3190.23    1.630428  (  0.736264   0.508757   0.910775)
  46:      3192.73    4.876920  (  1.218185  -1.257315  -1.346144)
  47:      3196.09    5.515106  (  1.431441  -0.489662   1.796194)
  48:      3197.61    3.175562  (  0.987605  -1.003453  -1.092374)
  49:      3223.19  149.409444  (  8.577277  -0.707374   8.679826)
  50:      3486.16  105.174112  ( -0.183143   5.854808   8.417945)

--------------------------
THERMOCHEMISTRY AT 298.15K
--------------------------

Temperature         ... 298.15 K
Pressure            ... 1.00 atm
Total Mass          ... 124.18 AMU

Throughout the following assumptions are being made:
  (1) The electronic state is orbitally nondegenerate
  (2) There are no thermally accessible electronically excited states
  (3) Hindered rotations indicated by low frequency modes) are not
      treated as such but are treated as vibrations and this may
      case some error
  (4) All equations used are the standard statistical mechanics
      equations for an ideal gas
  (5) All vibrations are strinctly harmonic

------------
INNER ENERGY
------------

The inner energy is: U= E(el) + E(ZPE) + E(vib) + E(rot) + E(trans)
    E(el)   - is the total energy from the electronic structure calculation
              = E(kin-el) + E(nuc-el) + E(el-el) + E(nuc-nuc)
    E(ZPE)  - the the zero temperature vibrational energy from the frequency calculation
    E(vib)  - the the finite temperature correction to E(ZPE) due to population
              of excietd vibrational states
    E(rot)  - is the rotational thermal energy
    E(trans)- is the translational thermal energy

Summary of contributions to the inner energy U:
Electronic energy                ...   -723.09918689 Eh
Zero point energy                ...      0.14636520 Eh      91.85 kcal/mol
Thermal vibrational correction   ...      0.00576075 Eh       3.61 kcal/mol
Thermal rotational correction    ...      0.00141627 Eh       0.89 kcal/mol
Thermal translational correction ...      0.00141627 Eh       0.89 kcal/mol
-----------------------------------------------------------------------
Total thermal energy                   -722.94422841 Eh

Summary of corrections to the electronic energy:
(perhaps to be used in another calculation)
Total thermal correction                  0.00859329 Eh       5.39 kcal/mol
Non-thermal (ZPE) correction              0.14636520 Eh      91.85 kcal/mol
-----------------------------------------------------------------------
Total correction                          0.15495849 Eh      97.24 kcal/mol

--------
ENTHALPY
--------

The enthalpy is H = U + kB*T
                kB is Boltzmann's constant
Total free energy                 ...   -722.94422841 Eh
Thermal Enthalpy correction       ...      0.00094421 Eh       0.59 kcal/mol
-----------------------------------------------------------------------
Total Enthalpy                    ...   -722.94328420 Eh

-------
ENTROPY
-------

The entropy contributions are T*S = T*(S(el)+S(vib)+S(rot)+S(trans)
     S(el)   - electronic entropy
     S(vib)  - vibrational entropy
     S(rot)  - rotational entropy
     S(trans)- translational entropy
The entropies will be listed as mutliplied by the temperature to get
units of energy

Electronic entropy                ...      0.00000000 Eh      0.00 kcal/mol
Vibrational entropy               ...      0.01029754 Eh      6.46 kcal/mol
Rotational entropy                ...      0.01223508 Eh      7.68 kcal/mol
Translational entropy             ...      0.01917793 Eh     12.03 kcal/mol
-----------------------------------------------------------------------
Final entropy term                ...      0.04171054 Eh     26.17 kcal/mol

CAUTION: The rotational entropy is not quite correctly treated here
         because it includes a symmetry number that is not yet correctly
         implemented in ORCA!
For a nonlinear molecule the correct rotational entropy is:
    S(rot) = R*(ln(qrot/sn)+1.5)
    R    = 8.31441 J/mol/K = 1.987191683e-3 kcal/mol/K
    qrot = 284080.9724866
    sn is the rotational symmetry number. We have assumed 3 here
       if it is different for your molecule then you should correct
       the printed rotational entropy by manually evaluating the equation
       as given above

For convenience we print out the resulting values for sn=1 - 12:
 sn= 1  qrot/sn=  284080.9725 T*S(rot)=     8.33 kcal/mol T*S(tot)=    26.82 kcal/mol
 sn= 2  qrot/sn=  142040.4862 T*S(rot)=     7.92 kcal/mol T*S(tot)=    26.41 kcal/mol
 sn= 3  qrot/sn=   94693.6575 T*S(rot)=     7.68 kcal/mol T*S(tot)=    26.17 kcal/mol
 sn= 4  qrot/sn=   71020.2431 T*S(rot)=     7.51 kcal/mol T*S(tot)=    26.00 kcal/mol
 sn= 5  qrot/sn=   56816.1945 T*S(rot)=     7.37 kcal/mol T*S(tot)=    25.87 kcal/mol
 sn= 6  qrot/sn=   47346.8287 T*S(rot)=     7.27 kcal/mol T*S(tot)=    25.76 kcal/mol
 sn= 7  qrot/sn=   40582.9961 T*S(rot)=     7.18 kcal/mol T*S(tot)=    25.67 kcal/mol
 sn= 8  qrot/sn=   35510.1216 T*S(rot)=     7.10 kcal/mol T*S(tot)=    25.59 kcal/mol
 sn= 9  qrot/sn=   31564.5525 T*S(rot)=     7.03 kcal/mol T*S(tot)=    25.52 kcal/mol
 sn=10  qrot/sn=   28408.0972 T*S(rot)=     6.96 kcal/mol T*S(tot)=    25.46 kcal/mol
 sn=11  qrot/sn=   25825.5430 T*S(rot)=     6.91 kcal/mol T*S(tot)=    25.40 kcal/mol
 sn=12  qrot/sn=   23673.4144 T*S(rot)=     6.86 kcal/mol T*S(tot)=    25.35 kcal/mol

-------------------
GIBBS FREE ENTHALPY
-------------------

The Gibbs free enthalpy is G = H - T*S

Total enthalpy                    ...   -722.94328420 Eh
Total entropy correction          ...     -0.04171054 Eh    -26.17 kcal/mol
-----------------------------------------------------------------------
Final Gibbs free enthalpy         ...   -722.98499474 Eh

For completeness - the Gibbs free enthalpy minus the electronic energy
G-E(el)                           ...      0.11419215 Eh     71.66 kcal/mol

                             ****ORCA TERMINATED NORMALLY****
TOTAL RUN TIME: 0 days 0 hours 39 minutes 25 seconds 629 msec
