                         Program Version 3.0.3 - RELEASE   -
|  1> ! NORI PBE0 def2-TZVP UseSym TightOPT Freq TightSCF Grid3 FinalGrid5 XYZFile
|  2> % pal
|  3>     nprocs 8
|  4> end
|  5> %method
|  6>     SymThresh 5.0e-2
|  7> end
|  8> % geom
|  9>     MaxIter 10
| 10> end
| 11> % maxcore 2000
| 12> % output
| 13>     printlevel mini
| 14>     print[ P_Basis ] 0
| 15>     print[ P_SCFInfo ] 1
| 16>     print[ P_SCFIterInfo ] 1
| 17>     print[ P_OrbEn ] 0
| 18>     print[ P_Cartesian ] 0
| 19> end
| 20> % elprop
| 21>     Dipole false
| 22> end
| 23> *xyz 1 1
| 24>  C        1.0104758593    -0.0652277558     0.0085337009
| 25>  S        2.7561185807     0.0158440816     0.1625751554
| 26>  O        3.1170623619     0.7172988231     1.3463867043
| 27>  O        3.3398273088    -1.2560881943    -0.1784775067
| 28>  C        3.3129421242     1.0629628327    -1.2150747161
| 29>  C        4.7711425194     1.1018936456    -1.3904250239
| 30>  N        3.9420023041     0.2651521949    -2.2859449925
| 31>  H        0.7374094854    -0.4867054039    -0.9587654851
| 32>  H        0.5885855934     0.9271838786     0.1653212072
| 33>  H        0.6871612168    -0.7357453884     0.8089473505
| 34>  H        2.6980551060     1.8971992540    -1.5324872842
| 35>  H        5.2222892182     1.9649797570    -1.8627504233
| 36>  H        5.3947665599     0.5262318474    -0.7153697705
| 37>  H        3.9516684045    -0.7401858292    -2.0749801929
| 38>  H        3.8217033576     0.5311262566    -3.2586887232
| 39> *
| 40>
| 41>                          ****END OF INPUT****
 Total Charge           Charge          ....    1
 Multiplicity           Mult            ....    1
 Number of Electrons    NEL             ....   64
FINAL SINGLE POINT ENERGY      -721.857610984420
FINAL SINGLE POINT ENERGY      -721.857612104369

CARTESIAN COORDINATES (ANGSTROEM)
---------------------------------
  C     -1.030962    1.183946    1.473070
  S     -0.003105   -0.000531    0.686704
  O      1.290069   -0.005548    1.279430
  O     -0.740799   -1.215977    0.455630
  C      0.236974    0.616915   -1.006342
  C      0.920035   -0.328562   -1.899891
  N     -0.547413   -0.160685   -1.985458
  H     -1.975843    1.275833    0.938018
  H     -0.497892    2.131815    1.545567
  H     -1.209523    0.782541    2.473918
  H      0.303908    1.684687   -1.179603
  H      1.472298    0.053457   -2.748814
  H      1.222932   -1.292900   -1.507580
  H     -1.097464   -0.907654   -1.544977
  H     -0.957411    0.299682   -2.792325

FINAL SINGLE POINT ENERGY      -721.857612425603
                    ***********************HURRAY********************
 Multiplicity           Mult            ....    1
 Number of Electrons    NEL             ....   64
 Basis Dimension        Dim             ....  271
FINAL SINGLE POINT ENERGY      -721.857612594777

VIBRATIONAL FREQUENCIES
-----------------------

   0:         0.00 cm**-1
   1:         0.00 cm**-1
   2:         0.00 cm**-1
   3:         0.00 cm**-1
   4:         0.00 cm**-1
   5:         0.00 cm**-1
   6:        80.63 cm**-1
   7:       178.25 cm**-1
   8:       192.96 cm**-1
   9:       243.90 cm**-1
  10:       293.13 cm**-1
  11:       321.79 cm**-1
  12:       417.65 cm**-1
  13:       501.47 cm**-1
  14:       526.31 cm**-1
  15:       634.36 cm**-1
  16:       778.13 cm**-1
  17:       854.59 cm**-1
  18:       874.78 cm**-1
  19:       907.45 cm**-1
  20:       934.21 cm**-1
  21:       966.86 cm**-1
  22:       976.31 cm**-1
  23:      1054.16 cm**-1
  24:      1084.80 cm**-1
  25:      1146.35 cm**-1
  26:      1175.43 cm**-1
  27:      1200.26 cm**-1
  28:      1248.30 cm**-1
  29:      1273.27 cm**-1
  30:      1336.57 cm**-1
  31:      1348.75 cm**-1
  32:      1419.37 cm**-1
  33:      1432.21 cm**-1
  34:      1442.41 cm**-1
  35:      1481.02 cm**-1
  36:      1582.79 cm**-1
  37:      3066.53 cm**-1
  38:      3165.23 cm**-1
  39:      3165.65 cm**-1
  40:      3189.42 cm**-1
  41:      3214.70 cm**-1
  42:      3272.70 cm**-1
  43:      3366.33 cm**-1
  44:      3569.09 cm**-1

IR SPECTRUM
-----------

 Mode    freq (cm**-1)   T**2         TX         TY         TZ
-------------------------------------------------------------------
   6:        80.63    3.997949  ( -1.527830   0.483277  -1.195880)
   7:       178.25    2.441541  ( -0.197825   0.821338  -1.314462)
   8:       192.96    2.895365  ( -0.508900  -0.873154   1.368937)
   9:       243.90   14.151341  ( -0.099929   0.259987  -3.751501)
  10:       293.13   12.159064  (  0.945434  -1.497247  -3.003909)
  11:       321.79    0.677458  ( -0.602147   0.558818  -0.050984)
  12:       417.65    6.761541  (  0.741658  -1.059433   2.255900)
  13:       501.47   22.376592  ( -2.714820   3.861165   0.312649)
  14:       526.31   35.794898  (  1.948248  -0.425974  -5.640724)
  15:       634.36   30.957801  (  0.559194   1.911467  -5.195324)
  16:       778.13   46.493501  (  3.225348  -1.966981  -5.676409)
  17:       854.59    8.882624  ( -1.963605   0.952939   2.029479)
  18:       874.78   15.607327  ( -3.767515  -0.219050  -1.168407)
  19:       907.45    2.857506  ( -1.475155  -0.537474  -0.626535)
  20:       934.21   42.574633  (  0.289926   1.087643   6.427100)
  21:       966.86   12.457743  ( -1.532345  -0.762777   3.086719)
  22:       976.31   15.175668  ( -0.681251  -1.035926   3.693023)
  23:      1054.16   13.858909  (  1.438262  -3.212158  -1.213406)
  24:      1084.80  113.333734  ( -2.222241   7.229494   7.491982)
  25:      1146.35    2.917856  ( -1.179618   0.618799   1.069320)
  26:      1175.43   23.842063  (  0.049266  -4.772657  -1.030233)
  27:      1200.26   78.832047  (  1.525335  -7.920782   3.710339)
  28:      1248.30    7.799136  (  0.987717   2.009169   1.669368)
  29:      1273.27   12.235029  (  1.784290   0.756441  -2.911896)
  30:      1336.57   10.151771  ( -2.245702   1.107510   1.970283)
  31:      1348.75   20.925575  (  1.802328  -3.782972  -1.834751)
  32:      1419.37  194.552359  ( 11.820843   4.965683   5.491995)
  33:      1432.21   12.049594  ( -1.148179   0.968293  -3.129487)
  34:      1442.41   34.329590  ( -5.121109  -1.911385  -2.109607)
  35:      1481.02   10.273223  (  2.636467  -1.785504  -0.366389)
  36:      1582.79   51.529388  ( -5.364261  -1.526729  -4.519203)
  37:      3066.53   17.054009  ( -1.593919   1.333105   3.568790)
  38:      3165.23   10.659473  ( -1.257838  -0.718270   2.925988)
  39:      3165.65    8.534915  (  1.912315  -2.203378   0.151961)
  40:      3189.42    2.905451  (  1.271338   1.030135   0.477464)
  41:      3214.70   10.342256  ( -0.571724  -3.075260   0.747102)
  42:      3272.70   16.710312  (  0.569883   2.877526  -2.846997)
  43:      3366.33  122.580391  (  8.503072   6.244768  -3.358723)
  44:      3569.09  176.198792  ( -3.379519   5.840026 -11.431174)

--------------------------
THERMOCHEMISTRY AT 298.15K
--------------------------

Temperature         ... 298.15 K
Pressure            ... 1.00 atm
Total Mass          ... 122.16 AMU

Throughout the following assumptions are being made:
  (1) The electronic state is orbitally nondegenerate
  (2) There are no thermally accessible electronically excited states
  (3) Hindered rotations indicated by low frequency modes) are not
      treated as such but are treated as vibrations and this may
      case some error
  (4) All equations used are the standard statistical mechanics
      equations for an ideal gas
  (5) All vibrations are strinctly harmonic

------------
INNER ENERGY
------------

The inner energy is: U= E(el) + E(ZPE) + E(vib) + E(rot) + E(trans)
    E(el)   - is the total energy from the electronic structure calculation
              = E(kin-el) + E(nuc-el) + E(el-el) + E(nuc-nuc)
    E(ZPE)  - the the zero temperature vibrational energy from the frequency calculation
    E(vib)  - the the finite temperature correction to E(ZPE) due to population
              of excietd vibrational states
    E(rot)  - is the rotational thermal energy
    E(trans)- is the translational thermal energy

Summary of contributions to the inner energy U:
Electronic energy                ...   -721.85761259 Eh
Zero point energy                ...      0.12283445 Eh      77.08 kcal/mol
Thermal vibrational correction   ...      0.00469692 Eh       2.95 kcal/mol
Thermal rotational correction    ...      0.00141627 Eh       0.89 kcal/mol
Thermal translational correction ...      0.00141627 Eh       0.89 kcal/mol
-----------------------------------------------------------------------
Total thermal energy                   -721.72724868 Eh

Summary of corrections to the electronic energy:
(perhaps to be used in another calculation)
Total thermal correction                  0.00752946 Eh       4.72 kcal/mol
Non-thermal (ZPE) correction              0.12283445 Eh      77.08 kcal/mol
-----------------------------------------------------------------------
Total correction                          0.13036391 Eh      81.80 kcal/mol

--------
ENTHALPY
--------

The enthalpy is H = U + kB*T
                kB is Boltzmann's constant
Total free energy                 ...   -721.72724868 Eh
Thermal Enthalpy correction       ...      0.00094421 Eh       0.59 kcal/mol
-----------------------------------------------------------------------
Total Enthalpy                    ...   -721.72630447 Eh

-------
ENTROPY
-------

The entropy contributions are T*S = T*(S(el)+S(vib)+S(rot)+S(trans)
     S(el)   - electronic entropy
     S(vib)  - vibrational entropy
     S(rot)  - rotational entropy
     S(trans)- translational entropy
The entropies will be listed as mutliplied by the temperature to get
units of energy

Electronic entropy                ...      0.00000000 Eh      0.00 kcal/mol
Vibrational entropy               ...      0.00806305 Eh      5.06 kcal/mol
Rotational entropy                ...      0.01209262 Eh      7.59 kcal/mol
Translational entropy             ...      0.01915475 Eh     12.02 kcal/mol
-----------------------------------------------------------------------
Final entropy term                ...      0.03931042 Eh     24.67 kcal/mol

CAUTION: The rotational entropy is not quite correctly treated here
         because it includes a symmetry number that is not yet correctly
         implemented in ORCA!
For a nonlinear molecule the correct rotational entropy is:
    S(rot) = R*(ln(qrot/sn)+1.5)
    R    = 8.31441 J/mol/K = 1.987191683e-3 kcal/mol/K
    qrot = 244296.5051194
    sn is the rotational symmetry number. We have assumed 3 here
       if it is different for your molecule then you should correct
       the printed rotational entropy by manually evaluating the equation
       as given above

For convenience we print out the resulting values for sn=1 - 12:
 sn= 1  qrot/sn=  244296.5051 T*S(rot)=     8.24 kcal/mol T*S(tot)=    25.32 kcal/mol
 sn= 2  qrot/sn=  122148.2526 T*S(rot)=     7.83 kcal/mol T*S(tot)=    24.91 kcal/mol
 sn= 3  qrot/sn=   81432.1684 T*S(rot)=     7.59 kcal/mol T*S(tot)=    24.67 kcal/mol
 sn= 4  qrot/sn=   61074.1263 T*S(rot)=     7.42 kcal/mol T*S(tot)=    24.50 kcal/mol
 sn= 5  qrot/sn=   48859.3010 T*S(rot)=     7.29 kcal/mol T*S(tot)=    24.36 kcal/mol
 sn= 6  qrot/sn=   40716.0842 T*S(rot)=     7.18 kcal/mol T*S(tot)=    24.26 kcal/mol
 sn= 7  qrot/sn=   34899.5007 T*S(rot)=     7.09 kcal/mol T*S(tot)=    24.17 kcal/mol
 sn= 8  qrot/sn=   30537.0631 T*S(rot)=     7.01 kcal/mol T*S(tot)=    24.09 kcal/mol
 sn= 9  qrot/sn=   27144.0561 T*S(rot)=     6.94 kcal/mol T*S(tot)=    24.02 kcal/mol
 sn=10  qrot/sn=   24429.6505 T*S(rot)=     6.87 kcal/mol T*S(tot)=    23.95 kcal/mol
 sn=11  qrot/sn=   22208.7732 T*S(rot)=     6.82 kcal/mol T*S(tot)=    23.90 kcal/mol
 sn=12  qrot/sn=   20358.0421 T*S(rot)=     6.77 kcal/mol T*S(tot)=    23.85 kcal/mol

-------------------
GIBBS FREE ENTHALPY
-------------------

The Gibbs free enthalpy is G = H - T*S

Total enthalpy                    ...   -721.72630447 Eh
Total entropy correction          ...     -0.03931042 Eh    -24.67 kcal/mol
-----------------------------------------------------------------------
Final Gibbs free enthalpy         ...   -721.76561489 Eh

For completeness - the Gibbs free enthalpy minus the electronic energy
G-E(el)                           ...      0.09199770 Eh     57.73 kcal/mol

                             ****ORCA TERMINATED NORMALLY****
TOTAL RUN TIME: 0 days 0 hours 32 minutes 9 seconds 737 msec
