                         Program Version 3.0.3 - RELEASE   -
|  1> ! NORI PBE0 def2-TZVP UseSym TightOPT Freq TightSCF Grid3 FinalGrid5 XYZFile
|  2> % pal
|  3>     nprocs 8
|  4> end
|  5> %method
|  6>     SymThresh 5.0e-2
|  7> end
|  8> % geom
|  9>     MaxIter 10
| 10> end
| 11> % maxcore 2000
| 12> % output
| 13>     printlevel mini
| 14>     print[ P_Basis ] 0
| 15>     print[ P_SCFInfo ] 1
| 16>     print[ P_SCFIterInfo ] 1
| 17>     print[ P_OrbEn ] 0
| 18>     print[ P_Cartesian ] 0
| 19> end
| 20> % elprop
| 21>     Dipole false
| 22> end
| 23> *xyz 1 1
| 24>  N        1.7166045007    -0.4595637643    -1.1945842872
| 25>  C        2.4438617654     0.0500928568     0.0515652231
| 26>  C        2.9520103187     1.4166181397    -0.1689502286
| 27>  C        2.3319943161     2.5953427518     0.1604795153
| 28>  C        3.0783326001     3.7268149567    -0.2283683904
| 29>  C        4.2477957450     3.3903077066    -0.8476264252
| 30>  S        4.4567203856     1.7072354263    -0.9470267758
| 31>  H        1.3468674582    -1.4054915021    -1.0720236741
| 32>  H        2.3524955939    -0.4605543872    -1.9953945055
| 33>  H        0.9434051489     0.1673175430    -1.4263738736
| 34>  H        3.2271465685    -0.6813797897     0.2535134707
| 35>  H        1.7120762918     0.0166672723     0.8591997824
| 36>  H        1.3833198997     2.6480362482     0.6815887200
| 37>  H        2.7726048999     4.7483558225    -0.0489553937
| 38>  H        5.0107045074     4.0494807194    -1.2352831574
| 39> *
| 40>
| 41>                          ****END OF INPUT****
 Total Charge           Charge          ....    1
 Multiplicity           Mult            ....    1
 Number of Electrons    NEL             ....   60
FINAL SINGLE POINT ENERGY      -647.708194288670

CARTESIAN COORDINATES (ANGSTROEM)
---------------------------------
  N      2.360771    0.000243   -1.279938
  C      1.282009   -1.033157   -0.949261
  C      0.096884   -0.375466   -0.368883
  C     -1.028393    0.042631   -1.033147
  C     -1.957307    0.674048   -0.180487
  C     -1.523198    0.726562    1.112983
  S      0.000347   -0.000258    1.305526
  H      3.196433   -0.424293   -1.689808
  H      2.634382    0.504004   -0.433282
  H      1.990187    0.692503   -1.934291
  H      1.758138   -1.749320   -0.278490
  H      1.047333   -1.531696   -1.889871
  H     -1.192288   -0.115502   -2.092759
  H     -2.912959    1.063354   -0.503603
  H     -2.032338    1.140495    1.970912

FINAL SINGLE POINT ENERGY      -647.708194717650
                    ***********************HURRAY********************
 Multiplicity           Mult            ....    1
 Number of Electrons    NEL             ....   60
 Basis Dimension        Dim             ....  271
FINAL SINGLE POINT ENERGY      -647.708194825792

VIBRATIONAL FREQUENCIES
-----------------------

   0:         0.00 cm**-1
   1:         0.00 cm**-1
   2:         0.00 cm**-1
   3:         0.00 cm**-1
   4:         0.00 cm**-1
   5:         0.00 cm**-1
   6:        74.63 cm**-1
   7:       133.24 cm**-1
   8:       191.01 cm**-1
   9:       303.57 cm**-1
  10:       350.90 cm**-1
  11:       512.61 cm**-1
  12:       568.15 cm**-1
  13:       606.47 cm**-1
  14:       685.68 cm**-1
  15:       752.99 cm**-1
  16:       766.16 cm**-1
  17:       829.01 cm**-1
  18:       850.92 cm**-1
  19:       878.21 cm**-1
  20:       886.65 cm**-1
  21:       952.52 cm**-1
  22:      1034.26 cm**-1
  23:      1078.10 cm**-1
  24:      1086.55 cm**-1
  25:      1110.90 cm**-1
  26:      1230.40 cm**-1
  27:      1272.03 cm**-1
  28:      1333.40 cm**-1
  29:      1392.38 cm**-1
  30:      1410.87 cm**-1
  31:      1475.87 cm**-1
  32:      1484.30 cm**-1
  33:      1491.86 cm**-1
  34:      1587.51 cm**-1
  35:      1644.51 cm**-1
  36:      1659.80 cm**-1
  37:      3102.63 cm**-1
  38:      3163.29 cm**-1
  39:      3213.44 cm**-1
  40:      3243.53 cm**-1
  41:      3267.90 cm**-1
  42:      3409.69 cm**-1
  43:      3502.46 cm**-1
  44:      3506.19 cm**-1

IR SPECTRUM
-----------

 Mode    freq (cm**-1)   T**2         TX         TY         TZ
-------------------------------------------------------------------
   6:        74.63    6.490958  (  0.540043  -0.662874   2.399981)
   7:       133.24   14.488716  ( -1.890545   3.061799   1.240943)
   8:       191.01    0.249731  ( -0.107202  -0.294106   0.389539)
   9:       303.57    2.221182  (  0.078989   0.447953  -1.419254)
  10:       350.90   10.893008  ( -3.039957  -0.769385   1.029427)
  11:       512.61    9.296704  (  1.955816   2.080949  -1.068241)
  12:       568.15    0.306937  (  0.184921   0.129348  -0.505974)
  13:       606.47    5.563641  ( -1.129693  -2.056552   0.240887)
  14:       685.68    2.937184  ( -1.702169   0.151983   0.129245)
  15:       752.99   74.624135  (  3.713046   7.621829  -1.656848)
  16:       766.16    1.084120  ( -0.448791  -0.123244  -0.931406)
  17:       829.01   44.064469  (  5.899437   0.587389  -2.985981)
  18:       850.92   22.131238  (  2.891644   0.567198  -3.667140)
  19:       878.21    5.380993  (  0.014689  -2.190388  -0.763529)
  20:       886.65   14.512443  ( -2.505688   0.611242  -2.803632)
  21:       952.52    0.314640  (  0.180499  -0.530938   0.012839)
  22:      1034.26   11.384178  (  0.682174   1.635277   2.871356)
  23:      1078.10   23.353121  ( -3.035290   3.726991   0.499671)
  24:      1086.55    4.318741  (  2.036222  -0.415092  -0.015542)
  25:      1110.90    2.027937  ( -0.589108   0.342384  -1.250465)
  26:      1230.40   21.243478  (  4.255142  -1.770175  -0.061035)
  27:      1272.03   11.441519  (  2.775735  -1.505446  -1.212621)
  28:      1333.40    5.356616  ( -0.727799  -0.129458  -2.193209)
  29:      1392.38   44.856741  ( -6.094495   1.804012   2.111732)
  30:      1410.87   24.487261  (  4.445121  -1.150053  -1.845411)
  31:      1475.87   72.160169  ( -5.795923   0.761678   6.163383)
  32:      1484.30   12.816277  ( -1.247928  -2.808921   1.835461)
  33:      1491.86  131.348003  (  8.397936   7.638079  -1.575570)
  34:      1587.51    9.419445  (  2.296464  -1.114929  -1.703711)
  35:      1644.51   56.247031  (  3.232596  -0.736904   6.727134)
  36:      1659.80   30.191669  (  3.570570  -3.664262  -2.003968)
  37:      3102.63    3.610532  (  1.540384  -0.690490  -0.872338)
  38:      3163.29    0.214336  (  0.074767   0.000630   0.456886)
  39:      3213.44    0.336448  (  0.499801  -0.251594  -0.152800)
  40:      3243.53    2.490032  ( -0.616044   0.036445  -1.452306)
  41:      3267.90   12.030284  ( -2.101767   1.330598   2.417099)
  42:      3409.69   33.245662  (  4.746358   2.831708  -1.642916)
  43:      3502.46   76.269100  ( -1.538882   4.815810   7.121019)
  44:      3506.19   78.218074  (  5.178382  -5.125020   5.013642)

--------------------------
THERMOCHEMISTRY AT 298.15K
--------------------------

Temperature         ... 298.15 K
Pressure            ... 1.00 atm
Total Mass          ... 114.19 AMU

Throughout the following assumptions are being made:
  (1) The electronic state is orbitally nondegenerate
  (2) There are no thermally accessible electronically excited states
  (3) Hindered rotations indicated by low frequency modes) are not
      treated as such but are treated as vibrations and this may
      case some error
  (4) All equations used are the standard statistical mechanics
      equations for an ideal gas
  (5) All vibrations are strinctly harmonic

------------
INNER ENERGY
------------

The inner energy is: U= E(el) + E(ZPE) + E(vib) + E(rot) + E(trans)
    E(el)   - is the total energy from the electronic structure calculation
              = E(kin-el) + E(nuc-el) + E(el-el) + E(nuc-nuc)
    E(ZPE)  - the the zero temperature vibrational energy from the frequency calculation
    E(vib)  - the the finite temperature correction to E(ZPE) due to population
              of excietd vibrational states
    E(rot)  - is the rotational thermal energy
    E(trans)- is the translational thermal energy

Summary of contributions to the inner energy U:
Electronic energy                ...   -647.70819483 Eh
Zero point energy                ...      0.12767897 Eh      80.12 kcal/mol
Thermal vibrational correction   ...      0.00413951 Eh       2.60 kcal/mol
Thermal rotational correction    ...      0.00141627 Eh       0.89 kcal/mol
Thermal translational correction ...      0.00141627 Eh       0.89 kcal/mol
-----------------------------------------------------------------------
Total thermal energy                   -647.57354380 Eh

Summary of corrections to the electronic energy:
(perhaps to be used in another calculation)
Total thermal correction                  0.00697206 Eh       4.38 kcal/mol
Non-thermal (ZPE) correction              0.12767897 Eh      80.12 kcal/mol
-----------------------------------------------------------------------
Total correction                          0.13465103 Eh      84.49 kcal/mol

--------
ENTHALPY
--------

The enthalpy is H = U + kB*T
                kB is Boltzmann's constant
Total free energy                 ...   -647.57354380 Eh
Thermal Enthalpy correction       ...      0.00094421 Eh       0.59 kcal/mol
-----------------------------------------------------------------------
Total Enthalpy                    ...   -647.57259959 Eh

-------
ENTROPY
-------

The entropy contributions are T*S = T*(S(el)+S(vib)+S(rot)+S(trans)
     S(el)   - electronic entropy
     S(vib)  - vibrational entropy
     S(rot)  - rotational entropy
     S(trans)- translational entropy
The entropies will be listed as mutliplied by the temperature to get
units of energy

Electronic entropy                ...      0.00000000 Eh      0.00 kcal/mol
Vibrational entropy               ...      0.00727636 Eh      4.57 kcal/mol
Rotational entropy                ...      0.01220921 Eh      7.66 kcal/mol
Translational entropy             ...      0.01905912 Eh     11.96 kcal/mol
-----------------------------------------------------------------------
Final entropy term                ...      0.03854469 Eh     24.19 kcal/mol

CAUTION: The rotational entropy is not quite correctly treated here
         because it includes a symmetry number that is not yet correctly
         implemented in ORCA!
For a nonlinear molecule the correct rotational entropy is:
    S(rot) = R*(ln(qrot/sn)+1.5)
    R    = 8.31441 J/mol/K = 1.987191683e-3 kcal/mol/K
    qrot = 276403.8602230
    sn is the rotational symmetry number. We have assumed 3 here
       if it is different for your molecule then you should correct
       the printed rotational entropy by manually evaluating the equation
       as given above

For convenience we print out the resulting values for sn=1 - 12:
 sn= 1  qrot/sn=  276403.8602 T*S(rot)=     8.31 kcal/mol T*S(tot)=    24.84 kcal/mol
 sn= 2  qrot/sn=  138201.9301 T*S(rot)=     7.90 kcal/mol T*S(tot)=    24.43 kcal/mol
 sn= 3  qrot/sn=   92134.6201 T*S(rot)=     7.66 kcal/mol T*S(tot)=    24.19 kcal/mol
 sn= 4  qrot/sn=   69100.9651 T*S(rot)=     7.49 kcal/mol T*S(tot)=    24.02 kcal/mol
 sn= 5  qrot/sn=   55280.7720 T*S(rot)=     7.36 kcal/mol T*S(tot)=    23.88 kcal/mol
 sn= 6  qrot/sn=   46067.3100 T*S(rot)=     7.25 kcal/mol T*S(tot)=    23.78 kcal/mol
 sn= 7  qrot/sn=   39486.2657 T*S(rot)=     7.16 kcal/mol T*S(tot)=    23.69 kcal/mol
 sn= 8  qrot/sn=   34550.4825 T*S(rot)=     7.08 kcal/mol T*S(tot)=    23.61 kcal/mol
 sn= 9  qrot/sn=   30711.5400 T*S(rot)=     7.01 kcal/mol T*S(tot)=    23.54 kcal/mol
 sn=10  qrot/sn=   27640.3860 T*S(rot)=     6.95 kcal/mol T*S(tot)=    23.47 kcal/mol
 sn=11  qrot/sn=   25127.6237 T*S(rot)=     6.89 kcal/mol T*S(tot)=    23.42 kcal/mol
 sn=12  qrot/sn=   23033.6550 T*S(rot)=     6.84 kcal/mol T*S(tot)=    23.37 kcal/mol

-------------------
GIBBS FREE ENTHALPY
-------------------

The Gibbs free enthalpy is G = H - T*S

Total enthalpy                    ...   -647.57259959 Eh
Total entropy correction          ...     -0.03854469 Eh    -24.19 kcal/mol
-----------------------------------------------------------------------
Final Gibbs free enthalpy         ...   -647.61114428 Eh

For completeness - the Gibbs free enthalpy minus the electronic energy
G-E(el)                           ...      0.09705055 Eh     60.90 kcal/mol

                             ****ORCA TERMINATED NORMALLY****
TOTAL RUN TIME: 0 days 0 hours 32 minutes 47 seconds 466 msec
