                         Program Version 3.0.3 - RELEASE   -
|  1> ! NORI PBE0 def2-TZVP UseSym TightOPT Freq TightSCF Grid3 FinalGrid5 XYZFile
|  2> % pal
|  3>     nprocs 8
|  4> end
|  5> %method
|  6>     SymThresh 5.0e-2
|  7> end
|  8> % geom
|  9>     MaxIter 10
| 10> end
| 11> % maxcore 2000
| 12> % output
| 13>     printlevel mini
| 14>     print[ P_Basis ] 0
| 15>     print[ P_SCFInfo ] 1
| 16>     print[ P_SCFIterInfo ] 1
| 17>     print[ P_OrbEn ] 0
| 18>     print[ P_Cartesian ] 0
| 19> end
| 20> % elprop
| 21>     Dipole false
| 22> end
| 23> *xyz 1 1
| 24>  N        1.3410772160     0.4445698350    -0.5938539408
| 25>  C        2.5836723837    -0.1003490819     0.0947250697
| 26>  C        3.0228398677    -1.3550322826    -0.5583977138
| 27>  C        3.9199123725    -1.4972984051    -1.5876060947
| 28>  C        4.0296527435    -2.8576736253    -1.9493317068
| 29>  N        3.2856289873    -3.6989368620    -1.2679566635
| 30>  S        2.4260648799    -2.9024024869    -0.1453237150
| 31>  H        1.0127467911     1.3129980455    -0.1639721079
| 32>  H        0.5828148897    -0.2412906326    -0.5552728857
| 33>  H        1.5330752512     0.6248524376    -1.5819844293
| 34>  H        2.3131767164    -0.2341967115     1.1428062746
| 35>  H        3.3400106347     0.6823650434     0.0246430959
| 36>  H        4.4833386473    -0.6923824499    -2.0427792860
| 37>  H        4.6762586191    -3.2461528238    -2.7277758968
| 38> *
| 39>
| 40>                          ****END OF INPUT****
 Total Charge           Charge          ....    1
 Multiplicity           Mult            ....    1
 Number of Electrons    NEL             ....   60
FINAL SINGLE POINT ENERGY      -663.732163744420
FINAL SINGLE POINT ENERGY      -663.732163776875

CARTESIAN COORDINATES (ANGSTROEM)
---------------------------------
  N      2.317289   -0.000254   -1.398332
  C      1.281542   -1.039824   -0.996355
  C      0.109196   -0.380610   -0.376365
  C     -1.035659    0.054127   -0.996213
  C     -1.892485    0.666704   -0.055907
  N     -1.455821    0.709261    1.182240
  S      0.000999    0.001407    1.285915
  H      3.141452   -0.425150   -1.830943
  H      2.621630    0.534018   -0.580825
  H      1.912526    0.666995   -2.059087
  H      1.792021   -1.729061   -0.322835
  H      1.014572   -1.573738   -1.908448
  H     -1.266233   -0.073550   -2.046497
  H     -2.865845    1.087050   -0.279999

FINAL SINGLE POINT ENERGY      -663.732164383979
                    ***********************HURRAY********************
 Multiplicity           Mult            ....    1
 Number of Electrons    NEL             ....   60
 Basis Dimension        Dim             ....  265
FINAL SINGLE POINT ENERGY      -663.732164439134

VIBRATIONAL FREQUENCIES
-----------------------

   0:         0.00 cm**-1
   1:         0.00 cm**-1
   2:         0.00 cm**-1
   3:         0.00 cm**-1
   4:         0.00 cm**-1
   5:         0.00 cm**-1
   6:        64.13 cm**-1
   7:       138.87 cm**-1
   8:       190.54 cm**-1
   9:       295.34 cm**-1
  10:       359.68 cm**-1
  11:       542.63 cm**-1
  12:       590.61 cm**-1
  13:       633.40 cm**-1
  14:       706.00 cm**-1
  15:       803.90 cm**-1
  16:       837.30 cm**-1
  17:       852.62 cm**-1
  18:       861.96 cm**-1
  19:       883.13 cm**-1
  20:       955.79 cm**-1
  21:      1040.40 cm**-1
  22:      1076.53 cm**-1
  23:      1086.44 cm**-1
  24:      1218.80 cm**-1
  25:      1271.87 cm**-1
  26:      1327.23 cm**-1
  27:      1368.23 cm**-1
  28:      1397.19 cm**-1
  29:      1461.12 cm**-1
  30:      1488.54 cm**-1
  31:      1502.97 cm**-1
  32:      1580.95 cm**-1
  33:      1647.33 cm**-1
  34:      1660.85 cm**-1
  35:      3103.84 cm**-1
  36:      3162.48 cm**-1
  37:      3217.90 cm**-1
  38:      3232.54 cm**-1
  39:      3410.10 cm**-1
  40:      3497.47 cm**-1
  41:      3502.25 cm**-1

IR SPECTRUM
-----------

 Mode    freq (cm**-1)   T**2         TX         TY         TZ
-------------------------------------------------------------------
   6:        64.13    5.293499  (  0.091130  -0.652603   2.204383)
   7:       138.87   13.162343  ( -2.637562   1.982415   1.508521)
   8:       190.54    0.112006  (  0.238777   0.072606  -0.222980)
   9:       295.34    0.883963  ( -0.112500   0.005478   0.933422)
  10:       359.68    8.761527  ( -2.605079   0.346938   1.361883)
  11:       542.63   20.600730  ( -2.428425  -3.382567   1.806023)
  12:       590.61    5.958906  (  1.340669   2.030529   0.196128)
  13:       633.40    4.600734  ( -1.387614  -1.634272  -0.066461)
  14:       706.00    6.974929  ( -2.046234   0.292633   1.643843)
  15:       803.90    3.969097  (  0.089039   0.789635   1.826923)
  16:       837.30   35.326206  ( -4.277817  -0.936139   4.018722)
  17:       852.62   33.021194  (  1.640220   5.488163   0.459281)
  18:       861.96   21.110477  (  0.549244   0.541694  -4.529390)
  19:       883.13   14.273418  (  3.470600  -0.286290  -1.465057)
  20:       955.79    1.640875  ( -0.849972  -0.900100   0.329005)
  21:      1040.40    9.860689  (  1.039938   1.305352   2.659938)
  22:      1076.53    0.496796  (  0.173547   0.010654  -0.683055)
  23:      1086.44   20.381214  ( -2.723903   3.550003   0.599203)
  24:      1218.80   27.719493  ( -4.776515   2.169943   0.442433)
  25:      1271.87    7.893401  ( -2.073112   1.341725   1.339918)
  26:      1327.23    9.767304  (  2.550555  -0.531473   1.726126)
  27:      1368.23    9.710183  ( -2.393016   0.945334   1.757840)
  28:      1397.19   53.677111  ( -6.620635   2.125071   2.308328)
  29:      1461.12   11.326274  (  1.198879   0.394901  -3.119778)
  30:      1488.54   11.688636  (  1.769173  -2.776141  -0.922879)
  31:      1502.97  156.088715  (  9.141751   7.685083  -3.668325)
  32:      1580.95    8.020466  (  0.117801  -0.710739  -2.738875)
  33:      1647.33   56.256774  (  3.614849  -0.619395   6.542629)
  34:      1660.85   32.868347  (  3.689306  -3.795302  -2.202965)
  35:      3103.84    1.959236  ( -1.168912   0.261012   0.724398)
  36:      3162.48    0.553110  ( -0.368597   0.104388  -0.637455)
  37:      3217.90    0.387530  ( -0.169431   0.241882   0.548011)
  38:      3232.54    1.329268  (  0.930843  -0.280165   0.619925)
  39:      3410.10   42.569801  (  5.291231   3.200252  -2.081120)
  40:      3497.47   87.894762  (  0.022740   3.307510   8.772378)
  41:      3502.25   87.825781  ( -6.399647   6.487690  -2.186361)

--------------------------
THERMOCHEMISTRY AT 298.15K
--------------------------

Temperature         ... 298.15 K
Pressure            ... 1.00 atm
Total Mass          ... 115.17 AMU

Throughout the following assumptions are being made:
  (1) The electronic state is orbitally nondegenerate
  (2) There are no thermally accessible electronically excited states
  (3) Hindered rotations indicated by low frequency modes) are not
      treated as such but are treated as vibrations and this may
      case some error
  (4) All equations used are the standard statistical mechanics
      equations for an ideal gas
  (5) All vibrations are strinctly harmonic

------------
INNER ENERGY
------------

The inner energy is: U= E(el) + E(ZPE) + E(vib) + E(rot) + E(trans)
    E(el)   - is the total energy from the electronic structure calculation
              = E(kin-el) + E(nuc-el) + E(el-el) + E(nuc-nuc)
    E(ZPE)  - the the zero temperature vibrational energy from the frequency calculation
    E(vib)  - the the finite temperature correction to E(ZPE) due to population
              of excietd vibrational states
    E(rot)  - is the rotational thermal energy
    E(trans)- is the translational thermal energy

Summary of contributions to the inner energy U:
Electronic energy                ...   -663.73216444 Eh
Zero point energy                ...      0.11612035 Eh      72.87 kcal/mol
Thermal vibrational correction   ...      0.00397081 Eh       2.49 kcal/mol
Thermal rotational correction    ...      0.00141627 Eh       0.89 kcal/mol
Thermal translational correction ...      0.00141627 Eh       0.89 kcal/mol
-----------------------------------------------------------------------
Total thermal energy                   -663.60924074 Eh

Summary of corrections to the electronic energy:
(perhaps to be used in another calculation)
Total thermal correction                  0.00680335 Eh       4.27 kcal/mol
Non-thermal (ZPE) correction              0.11612035 Eh      72.87 kcal/mol
-----------------------------------------------------------------------
Total correction                          0.12292370 Eh      77.14 kcal/mol

--------
ENTHALPY
--------

The enthalpy is H = U + kB*T
                kB is Boltzmann's constant
Total free energy                 ...   -663.60924074 Eh
Thermal Enthalpy correction       ...      0.00094421 Eh       0.59 kcal/mol
-----------------------------------------------------------------------
Total Enthalpy                    ...   -663.60829653 Eh

-------
ENTROPY
-------

The entropy contributions are T*S = T*(S(el)+S(vib)+S(rot)+S(trans)
     S(el)   - electronic entropy
     S(vib)  - vibrational entropy
     S(rot)  - rotational entropy
     S(trans)- translational entropy
The entropies will be listed as mutliplied by the temperature to get
units of energy

Electronic entropy                ...      0.00000000 Eh      0.00 kcal/mol
Vibrational entropy               ...      0.00714347 Eh      4.48 kcal/mol
Rotational entropy                ...      0.01217875 Eh      7.64 kcal/mol
Translational entropy             ...      0.01907132 Eh     11.97 kcal/mol
-----------------------------------------------------------------------
Final entropy term                ...      0.03839354 Eh     24.09 kcal/mol

CAUTION: The rotational entropy is not quite correctly treated here
         because it includes a symmetry number that is not yet correctly
         implemented in ORCA!
For a nonlinear molecule the correct rotational entropy is:
    S(rot) = R*(ln(qrot/sn)+1.5)
    R    = 8.31441 J/mol/K = 1.987191683e-3 kcal/mol/K
    qrot = 267627.9321739
    sn is the rotational symmetry number. We have assumed 3 here
       if it is different for your molecule then you should correct
       the printed rotational entropy by manually evaluating the equation
       as given above

For convenience we print out the resulting values for sn=1 - 12:
 sn= 1  qrot/sn=  267627.9322 T*S(rot)=     8.29 kcal/mol T*S(tot)=    24.74 kcal/mol
 sn= 2  qrot/sn=  133813.9661 T*S(rot)=     7.88 kcal/mol T*S(tot)=    24.33 kcal/mol
 sn= 3  qrot/sn=   89209.3107 T*S(rot)=     7.64 kcal/mol T*S(tot)=    24.09 kcal/mol
 sn= 4  qrot/sn=   66906.9830 T*S(rot)=     7.47 kcal/mol T*S(tot)=    23.92 kcal/mol
 sn= 5  qrot/sn=   53525.5864 T*S(rot)=     7.34 kcal/mol T*S(tot)=    23.79 kcal/mol
 sn= 6  qrot/sn=   44604.6554 T*S(rot)=     7.23 kcal/mol T*S(tot)=    23.68 kcal/mol
 sn= 7  qrot/sn=   38232.5617 T*S(rot)=     7.14 kcal/mol T*S(tot)=    23.59 kcal/mol
 sn= 8  qrot/sn=   33453.4915 T*S(rot)=     7.06 kcal/mol T*S(tot)=    23.51 kcal/mol
 sn= 9  qrot/sn=   29736.4369 T*S(rot)=     6.99 kcal/mol T*S(tot)=    23.44 kcal/mol
 sn=10  qrot/sn=   26762.7932 T*S(rot)=     6.93 kcal/mol T*S(tot)=    23.38 kcal/mol
 sn=11  qrot/sn=   24329.8120 T*S(rot)=     6.87 kcal/mol T*S(tot)=    23.32 kcal/mol
 sn=12  qrot/sn=   22302.3277 T*S(rot)=     6.82 kcal/mol T*S(tot)=    23.27 kcal/mol

-------------------
GIBBS FREE ENTHALPY
-------------------

The Gibbs free enthalpy is G = H - T*S

Total enthalpy                    ...   -663.60829653 Eh
Total entropy correction          ...     -0.03839354 Eh    -24.09 kcal/mol
-----------------------------------------------------------------------
Final Gibbs free enthalpy         ...   -663.64669007 Eh

For completeness - the Gibbs free enthalpy minus the electronic energy
G-E(el)                           ...      0.08547437 Eh     53.64 kcal/mol

                             ****ORCA TERMINATED NORMALLY****
TOTAL RUN TIME: 0 days 0 hours 30 minutes 12 seconds 268 msec
