                         Program Version 3.0.3 - RELEASE   -
|  1> ! NORI PBE0 def2-TZVP UseSym TightOPT Freq TightSCF Grid3 FinalGrid5 XYZFile
|  2> % pal
|  3>     nprocs 8
|  4> end
|  5> %method
|  6>     SymThresh 5.0e-2
|  7> end
|  8> % geom
|  9>     MaxIter 10
| 10> end
| 11> % maxcore 2000
| 12> % output
| 13>     printlevel mini
| 14>     print[ P_Basis ] 0
| 15>     print[ P_SCFInfo ] 1
| 16>     print[ P_SCFIterInfo ] 1
| 17>     print[ P_OrbEn ] 0
| 18>     print[ P_Cartesian ] 0
| 19> end
| 20> % elprop
| 21>     Dipole false
| 22> end
| 23> *xyz 1 1
| 24>  N        1.8841842265    -0.7403068532     0.6907137384
| 25>  C        1.6430402230     0.0293146846    -0.5716091163
| 26>  C        2.6468057493    -0.4736135753    -1.5731188078
| 27>  N        3.5286851740    -1.3384629376    -1.1209883305
| 28>  S        4.5543191446    -1.7704740968    -2.3185108215
| 29>  C        3.8216342658    -0.7890483872    -3.4799949390
| 30>  C        2.7634424250    -0.1175793804    -2.9271700181
| 31>  H        2.0223261108    -0.1424756576     1.5033289434
| 32>  H        2.7636110974    -1.2859721574     0.4809380628
| 33>  H        1.1336258604    -1.3971832742     0.8984492513
| 34>  H        0.6150599477    -0.1266345702    -0.8993570702
| 35>  H        1.7778365893     1.0918410053    -0.3644841977
| 36>  H        4.1824025534    -0.7425183242    -4.4980424571
| 37>  H        2.1258966330     0.5749735240    -3.4587842376
| 38> *
| 39>
| 40>                          ****END OF INPUT****
 Total Charge           Charge          ....    1
 Multiplicity           Mult            ....    1
 Number of Electrons    NEL             ....   60
FINAL SINGLE POINT ENERGY      -663.752970823399

CARTESIAN COORDINATES (ANGSTROEM)
---------------------------------
  N      1.789224   -0.000075   -1.995467
  C      0.294409   -0.055745   -2.078810
  C     -0.211190   -0.007804   -0.662539
  N      0.707042   -0.038063    0.278842
  S     -0.000106   -0.000770    1.752337
  C     -1.572801    0.058259    1.142274
  C     -1.545770    0.048949   -0.227144
  H      2.246184   -0.760688   -2.494961
  H      1.979923   -0.072667   -0.959497
  H      2.167994    0.881987   -2.336686
  H     -0.065794    0.780890   -2.677284
  H      0.006513   -0.981660   -2.578200
  H     -2.436111    0.097667    1.791814
  H     -2.419944    0.080358   -0.862147

FINAL SINGLE POINT ENERGY      -663.752971076291
                    ***********************HURRAY********************
 Multiplicity           Mult            ....    1
 Number of Electrons    NEL             ....   60
 Basis Dimension        Dim             ....  265
FINAL SINGLE POINT ENERGY      -663.752971130590

VIBRATIONAL FREQUENCIES
-----------------------

   0:         0.00 cm**-1
   1:         0.00 cm**-1
   2:         0.00 cm**-1
   3:         0.00 cm**-1
   4:         0.00 cm**-1
   5:         0.00 cm**-1
   6:        31.68 cm**-1
   7:       210.65 cm**-1
   8:       237.92 cm**-1
   9:       252.82 cm**-1
  10:       473.04 cm**-1
  11:       491.48 cm**-1
  12:       609.60 cm**-1
  13:       641.12 cm**-1
  14:       706.15 cm**-1
  15:       782.12 cm**-1
  16:       875.61 cm**-1
  17:       912.52 cm**-1
  18:       929.48 cm**-1
  19:       931.22 cm**-1
  20:       981.10 cm**-1
  21:      1005.87 cm**-1
  22:      1100.71 cm**-1
  23:      1108.24 cm**-1
  24:      1116.23 cm**-1
  25:      1238.53 cm**-1
  26:      1310.03 cm**-1
  27:      1360.03 cm**-1
  28:      1395.70 cm**-1
  29:      1459.17 cm**-1
  30:      1485.52 cm**-1
  31:      1514.77 cm**-1
  32:      1560.78 cm**-1
  33:      1637.60 cm**-1
  34:      1655.16 cm**-1
  35:      2943.32 cm**-1
  36:      3105.49 cm**-1
  37:      3156.42 cm**-1
  38:      3245.80 cm**-1
  39:      3262.47 cm**-1
  40:      3492.78 cm**-1
  41:      3553.66 cm**-1

IR SPECTRUM
-----------

 Mode    freq (cm**-1)   T**2         TX         TY         TZ
-------------------------------------------------------------------
   7:       210.65   14.511076  (  0.625873  -3.297174  -1.802222)
   8:       237.92    4.738767  (  0.441241   2.059567  -0.549778)
   9:       252.82   57.465921  ( -1.819040  -0.527508   7.340214)
  10:       473.04   42.827814  (  5.314201  -0.006346  -3.819298)
  11:       491.48    2.819490  (  0.113291  -1.666089  -0.175511)
  12:       609.60   12.162277  ( -1.620642   0.082650   3.086902)
  13:       641.12    1.364300  ( -0.350046  -0.881881   0.681215)
  14:       706.15   10.130552  (  2.540606   0.115134  -1.913797)
  15:       782.12   51.953314  ( -0.191074  -7.203958  -0.140681)
  16:       875.61    9.694788  ( -0.569610   0.228920  -3.052528)
  17:       912.52    9.922138  ( -0.917705  -2.953138   0.599108)
  18:       929.48   42.148102  ( -5.854867  -0.481030   2.763557)
  19:       931.22   14.313581  (  3.090517  -1.761090  -1.288739)
  20:       981.10    5.169346  (  0.375932   0.298300  -2.222395)
  21:      1005.87    2.820212  ( -1.653161  -0.116696  -0.271394)
  22:      1100.71   12.767638  ( -2.186470   0.007462  -2.826116)
  23:      1108.24    3.399270  (  0.182591  -1.815902   0.261592)
  24:      1116.23  100.238497  ( -2.906335   0.002166   9.580799)
  25:      1238.53    0.887826  ( -0.190997  -0.102189   0.917008)
  26:      1310.03    4.153792  ( -0.329236   1.935692  -0.546346)
  27:      1360.03   14.425231  ( -0.951747  -0.057288  -3.676429)
  28:      1395.70    4.865677  ( -0.812910  -0.037411   2.050233)
  29:      1459.17  303.923947  ( 16.165146  -0.373799  -6.517076)
  30:      1485.52   33.046670  ( -0.522579   0.475868   5.705009)
  31:      1514.77   50.277880  (  6.572335  -0.118785  -2.658606)
  32:      1560.78   15.164249  (  1.908555  -0.004358  -3.394355)
  33:      1637.60   18.956498  ( -1.265342  -3.597514   2.100785)
  34:      1655.16   23.392533  ( -0.762548   3.887932   2.773993)
  35:      2943.32  454.781729  (  7.476888   0.615065 -19.962454)
  36:      3105.49    0.181010  ( -0.178965   0.038057   0.384101)
  37:      3156.42    0.668243  ( -0.040997  -0.801525   0.155304)
  38:      3245.80    3.530432  (  0.098822  -0.012050  -1.876305)
  39:      3262.47   13.117236  ( -3.344338   0.144601   1.382654)
  40:      3492.78  126.325006  (  7.676540   1.252474  -8.113387)
  41:      3553.66  107.269588  ( -0.866787  10.235474   1.324139)

--------------------------
THERMOCHEMISTRY AT 298.15K
--------------------------

Temperature         ... 298.15 K
Pressure            ... 1.00 atm
Total Mass          ... 115.17 AMU

Throughout the following assumptions are being made:
  (1) The electronic state is orbitally nondegenerate
  (2) There are no thermally accessible electronically excited states
  (3) Hindered rotations indicated by low frequency modes) are not
      treated as such but are treated as vibrations and this may
      case some error
  (4) All equations used are the standard statistical mechanics
      equations for an ideal gas
  (5) All vibrations are strinctly harmonic

------------
INNER ENERGY
------------

The inner energy is: U= E(el) + E(ZPE) + E(vib) + E(rot) + E(trans)
    E(el)   - is the total energy from the electronic structure calculation
              = E(kin-el) + E(nuc-el) + E(el-el) + E(nuc-nuc)
    E(ZPE)  - the the zero temperature vibrational energy from the frequency calculation
    E(vib)  - the the finite temperature correction to E(ZPE) due to population
              of excietd vibrational states
    E(rot)  - is the rotational thermal energy
    E(trans)- is the translational thermal energy

Summary of contributions to the inner energy U:
Electronic energy                ...   -663.75297113 Eh
Zero point energy                ...      0.11560131 Eh      72.54 kcal/mol
Thermal vibrational correction   ...      0.00291451 Eh       1.83 kcal/mol
Thermal rotational correction    ...      0.00141627 Eh       0.89 kcal/mol
Thermal translational correction ...      0.00141627 Eh       0.89 kcal/mol
-----------------------------------------------------------------------
Total thermal energy                   -663.63162276 Eh

Summary of corrections to the electronic energy:
(perhaps to be used in another calculation)
Total thermal correction                  0.00574705 Eh       3.61 kcal/mol
Non-thermal (ZPE) correction              0.11560131 Eh      72.54 kcal/mol
-----------------------------------------------------------------------
Total correction                          0.12134837 Eh      76.15 kcal/mol

--------
ENTHALPY
--------

The enthalpy is H = U + kB*T
                kB is Boltzmann's constant
Total free energy                 ...   -663.63162276 Eh
Thermal Enthalpy correction       ...      0.00094421 Eh       0.59 kcal/mol
-----------------------------------------------------------------------
Total Enthalpy                    ...   -663.63067856 Eh

-------
ENTROPY
-------

The entropy contributions are T*S = T*(S(el)+S(vib)+S(rot)+S(trans)
     S(el)   - electronic entropy
     S(vib)  - vibrational entropy
     S(rot)  - rotational entropy
     S(trans)- translational entropy
The entropies will be listed as mutliplied by the temperature to get
units of energy

Electronic entropy                ...      0.00000000 Eh      0.00 kcal/mol
Vibrational entropy               ...      0.00445802 Eh      2.80 kcal/mol
Rotational entropy                ...      0.01215904 Eh      7.63 kcal/mol
Translational entropy             ...      0.01907132 Eh     11.97 kcal/mol
-----------------------------------------------------------------------
Final entropy term                ...      0.03568839 Eh     22.39 kcal/mol

CAUTION: The rotational entropy is not quite correctly treated here
         because it includes a symmetry number that is not yet correctly
         implemented in ORCA!
For a nonlinear molecule the correct rotational entropy is:
    S(rot) = R*(ln(qrot/sn)+1.5)
    R    = 8.31441 J/mol/K = 1.987191683e-3 kcal/mol/K
    qrot = 262100.6462382
    sn is the rotational symmetry number. We have assumed 3 here
       if it is different for your molecule then you should correct
       the printed rotational entropy by manually evaluating the equation
       as given above

For convenience we print out the resulting values for sn=1 - 12:
 sn= 1  qrot/sn=  262100.6462 T*S(rot)=     8.28 kcal/mol T*S(tot)=    23.05 kcal/mol
 sn= 2  qrot/sn=  131050.3231 T*S(rot)=     7.87 kcal/mol T*S(tot)=    22.63 kcal/mol
 sn= 3  qrot/sn=   87366.8821 T*S(rot)=     7.63 kcal/mol T*S(tot)=    22.39 kcal/mol
 sn= 4  qrot/sn=   65525.1616 T*S(rot)=     7.46 kcal/mol T*S(tot)=    22.22 kcal/mol
 sn= 5  qrot/sn=   52420.1292 T*S(rot)=     7.33 kcal/mol T*S(tot)=    22.09 kcal/mol
 sn= 6  qrot/sn=   43683.4410 T*S(rot)=     7.22 kcal/mol T*S(tot)=    21.98 kcal/mol
 sn= 7  qrot/sn=   37442.9495 T*S(rot)=     7.13 kcal/mol T*S(tot)=    21.89 kcal/mol
 sn= 8  qrot/sn=   32762.5808 T*S(rot)=     7.05 kcal/mol T*S(tot)=    21.81 kcal/mol
 sn= 9  qrot/sn=   29122.2940 T*S(rot)=     6.98 kcal/mol T*S(tot)=    21.74 kcal/mol
 sn=10  qrot/sn=   26210.0646 T*S(rot)=     6.92 kcal/mol T*S(tot)=    21.68 kcal/mol
 sn=11  qrot/sn=   23827.3315 T*S(rot)=     6.86 kcal/mol T*S(tot)=    21.62 kcal/mol
 sn=12  qrot/sn=   21841.7205 T*S(rot)=     6.81 kcal/mol T*S(tot)=    21.57 kcal/mol

-------------------
GIBBS FREE ENTHALPY
-------------------

The Gibbs free enthalpy is G = H - T*S

Total enthalpy                    ...   -663.63067856 Eh
Total entropy correction          ...     -0.03568839 Eh    -22.39 kcal/mol
-----------------------------------------------------------------------
Final Gibbs free enthalpy         ...   -663.66636694 Eh

For completeness - the Gibbs free enthalpy minus the electronic energy
G-E(el)                           ...      0.08660419 Eh     54.34 kcal/mol

                             ****ORCA TERMINATED NORMALLY****
TOTAL RUN TIME: 0 days 0 hours 30 minutes 11 seconds 110 msec
