                         Program Version 3.0.3 - RELEASE   -
|  1> ! NORI PBE0 def2-TZVP UseSym TightOPT Freq TightSCF Grid3 FinalGrid5 XYZFile
|  2> % pal
|  3>     nprocs 8
|  4> end
|  5> %method
|  6>     SymThresh 5.0e-2
|  7> end
|  8> % geom
|  9>     MaxIter 10
| 10> end
| 11> % maxcore 2000
| 12> % output
| 13>     printlevel mini
| 14>     print[ P_Basis ] 0
| 15>     print[ P_SCFInfo ] 1
| 16>     print[ P_SCFIterInfo ] 1
| 17>     print[ P_OrbEn ] 0
| 18>     print[ P_Cartesian ] 0
| 19> end
| 20> % elprop
| 21>     Dipole false
| 22> end
| 23> *xyz 1 1
| 24>  N        3.3821003930     0.0520015369    -1.0786192790
| 25>  C        2.2555718537     0.0216320798    -0.0491031346
| 26>  C        2.7618301983     0.3641828565     1.2932874168
| 27>  C        2.6937999853     1.5838531685     1.9133704244
| 28>  N        3.2437010343     1.6476614992     3.1471902192
| 29>  C        3.7340277987     0.4988597755     3.4921886803
| 30>  S        3.5485134710    -0.7551057066     2.3345002575
| 31>  H        3.0491002920    -0.1647660847    -2.0214641366
| 32>  H        4.1099635694    -0.6228348760    -0.8327170016
| 33>  H        3.8199587549     0.9761322102    -1.0927043462
| 34>  H        1.8209184472    -0.9765660459    -0.1139413302
| 35>  H        1.5179555612     0.7490846386    -0.3894599679
| 36>  H        2.2220935990     2.4655316717     1.4936655993
| 37>  H        4.2230250421     0.3036032762     4.4382465986
| 38> *
| 39>
| 40>                          ****END OF INPUT****
 Total Charge           Charge          ....    1
 Multiplicity           Mult            ....    1
 Number of Electrons    NEL             ....   60
FINAL SINGLE POINT ENERGY      -663.738502553830

CARTESIAN COORDINATES (ANGSTROEM)
---------------------------------
  N      2.402200    0.000471   -1.241561
  C      1.291805   -1.012763   -0.975603
  C      0.122022   -0.359822   -0.358202
  C     -1.019723    0.055260   -0.991264
  N     -1.948500    0.642913   -0.203315
  C     -1.545793    0.687207    1.027643
  S     -0.000709   -0.002147    1.318939
  H      3.217094   -0.428356   -1.687518
  H      2.706921    0.435389   -0.367712
  H      2.056799    0.749144   -1.846410
  H      1.740742   -1.789143   -0.355095
  H      1.037451   -1.441294   -1.945430
  H     -1.222034   -0.073280   -2.048971
  H     -2.119826    1.110236    1.842388

FINAL SINGLE POINT ENERGY      -663.738502414656
                    ***********************HURRAY********************
 Multiplicity           Mult            ....    1
 Number of Electrons    NEL             ....   60
 Basis Dimension        Dim             ....  265
FINAL SINGLE POINT ENERGY      -663.738502800251

VIBRATIONAL FREQUENCIES
-----------------------

   0:         0.00 cm**-1
   1:         0.00 cm**-1
   2:         0.00 cm**-1
   3:         0.00 cm**-1
   4:         0.00 cm**-1
   5:         0.00 cm**-1
   6:        75.68 cm**-1
   7:       137.85 cm**-1
   8:       191.53 cm**-1
   9:       302.24 cm**-1
  10:       357.59 cm**-1
  11:       523.91 cm**-1
  12:       594.14 cm**-1
  13:       626.73 cm**-1
  14:       682.92 cm**-1
  15:       761.82 cm**-1
  16:       840.17 cm**-1
  17:       850.73 cm**-1
  18:       859.37 cm**-1
  19:       884.72 cm**-1
  20:       923.40 cm**-1
  21:      1046.14 cm**-1
  22:      1083.51 cm**-1
  23:      1176.52 cm**-1
  24:      1235.54 cm**-1
  25:      1265.59 cm**-1
  26:      1328.89 cm**-1
  27:      1380.19 cm**-1
  28:      1401.46 cm**-1
  29:      1462.39 cm**-1
  30:      1482.33 cm**-1
  31:      1497.65 cm**-1
  32:      1568.37 cm**-1
  33:      1647.58 cm**-1
  34:      1660.07 cm**-1
  35:      3102.82 cm**-1
  36:      3161.78 cm**-1
  37:      3211.37 cm**-1
  38:      3239.85 cm**-1
  39:      3410.49 cm**-1
  40:      3501.74 cm**-1
  41:      3502.72 cm**-1

IR SPECTRUM
-----------

 Mode    freq (cm**-1)   T**2         TX         TY         TZ
-------------------------------------------------------------------
   6:        75.68    4.825438  (  0.934514  -0.450005   1.936393)
   7:       137.85   12.500981  (  2.091725  -2.415191  -1.514106)
   8:       191.53    0.162049  ( -0.108053   0.364650  -0.131926)
   9:       302.24    1.099934  ( -0.327486   0.709633  -0.699363)
  10:       357.59   12.924246  ( -3.324059  -0.449023   1.293543)
  11:       523.91    6.254710  ( -2.043253  -0.895692   1.130293)
  12:       594.14    0.215744  (  0.193728   0.355287  -0.228001)
  13:       626.73   20.155982  ( -2.024479  -3.929919   0.783071)
  14:       682.92    2.712281  (  1.613817   0.325193   0.046110)
  15:       761.82    0.448022  ( -0.236362   0.249322  -0.574451)
  16:       840.17    7.521019  ( -2.611253   0.181204   0.818255)
  17:       850.73   20.939938  (  1.495941   4.310938  -0.343386)
  18:       859.37   42.879678  (  4.407591   1.493570  -4.606742)
  19:       884.72   63.378120  ( -7.210304   1.903485  -2.786822)
  20:       923.40    6.722707  ( -0.225816   2.554350  -0.383416)
  21:      1046.14   10.890032  (  0.842764  -2.103132  -2.399295)
  22:      1083.51   16.905768  ( -2.064966   3.463708   0.802753)
  23:      1176.52   15.350867  (  3.642837  -1.438948   0.100171)
  24:      1235.54   11.641726  ( -3.074304   1.327606   0.654097)
  25:      1265.59   16.758123  (  3.494528  -1.616553  -1.390378)
  26:      1328.89    7.126785  (  0.111719   0.278806   2.652654)
  27:      1380.19   17.439325  (  3.101278  -1.435491  -2.400160)
  28:      1401.46   33.746469  ( -5.384188   1.349420   1.713492)
  29:      1462.39   56.910757  ( -1.777888   0.286388   7.325835)
  30:      1482.33   13.676094  (  2.515543  -2.619028  -0.699164)
  31:      1497.65  161.167617  (-10.063572  -7.453036   2.084320)
  32:      1568.37   37.923155  ( -5.588906   2.263256  -1.250981)
  33:      1647.58   56.455127  ( -3.041418   1.141903  -6.775025)
  34:      1660.07   31.008516  ( -3.446725   3.737328   2.271781)
  35:      3102.82    2.447320  ( -1.319827   0.397876   0.739643)
  36:      3161.78    0.643109  (  0.085626  -0.026683   0.796910)
  37:      3211.37    1.824704  (  1.232369  -0.538525   0.126336)
  38:      3239.85   10.053306  ( -2.120715   1.226249   2.013004)
  39:      3410.49   41.257541  (  5.349949   3.013286  -1.885656)
  40:      3501.74   84.576745  ( -1.654404   4.608640   7.784609)
  41:      3502.72   85.506473  (  5.546609  -5.773511   4.626896)

--------------------------
THERMOCHEMISTRY AT 298.15K
--------------------------

Temperature         ... 298.15 K
Pressure            ... 1.00 atm
Total Mass          ... 115.17 AMU

Throughout the following assumptions are being made:
  (1) The electronic state is orbitally nondegenerate
  (2) There are no thermally accessible electronically excited states
  (3) Hindered rotations indicated by low frequency modes) are not
      treated as such but are treated as vibrations and this may
      case some error
  (4) All equations used are the standard statistical mechanics
      equations for an ideal gas
  (5) All vibrations are strinctly harmonic

------------
INNER ENERGY
------------

The inner energy is: U= E(el) + E(ZPE) + E(vib) + E(rot) + E(trans)
    E(el)   - is the total energy from the electronic structure calculation
              = E(kin-el) + E(nuc-el) + E(el-el) + E(nuc-nuc)
    E(ZPE)  - the the zero temperature vibrational energy from the frequency calculation
    E(vib)  - the the finite temperature correction to E(ZPE) due to population
              of excietd vibrational states
    E(rot)  - is the rotational thermal energy
    E(trans)- is the translational thermal energy

Summary of contributions to the inner energy U:
Electronic energy                ...   -663.73850280 Eh
Zero point energy                ...      0.11614051 Eh      72.88 kcal/mol
Thermal vibrational correction   ...      0.00397308 Eh       2.49 kcal/mol
Thermal rotational correction    ...      0.00141627 Eh       0.89 kcal/mol
Thermal translational correction ...      0.00141627 Eh       0.89 kcal/mol
-----------------------------------------------------------------------
Total thermal energy                   -663.61555666 Eh

Summary of corrections to the electronic energy:
(perhaps to be used in another calculation)
Total thermal correction                  0.00680562 Eh       4.27 kcal/mol
Non-thermal (ZPE) correction              0.11614051 Eh      72.88 kcal/mol
-----------------------------------------------------------------------
Total correction                          0.12294614 Eh      77.15 kcal/mol

--------
ENTHALPY
--------

The enthalpy is H = U + kB*T
                kB is Boltzmann's constant
Total free energy                 ...   -663.61555666 Eh
Thermal Enthalpy correction       ...      0.00094421 Eh       0.59 kcal/mol
-----------------------------------------------------------------------
Total Enthalpy                    ...   -663.61461245 Eh

-------
ENTROPY
-------

The entropy contributions are T*S = T*(S(el)+S(vib)+S(rot)+S(trans)
     S(el)   - electronic entropy
     S(vib)  - vibrational entropy
     S(rot)  - rotational entropy
     S(trans)- translational entropy
The entropies will be listed as mutliplied by the temperature to get
units of energy

Electronic entropy                ...      0.00000000 Eh      0.00 kcal/mol
Vibrational entropy               ...      0.00702376 Eh      4.41 kcal/mol
Rotational entropy                ...      0.01219495 Eh      7.65 kcal/mol
Translational entropy             ...      0.01907132 Eh     11.97 kcal/mol
-----------------------------------------------------------------------
Final entropy term                ...      0.03829003 Eh     24.03 kcal/mol

CAUTION: The rotational entropy is not quite correctly treated here
         because it includes a symmetry number that is not yet correctly
         implemented in ORCA!
For a nonlinear molecule the correct rotational entropy is:
    S(rot) = R*(ln(qrot/sn)+1.5)
    R    = 8.31441 J/mol/K = 1.987191683e-3 kcal/mol/K
    qrot = 272260.7823462
    sn is the rotational symmetry number. We have assumed 3 here
       if it is different for your molecule then you should correct
       the printed rotational entropy by manually evaluating the equation
       as given above

For convenience we print out the resulting values for sn=1 - 12:
 sn= 1  qrot/sn=  272260.7823 T*S(rot)=     8.30 kcal/mol T*S(tot)=    24.68 kcal/mol
 sn= 2  qrot/sn=  136130.3912 T*S(rot)=     7.89 kcal/mol T*S(tot)=    24.27 kcal/mol
 sn= 3  qrot/sn=   90753.5941 T*S(rot)=     7.65 kcal/mol T*S(tot)=    24.03 kcal/mol
 sn= 4  qrot/sn=   68065.1956 T*S(rot)=     7.48 kcal/mol T*S(tot)=    23.86 kcal/mol
 sn= 5  qrot/sn=   54452.1565 T*S(rot)=     7.35 kcal/mol T*S(tot)=    23.72 kcal/mol
 sn= 6  qrot/sn=   45376.7971 T*S(rot)=     7.24 kcal/mol T*S(tot)=    23.62 kcal/mol
 sn= 7  qrot/sn=   38894.3975 T*S(rot)=     7.15 kcal/mol T*S(tot)=    23.53 kcal/mol
 sn= 8  qrot/sn=   34032.5978 T*S(rot)=     7.07 kcal/mol T*S(tot)=    23.45 kcal/mol
 sn= 9  qrot/sn=   30251.1980 T*S(rot)=     7.00 kcal/mol T*S(tot)=    23.38 kcal/mol
 sn=10  qrot/sn=   27226.0782 T*S(rot)=     6.94 kcal/mol T*S(tot)=    23.31 kcal/mol
 sn=11  qrot/sn=   24750.9802 T*S(rot)=     6.88 kcal/mol T*S(tot)=    23.26 kcal/mol
 sn=12  qrot/sn=   22688.3985 T*S(rot)=     6.83 kcal/mol T*S(tot)=    23.21 kcal/mol

-------------------
GIBBS FREE ENTHALPY
-------------------

The Gibbs free enthalpy is G = H - T*S

Total enthalpy                    ...   -663.61461245 Eh
Total entropy correction          ...     -0.03829003 Eh    -24.03 kcal/mol
-----------------------------------------------------------------------
Final Gibbs free enthalpy         ...   -663.65290248 Eh

For completeness - the Gibbs free enthalpy minus the electronic energy
G-E(el)                           ...      0.08560032 Eh     53.71 kcal/mol

                             ****ORCA TERMINATED NORMALLY****
TOTAL RUN TIME: 0 days 0 hours 28 minutes 53 seconds 699 msec
