                         Program Version 3.0.3 - RELEASE   -
|  1> ! NORI PBE0 def2-TZVP UseSym TightOPT Freq TightSCF Grid3 FinalGrid5 XYZFile
|  2> % pal
|  3>     nprocs 8
|  4> end
|  5> %method
|  6>     SymThresh 5.0e-2
|  7> end
|  8> % geom
|  9>     MaxIter 10
| 10> end
| 11> % maxcore 2000
| 12> % output
| 13>     printlevel mini
| 14>     print[ P_Basis ] 0
| 15>     print[ P_SCFInfo ] 1
| 16>     print[ P_SCFIterInfo ] 1
| 17>     print[ P_OrbEn ] 0
| 18>     print[ P_Cartesian ] 0
| 19> end
| 20> % elprop
| 21>     Dipole false
| 22> end
| 23> *xyz 1 1
| 24>  N        3.3759846998    -0.4304060811    -1.0997942092
| 25>  C        2.4297172340     0.0020477719     0.0144252752
| 26>  C        2.8950712805     1.2677705515     0.6293461219
| 27>  C        2.4949982229     2.5343008846     0.2612362442
| 28>  S        3.2959149021     3.6560754896     1.2263056925
| 29>  N        4.1343791998     2.5596920481     2.0956379773
| 30>  C        3.8328020645     1.3528306104     1.6912209989
| 31>  H        3.0865123533    -1.3114870423    -1.5317905025
| 32>  H        4.3243883854    -0.5475325632    -0.7361393367
| 33>  H        3.4207783958     0.2862580689    -1.8277953776
| 34>  H        2.4129957825    -0.8251958269     0.7254060077
| 35>  H        1.4455995923     0.0906879565    -0.4448987798
| 36>  H        1.7709819361     2.8225492810    -0.4898550035
| 37>  H        4.2914359509     0.5051488511     2.1931248916
| 38> *
| 39>
| 40>                          ****END OF INPUT****
 Total Charge           Charge          ....    1
 Multiplicity           Mult            ....    1
 Number of Electrons    NEL             ....   60
FINAL SINGLE POINT ENERGY      -663.735631320240
FINAL SINGLE POINT ENERGY      -663.735631210675
FINAL SINGLE POINT ENERGY      -663.735632085102

CARTESIAN COORDINATES (ANGSTROEM)
---------------------------------
  N      1.167184   -0.000098   -2.651928
  C      0.028711    0.750277   -1.970049
  C     -0.130436    0.291285   -0.569646
  C      0.457227    0.867133    0.536055
  S     -0.000696    0.001194    1.904232
  N     -0.925653   -1.084356    1.112610
  C     -0.915348   -0.820990   -0.168625
  H      1.291861    0.288604   -3.625494
  H      0.990044   -1.006876   -2.635877
  H      2.045774    0.157271   -2.153701
  H     -0.857400    0.556398   -2.575440
  H      0.279927    1.807999   -2.043536
  H      1.088728    1.744336    0.585407
  H     -1.509861   -1.442130   -0.833097

FINAL SINGLE POINT ENERGY      -663.735632234478
                    ***********************HURRAY********************
 Multiplicity           Mult            ....    1
 Number of Electrons    NEL             ....   60
 Basis Dimension        Dim             ....  265
FINAL SINGLE POINT ENERGY      -663.735632382674

VIBRATIONAL FREQUENCIES
-----------------------

   0:         0.00 cm**-1
   1:         0.00 cm**-1
   2:         0.00 cm**-1
   3:         0.00 cm**-1
   4:         0.00 cm**-1
   5:         0.00 cm**-1
   6:        73.74 cm**-1
   7:       136.81 cm**-1
   8:       195.03 cm**-1
   9:       322.35 cm**-1
  10:       368.27 cm**-1
  11:       521.50 cm**-1
  12:       577.95 cm**-1
  13:       668.32 cm**-1
  14:       720.76 cm**-1
  15:       818.93 cm**-1
  16:       830.09 cm**-1
  17:       846.02 cm**-1
  18:       863.33 cm**-1
  19:       904.59 cm**-1
  20:       919.74 cm**-1
  21:       987.64 cm**-1
  22:      1058.52 cm**-1
  23:      1082.74 cm**-1
  24:      1179.59 cm**-1
  25:      1265.43 cm**-1
  26:      1331.72 cm**-1
  27:      1383.32 cm**-1
  28:      1429.28 cm**-1
  29:      1439.44 cm**-1
  30:      1489.13 cm**-1
  31:      1499.37 cm**-1
  32:      1574.89 cm**-1
  33:      1649.59 cm**-1
  34:      1660.89 cm**-1
  35:      3105.81 cm**-1
  36:      3166.08 cm**-1
  37:      3184.59 cm**-1
  38:      3242.37 cm**-1
  39:      3412.94 cm**-1
  40:      3503.11 cm**-1
  41:      3505.37 cm**-1

IR SPECTRUM
-----------

 Mode    freq (cm**-1)   T**2         TX         TY         TZ
-------------------------------------------------------------------
   6:        73.74    5.182714  ( -1.970720  -0.985842  -0.571922)
   7:       136.81   12.721164  (  0.028521  -1.463180   3.252607)
   8:       195.03    0.108523  (  0.098638   0.136987  -0.282892)
   9:       322.35    0.558270  ( -0.355439  -0.469304   0.460094)
  10:       368.27   13.168722  (  2.003212  -0.464924  -2.989935)
  11:       521.50    1.663294  (  0.970715  -0.789413   0.312784)
  12:       577.95    3.080761  ( -1.310662   1.164923  -0.076675)
  13:       668.32   22.640437  (  3.817590  -2.404499  -1.511565)
  14:       720.76    3.115349  ( -0.929720   0.942571  -1.167274)
  15:       818.93    2.296140  (  0.663810   1.291932  -0.431749)
  16:       830.09   31.113304  (  4.081101  -3.263243  -1.951707)
  17:       846.02   18.106356  (  3.364986   2.594340  -0.229398)
  18:       863.33   58.149913  ( -2.331229  -0.980916   7.193962)
  19:       904.59    9.906183  ( -1.993634  -0.572909  -2.367147)
  20:       919.74   12.148532  ( -2.242576   2.663602   0.156876)
  21:       987.64    5.528527  (  0.493916   1.943159  -1.228294)
  22:      1058.52    4.813358  (  0.071981   1.353373  -1.725271)
  23:      1082.74   13.971673  ( -1.606750   1.951703  -2.753340)
  24:      1179.59   24.676731  (  0.119332   0.762012  -4.907324)
  25:      1265.43   11.989921  (  2.147920   2.596275  -0.797318)
  26:      1331.72    5.442916  ( -1.253895  -1.439831  -1.340727)
  27:      1383.32   18.114622  ( -0.608118  -0.439399   4.189480)
  28:      1429.28   18.398958  (  2.184901   1.356168  -3.433071)
  29:      1439.44   22.381649  ( -0.407031   0.642829   4.669341)
  30:      1489.13   11.872644  (  0.752320  -1.928669   2.754432)
  31:      1499.37  153.611676  (  8.901391  -5.471885  -6.665988)
  32:      1574.89   24.220192  ( -0.325327  -1.226708   4.754949)
  33:      1649.59   56.096465  (  4.719432   5.315033   2.360899)
  34:      1660.89   31.198194  (  0.753766  -2.573970   4.899460)
  35:      3105.81    2.815718  ( -0.269707  -0.458893   1.591350)
  36:      3166.08    0.203712  ( -0.255121  -0.246603  -0.278948)
  37:      3184.59    1.110867  (  0.056548  -0.060633   1.050711)
  38:      3242.37    6.019164  (  1.393175   1.924874   0.610810)
  39:      3412.94   40.777715  (  4.194770  -2.248126  -4.257646)
  40:      3503.11   83.058886  ( -0.565042   6.642266  -6.214492)
  41:      3505.37   85.083929  (  6.320502   5.009296   4.476844)

--------------------------
THERMOCHEMISTRY AT 298.15K
--------------------------

Temperature         ... 298.15 K
Pressure            ... 1.00 atm
Total Mass          ... 115.17 AMU

Throughout the following assumptions are being made:
  (1) The electronic state is orbitally nondegenerate
  (2) There are no thermally accessible electronically excited states
  (3) Hindered rotations indicated by low frequency modes) are not
      treated as such but are treated as vibrations and this may
      case some error
  (4) All equations used are the standard statistical mechanics
      equations for an ideal gas
  (5) All vibrations are strinctly harmonic

------------
INNER ENERGY
------------

The inner energy is: U= E(el) + E(ZPE) + E(vib) + E(rot) + E(trans)
    E(el)   - is the total energy from the electronic structure calculation
              = E(kin-el) + E(nuc-el) + E(el-el) + E(nuc-nuc)
    E(ZPE)  - the the zero temperature vibrational energy from the frequency calculation
    E(vib)  - the the finite temperature correction to E(ZPE) due to population
              of excietd vibrational states
    E(rot)  - is the rotational thermal energy
    E(trans)- is the translational thermal energy

Summary of contributions to the inner energy U:
Electronic energy                ...   -663.73563238 Eh
Zero point energy                ...      0.11600264 Eh      72.79 kcal/mol
Thermal vibrational correction   ...      0.00391757 Eh       2.46 kcal/mol
Thermal rotational correction    ...      0.00141627 Eh       0.89 kcal/mol
Thermal translational correction ...      0.00141627 Eh       0.89 kcal/mol
-----------------------------------------------------------------------
Total thermal energy                   -663.61287963 Eh

Summary of corrections to the electronic energy:
(perhaps to be used in another calculation)
Total thermal correction                  0.00675011 Eh       4.24 kcal/mol
Non-thermal (ZPE) correction              0.11600264 Eh      72.79 kcal/mol
-----------------------------------------------------------------------
Total correction                          0.12275275 Eh      77.03 kcal/mol

--------
ENTHALPY
--------

The enthalpy is H = U + kB*T
                kB is Boltzmann's constant
Total free energy                 ...   -663.61287963 Eh
Thermal Enthalpy correction       ...      0.00094421 Eh       0.59 kcal/mol
-----------------------------------------------------------------------
Total Enthalpy                    ...   -663.61193542 Eh

-------
ENTROPY
-------

The entropy contributions are T*S = T*(S(el)+S(vib)+S(rot)+S(trans)
     S(el)   - electronic entropy
     S(vib)  - vibrational entropy
     S(rot)  - rotational entropy
     S(trans)- translational entropy
The entropies will be listed as mutliplied by the temperature to get
units of energy

Electronic entropy                ...      0.00000000 Eh      0.00 kcal/mol
Vibrational entropy               ...      0.00693693 Eh      4.35 kcal/mol
Rotational entropy                ...      0.01220869 Eh      7.66 kcal/mol
Translational entropy             ...      0.01907132 Eh     11.97 kcal/mol
-----------------------------------------------------------------------
Final entropy term                ...      0.03821694 Eh     23.98 kcal/mol

CAUTION: The rotational entropy is not quite correctly treated here
         because it includes a symmetry number that is not yet correctly
         implemented in ORCA!
For a nonlinear molecule the correct rotational entropy is:
    S(rot) = R*(ln(qrot/sn)+1.5)
    R    = 8.31441 J/mol/K = 1.987191683e-3 kcal/mol/K
    qrot = 276251.5227841
    sn is the rotational symmetry number. We have assumed 3 here
       if it is different for your molecule then you should correct
       the printed rotational entropy by manually evaluating the equation
       as given above

For convenience we print out the resulting values for sn=1 - 12:
 sn= 1  qrot/sn=  276251.5228 T*S(rot)=     8.31 kcal/mol T*S(tot)=    24.63 kcal/mol
 sn= 2  qrot/sn=  138125.7614 T*S(rot)=     7.90 kcal/mol T*S(tot)=    24.22 kcal/mol
 sn= 3  qrot/sn=   92083.8409 T*S(rot)=     7.66 kcal/mol T*S(tot)=    23.98 kcal/mol
 sn= 4  qrot/sn=   69062.8807 T*S(rot)=     7.49 kcal/mol T*S(tot)=    23.81 kcal/mol
 sn= 5  qrot/sn=   55250.3046 T*S(rot)=     7.36 kcal/mol T*S(tot)=    23.68 kcal/mol
 sn= 6  qrot/sn=   46041.9205 T*S(rot)=     7.25 kcal/mol T*S(tot)=    23.57 kcal/mol
 sn= 7  qrot/sn=   39464.5033 T*S(rot)=     7.16 kcal/mol T*S(tot)=    23.48 kcal/mol
 sn= 8  qrot/sn=   34531.4403 T*S(rot)=     7.08 kcal/mol T*S(tot)=    23.40 kcal/mol
 sn= 9  qrot/sn=   30694.6136 T*S(rot)=     7.01 kcal/mol T*S(tot)=    23.33 kcal/mol
 sn=10  qrot/sn=   27625.1523 T*S(rot)=     6.95 kcal/mol T*S(tot)=    23.27 kcal/mol
 sn=11  qrot/sn=   25113.7748 T*S(rot)=     6.89 kcal/mol T*S(tot)=    23.21 kcal/mol
 sn=12  qrot/sn=   23020.9602 T*S(rot)=     6.84 kcal/mol T*S(tot)=    23.16 kcal/mol

-------------------
GIBBS FREE ENTHALPY
-------------------

The Gibbs free enthalpy is G = H - T*S

Total enthalpy                    ...   -663.61193542 Eh
Total entropy correction          ...     -0.03821694 Eh    -23.98 kcal/mol
-----------------------------------------------------------------------
Final Gibbs free enthalpy         ...   -663.65015237 Eh

For completeness - the Gibbs free enthalpy minus the electronic energy
G-E(el)                           ...      0.08548002 Eh     53.64 kcal/mol

                             ****ORCA TERMINATED NORMALLY****
TOTAL RUN TIME: 0 days 0 hours 31 minutes 37 seconds 982 msec
