                         Program Version 3.0.3 - RELEASE   -
|  1> ! NORI PBE0 def2-TZVP UseSym TightOPT Freq TightSCF Grid3 FinalGrid5 XYZFile
|  2> % pal
|  3>     nprocs 8
|  4> end
|  5> %method
|  6>     SymThresh 5.0e-2
|  7> end
|  8> % geom
|  9>     MaxIter 10
| 10> end
| 11> % maxcore 2000
| 12> % output
| 13>     printlevel mini
| 14>     print[ P_Basis ] 0
| 15>     print[ P_SCFInfo ] 1
| 16>     print[ P_SCFIterInfo ] 1
| 17>     print[ P_OrbEn ] 0
| 18>     print[ P_Cartesian ] 0
| 19> end
| 20> % elprop
| 21>     Dipole false
| 22> end
| 23> *xyz 1 1
| 24>  N        3.4633284851    -0.4681574808    -0.8718350368
| 25>  C        2.6709655662     0.4328607781     0.0268323169
| 26>  C        2.9758523977    -0.0137617611     1.4262351592
| 27>  C        2.8185511120     0.6630459938     2.5947989400
| 28>  S        3.2464458776    -0.3562473444     3.8893771585
| 29>  C        3.6161540236    -1.6046605283     2.7960799716
| 30>  N        3.4290969108    -1.2926695576     1.5443432648
| 31>  H        2.9886880339    -0.6835518035    -1.7466728451
| 32>  H        3.6051544706    -1.3311581353    -0.2884517153
| 33>  H        4.3833903669    -0.0843978132    -1.0863864288
| 34>  H        1.6173151453     0.2870301686    -0.2204232829
| 35>  H        2.9338662760     1.4714415632    -0.1670964026
| 36>  H        2.4764999456     1.6736292476     2.7587028405
| 37>  H        3.9796213888    -2.5672233271     3.1292460600
| 38> *
| 39>
| 40>                          ****END OF INPUT****
 Total Charge           Charge          ....    1
 Multiplicity           Mult            ....    1
 Number of Electrons    NEL             ....   60
FINAL SINGLE POINT ENERGY      -663.757494972725

CARTESIAN COORDINATES (ANGSTROEM)
---------------------------------
  N      0.346641    0.000356   -2.764202
  C     -0.608070    0.740082   -1.875954
  C     -0.265762    0.329567   -0.474072
  C     -0.562247    0.952727    0.697373
  S     -0.000538   -0.000010    1.991578
  C      0.600880   -1.151357    0.894712
  N      0.394063   -0.856259   -0.358075
  H     -0.063736   -0.277826   -3.653944
  H      0.618846   -0.835834   -2.187813
  H      1.193400    0.537593   -2.949818
  H     -1.615385    0.422206   -2.152270
  H     -0.520401    1.810971   -2.050993
  H     -1.072899    1.889250    0.863307
  H      1.113721   -2.043870    1.226847

FINAL SINGLE POINT ENERGY      -663.757495273811
                    ***********************HURRAY********************
 Multiplicity           Mult            ....    1
 Number of Electrons    NEL             ....   60
 Basis Dimension        Dim             ....  265
FINAL SINGLE POINT ENERGY      -663.757495340836

VIBRATIONAL FREQUENCIES
-----------------------

   0:         0.00 cm**-1
   1:         0.00 cm**-1
   2:         0.00 cm**-1
   3:         0.00 cm**-1
   4:         0.00 cm**-1
   5:         0.00 cm**-1
   6:        67.68 cm**-1
   7:       206.81 cm**-1
   8:       259.29 cm**-1
   9:       290.96 cm**-1
  10:       432.54 cm**-1
  11:       501.06 cm**-1
  12:       613.80 cm**-1
  13:       672.60 cm**-1
  14:       732.14 cm**-1
  15:       786.26 cm**-1
  16:       855.49 cm**-1
  17:       866.71 cm**-1
  18:       904.00 cm**-1
  19:       912.74 cm**-1
  20:       955.45 cm**-1
  21:       998.24 cm**-1
  22:      1102.28 cm**-1
  23:      1110.91 cm**-1
  24:      1165.37 cm**-1
  25:      1262.36 cm**-1
  26:      1319.68 cm**-1
  27:      1371.12 cm**-1
  28:      1399.45 cm**-1
  29:      1459.06 cm**-1
  30:      1491.52 cm**-1
  31:      1496.08 cm**-1
  32:      1589.39 cm**-1
  33:      1630.41 cm**-1
  34:      1668.74 cm**-1
  35:      3015.09 cm**-1
  36:      3097.27 cm**-1
  37:      3162.97 cm**-1
  38:      3249.76 cm**-1
  39:      3270.07 cm**-1
  40:      3482.32 cm**-1
  41:      3546.33 cm**-1

IR SPECTRUM
-----------

 Mode    freq (cm**-1)   T**2         TX         TY         TZ
-------------------------------------------------------------------
   6:        67.68   11.286396  (  2.269081   2.374371  -0.707128)
   7:       206.81   23.662859  ( -2.847723   0.363176  -3.927014)
   8:       259.29   27.379769  ( -0.371346  -2.303701   4.683464)
   9:       290.96   13.232651  (  0.106971   2.244309  -2.860819)
  10:       432.54   34.148104  ( -1.002480   0.819279   5.698414)
  11:       501.06    6.359932  (  2.101253   1.132832  -0.813240)
  12:       613.80    9.691334  (  0.820816   0.147748  -2.999294)
  13:       672.60    8.106710  ( -0.284015  -0.210908   2.825166)
  14:       732.14    0.402421  (  0.624831  -0.080664   0.074161)
  15:       786.26    9.840596  ( -2.834692  -1.337739  -0.124791)
  16:       855.49   31.792085  (  5.001365   2.570701   0.412232)
  17:       866.71    1.573541  ( -0.240928   1.168215  -0.388288)
  18:       904.00   20.773657  ( -3.098745  -3.225091   0.877625)
  19:       912.74   24.419401  (  1.171593  -1.886582  -4.414474)
  20:       955.45   33.533291  (  1.428355  -1.197354  -5.482649)
  21:       998.24    3.195690  ( -0.093256   1.728102   0.447946)
  22:      1102.28   95.650540  (  2.405243  -4.081816   8.555941)
  23:      1110.91    8.580650  ( -0.844023  -1.502441   2.368744)
  24:      1165.37    8.040988  ( -0.328427   1.296433   2.500477)
  25:      1262.36   14.534410  ( -0.710413   1.271512  -3.523206)
  26:      1319.68    8.559728  ( -0.629521  -2.844019   0.273838)
  27:      1371.12    3.910736  ( -1.536797   1.206729  -0.304624)
  28:      1399.45    9.707629  (  1.832194  -2.476685   0.465539)
  29:      1459.06  347.666776  ( -5.117204   4.971285  17.226936)
  30:      1491.52   19.623564  (  3.463344  -2.546337   1.070038)
  31:      1496.08   26.804046  (  0.743334  -1.105798  -5.002870)
  32:      1589.39    4.528998  ( -2.113356   0.116398  -0.221757)
  33:      1630.41   25.521154  ( -3.882619  -3.122785   0.833447)
  34:      1668.74   32.083812  (  2.808716  -0.479088   4.895447)
  35:      3015.09  388.523899  (  1.864662  -8.972973  17.450865)
  36:      3097.27    0.137892  ( -0.240547  -0.029801  -0.281320)
  37:      3162.97    0.857546  (  0.403615   0.670761  -0.494693)
  38:      3249.76   11.200395  (  1.597067  -2.831163   0.796421)
  39:      3270.07   12.490081  (  1.481993  -2.802128  -1.562645)
  40:      3482.32  112.434998  (  3.721711   2.502889  -9.608299)
  41:      3546.33  101.097419  ( -7.135527  -4.710857  -5.290511)

--------------------------
THERMOCHEMISTRY AT 298.15K
--------------------------

Temperature         ... 298.15 K
Pressure            ... 1.00 atm
Total Mass          ... 115.17 AMU

Throughout the following assumptions are being made:
  (1) The electronic state is orbitally nondegenerate
  (2) There are no thermally accessible electronically excited states
  (3) Hindered rotations indicated by low frequency modes) are not
      treated as such but are treated as vibrations and this may
      case some error
  (4) All equations used are the standard statistical mechanics
      equations for an ideal gas
  (5) All vibrations are strinctly harmonic

------------
INNER ENERGY
------------

The inner energy is: U= E(el) + E(ZPE) + E(vib) + E(rot) + E(trans)
    E(el)   - is the total energy from the electronic structure calculation
              = E(kin-el) + E(nuc-el) + E(el-el) + E(nuc-nuc)
    E(ZPE)  - the the zero temperature vibrational energy from the frequency calculation
    E(vib)  - the the finite temperature correction to E(ZPE) due to population
              of excietd vibrational states
    E(rot)  - is the rotational thermal energy
    E(trans)- is the translational thermal energy

Summary of contributions to the inner energy U:
Electronic energy                ...   -663.75749534 Eh
Zero point energy                ...      0.11606334 Eh      72.83 kcal/mol
Thermal vibrational correction   ...      0.00365785 Eh       2.30 kcal/mol
Thermal rotational correction    ...      0.00141627 Eh       0.89 kcal/mol
Thermal translational correction ...      0.00141627 Eh       0.89 kcal/mol
-----------------------------------------------------------------------
Total thermal energy                   -663.63494161 Eh

Summary of corrections to the electronic energy:
(perhaps to be used in another calculation)
Total thermal correction                  0.00649039 Eh       4.07 kcal/mol
Non-thermal (ZPE) correction              0.11606334 Eh      72.83 kcal/mol
-----------------------------------------------------------------------
Total correction                          0.12255373 Eh      76.90 kcal/mol

--------
ENTHALPY
--------

The enthalpy is H = U + kB*T
                kB is Boltzmann's constant
Total free energy                 ...   -663.63494161 Eh
Thermal Enthalpy correction       ...      0.00094421 Eh       0.59 kcal/mol
-----------------------------------------------------------------------
Total Enthalpy                    ...   -663.63399740 Eh

-------
ENTROPY
-------

The entropy contributions are T*S = T*(S(el)+S(vib)+S(rot)+S(trans)
     S(el)   - electronic entropy
     S(vib)  - vibrational entropy
     S(rot)  - rotational entropy
     S(trans)- translational entropy
The entropies will be listed as mutliplied by the temperature to get
units of energy

Electronic entropy                ...      0.00000000 Eh      0.00 kcal/mol
Vibrational entropy               ...      0.00632582 Eh      3.97 kcal/mol
Rotational entropy                ...      0.01213619 Eh      7.62 kcal/mol
Translational entropy             ...      0.01907132 Eh     11.97 kcal/mol
-----------------------------------------------------------------------
Final entropy term                ...      0.03753334 Eh     23.55 kcal/mol

CAUTION: The rotational entropy is not quite correctly treated here
         because it includes a symmetry number that is not yet correctly
         implemented in ORCA!
For a nonlinear molecule the correct rotational entropy is:
    S(rot) = R*(ln(qrot/sn)+1.5)
    R    = 8.31441 J/mol/K = 1.987191683e-3 kcal/mol/K
    qrot = 255834.4251786
    sn is the rotational symmetry number. We have assumed 3 here
       if it is different for your molecule then you should correct
       the printed rotational entropy by manually evaluating the equation
       as given above

For convenience we print out the resulting values for sn=1 - 12:
 sn= 1  qrot/sn=  255834.4252 T*S(rot)=     8.27 kcal/mol T*S(tot)=    24.20 kcal/mol
 sn= 2  qrot/sn=  127917.2126 T*S(rot)=     7.86 kcal/mol T*S(tot)=    23.79 kcal/mol
 sn= 3  qrot/sn=   85278.1417 T*S(rot)=     7.62 kcal/mol T*S(tot)=    23.55 kcal/mol
 sn= 4  qrot/sn=   63958.6063 T*S(rot)=     7.45 kcal/mol T*S(tot)=    23.38 kcal/mol
 sn= 5  qrot/sn=   51166.8850 T*S(rot)=     7.31 kcal/mol T*S(tot)=    23.25 kcal/mol
 sn= 6  qrot/sn=   42639.0709 T*S(rot)=     7.20 kcal/mol T*S(tot)=    23.14 kcal/mol
 sn= 7  qrot/sn=   36547.7750 T*S(rot)=     7.11 kcal/mol T*S(tot)=    23.05 kcal/mol
 sn= 8  qrot/sn=   31979.3031 T*S(rot)=     7.03 kcal/mol T*S(tot)=    22.97 kcal/mol
 sn= 9  qrot/sn=   28426.0472 T*S(rot)=     6.96 kcal/mol T*S(tot)=    22.90 kcal/mol
 sn=10  qrot/sn=   25583.4425 T*S(rot)=     6.90 kcal/mol T*S(tot)=    22.84 kcal/mol
 sn=11  qrot/sn=   23257.6750 T*S(rot)=     6.85 kcal/mol T*S(tot)=    22.78 kcal/mol
 sn=12  qrot/sn=   21319.5354 T*S(rot)=     6.79 kcal/mol T*S(tot)=    22.73 kcal/mol

-------------------
GIBBS FREE ENTHALPY
-------------------

The Gibbs free enthalpy is G = H - T*S

Total enthalpy                    ...   -663.63399740 Eh
Total entropy correction          ...     -0.03753334 Eh    -23.55 kcal/mol
-----------------------------------------------------------------------
Final Gibbs free enthalpy         ...   -663.67153074 Eh

For completeness - the Gibbs free enthalpy minus the electronic energy
G-E(el)                           ...      0.08596460 Eh     53.94 kcal/mol

                             ****ORCA TERMINATED NORMALLY****
TOTAL RUN TIME: 0 days 0 hours 29 minutes 58 seconds 342 msec
