                         Program Version 3.0.3 - RELEASE   -
|  1> ! NORI PBE0 def2-TZVP UseSym TightOPT Freq TightSCF Grid3 FinalGrid5 XYZFile
|  2> % pal
|  3>     nprocs 8
|  4> end
|  5> %method
|  6>     SymThresh 5.0e-2
|  7> end
|  8> % geom
|  9>     MaxIter 10
| 10> end
| 11> % maxcore 2000
| 12> % output
| 13>     printlevel mini
| 14>     print[ P_Basis ] 0
| 15>     print[ P_SCFInfo ] 1
| 16>     print[ P_SCFIterInfo ] 1
| 17>     print[ P_OrbEn ] 0
| 18>     print[ P_Cartesian ] 0
| 19> end
| 20> % elprop
| 21>     Dipole false
| 22> end
| 23> *xyz 1 1
| 24>  N        3.3720717807     0.2430481381    -0.8297525016
| 25>  C        2.3523280553    -0.6243102111    -0.1598392575
| 26>  C        2.7577653326    -0.6407383018     1.2877272097
| 27>  N        3.8164334211     0.0336629135     1.6336249748
| 28>  C        4.0610184989    -0.0754038225     2.9710579971
| 29>  C        3.1671979036    -0.8481853535     3.6404448153
| 30>  S        1.9868240377    -1.4546651227     2.5635303734
| 31>  H        2.9681350171     1.0783717769    -1.2488141690
| 32>  H        3.9059324897    -0.2507021642    -1.5423258595
| 33>  H        4.0087276191     0.5149453761    -0.0166872853
| 34>  H        2.3712803786    -1.6168472293    -0.6108683514
| 35>  H        1.3602627665    -0.1985654977    -0.3122558019
| 36>  H        4.9093358745     0.4309246373     3.4086584889
| 37>  H        3.1376868248    -1.0912351391     4.6918693671
| 38> *
| 39>
| 40>                          ****END OF INPUT****
 Total Charge           Charge          ....    1
 Multiplicity           Mult            ....    1
 Number of Electrons    NEL             ....   60
FINAL SINGLE POINT ENERGY      -663.754238134092

CARTESIAN COORDINATES (ANGSTROEM)
---------------------------------
  N     -2.198135    1.512488    0.000000
  C     -0.721570    1.758938   -0.000000
  C     -0.106748    0.386989   -0.000000
  N     -0.905889   -0.641119   -0.000000
  C     -0.208664   -1.813417   -0.000000
  C      1.140611   -1.660059    0.000000
  S      1.547019    0.000073   -0.000000
  H     -2.662234    1.884274   -0.826482
  H     -2.662234    1.884273    0.826482
  H     -2.250220    0.445925   -0.000000
  H     -0.452595    2.338170    0.883642
  H     -0.452595    2.338170   -0.883642
  H     -0.736313   -2.756340    0.000000
  H      1.907308   -2.419954    0.000000

FINAL SINGLE POINT ENERGY      -663.754238304228
                    ***********************HURRAY********************
 Multiplicity           Mult            ....    1
 Number of Electrons    NEL             ....   60
 Basis Dimension        Dim             ....  265
FINAL SINGLE POINT ENERGY      -663.754238337490

VIBRATIONAL FREQUENCIES
-----------------------

   0:         0.00 cm**-1
   1:         0.00 cm**-1
   2:         0.00 cm**-1
   3:         0.00 cm**-1
   4:         0.00 cm**-1
   5:         0.00 cm**-1
   6:        42.77 cm**-1
   7:       218.45 cm**-1
   8:       257.81 cm**-1
   9:       273.02 cm**-1
  10:       420.73 cm**-1
  11:       499.09 cm**-1
  12:       594.73 cm**-1
  13:       630.69 cm**-1
  14:       774.72 cm**-1
  15:       778.90 cm**-1
  16:       813.74 cm**-1
  17:       906.79 cm**-1
  18:       910.79 cm**-1
  19:       931.61 cm**-1
  20:       994.05 cm**-1
  21:      1102.96 cm**-1
  22:      1111.96 cm**-1
  23:      1125.66 cm**-1
  24:      1194.01 cm**-1
  25:      1221.96 cm**-1
  26:      1307.08 cm**-1
  27:      1360.51 cm**-1
  28:      1379.44 cm**-1
  29:      1468.48 cm**-1
  30:      1488.51 cm**-1
  31:      1503.80 cm**-1
  32:      1562.17 cm**-1
  33:      1639.77 cm**-1
  34:      1649.07 cm**-1
  35:      2769.70 cm**-1
  36:      3103.74 cm**-1
  37:      3152.44 cm**-1
  38:      3254.28 cm**-1
  39:      3278.26 cm**-1
  40:      3495.18 cm**-1
  41:      3558.03 cm**-1

IR SPECTRUM
-----------

 Mode    freq (cm**-1)   T**2         TX         TY         TZ
-------------------------------------------------------------------
   6:        42.77    6.262197  ( -0.000015   0.000360   2.502438)
   7:       218.45   12.127945  ( -0.000145  -0.000140  -3.482520)
   8:       257.81   56.553462  (  2.672851  -7.029177  -0.000010)
   9:       273.02    0.177325  ( -0.000373   0.001018  -0.421098)
  10:       420.73   67.440744  ( -6.724854   4.713500  -0.000005)
  11:       499.09    4.101665  (  0.000221  -0.000178  -2.025257)
  12:       594.73    0.918209  (  0.001414  -0.958231   0.000003)
  13:       630.69    6.393756  ( -0.000056   0.000023  -2.528588)
  14:       774.72   48.270464  ( -0.000104  -0.000016  -6.947695)
  15:       778.90    3.458698  (  0.318646   1.832256  -0.000011)
  16:       813.74   18.476833  (  4.251859  -0.631289  -0.000003)
  17:       906.79    1.126612  (  0.089613   1.057630   0.000016)
  18:       910.79    2.647464  ( -0.000050   0.000005  -1.627103)
  19:       931.61    3.111551  ( -0.000042   0.000011  -1.763959)
  20:       994.05   10.186958  ( -3.008306   1.066326   0.000000)
  21:      1102.96    7.665021  ( -2.602918  -0.943312  -0.000012)
  22:      1111.96    4.840729  ( -0.000154   0.000383   2.200166)
  23:      1125.66  140.625717  ( -4.961145  10.770922  -0.000090)
  24:      1194.01   62.112382  (  7.355750  -2.829369  -0.000001)
  25:      1221.96   13.626672  ( -2.055277   3.066351   0.000003)
  26:      1307.08    2.780253  ( -0.000048   0.000068  -1.667409)
  27:      1360.51   30.500003  ( -4.651622   2.976980   0.000003)
  28:      1379.44   45.662885  ( -6.581493  -1.531938   0.000007)
  29:      1468.48  162.063996  (-12.622698   1.652720  -0.000003)
  30:      1488.51   43.274611  ( -6.398718   1.526767  -0.000001)
  31:      1503.80  115.610804  (  8.737315  -6.266589   0.000003)
  32:      1562.17   11.295617  (  2.384161   2.368838   0.000002)
  33:      1639.77   10.609423  ( -2.014455   2.559569  -0.000579)
  34:      1649.07   27.428466  (  0.000215  -0.000300  -5.237219)
  35:      2769.70  548.034701  (-11.360763  20.468702  -0.000001)
  36:      3103.74    0.034585  (  0.119970  -0.142099   0.000002)
  37:      3152.44    1.052906  ( -0.000002  -0.000053  -1.026112)
  38:      3254.28    7.242494  (  2.690620  -0.055323   0.000000)
  39:      3278.26   15.153684  ( -2.506924   2.978089  -0.000000)
  40:      3495.18  125.379889  (  8.803875  -6.918936   0.000015)
  41:      3558.03  106.726346  ( -0.000011  -0.000002  10.330844)

--------------------------
THERMOCHEMISTRY AT 298.15K
--------------------------

Temperature         ... 298.15 K
Pressure            ... 1.00 atm
Total Mass          ... 115.17 AMU

Throughout the following assumptions are being made:
  (1) The electronic state is orbitally nondegenerate
  (2) There are no thermally accessible electronically excited states
  (3) Hindered rotations indicated by low frequency modes) are not
      treated as such but are treated as vibrations and this may
      case some error
  (4) All equations used are the standard statistical mechanics
      equations for an ideal gas
  (5) All vibrations are strinctly harmonic

------------
INNER ENERGY
------------

The inner energy is: U= E(el) + E(ZPE) + E(vib) + E(rot) + E(trans)
    E(el)   - is the total energy from the electronic structure calculation
              = E(kin-el) + E(nuc-el) + E(el-el) + E(nuc-nuc)
    E(ZPE)  - the the zero temperature vibrational energy from the frequency calculation
    E(vib)  - the the finite temperature correction to E(ZPE) due to population
              of excietd vibrational states
    E(rot)  - is the rotational thermal energy
    E(trans)- is the translational thermal energy

Summary of contributions to the inner energy U:
Electronic energy                ...   -663.75423834 Eh
Zero point energy                ...      0.11567380 Eh      72.59 kcal/mol
Thermal vibrational correction   ...      0.00372576 Eh       2.34 kcal/mol
Thermal rotational correction    ...      0.00141627 Eh       0.89 kcal/mol
Thermal translational correction ...      0.00141627 Eh       0.89 kcal/mol
-----------------------------------------------------------------------
Total thermal energy                   -663.63200623 Eh

Summary of corrections to the electronic energy:
(perhaps to be used in another calculation)
Total thermal correction                  0.00655830 Eh       4.12 kcal/mol
Non-thermal (ZPE) correction              0.11567380 Eh      72.59 kcal/mol
-----------------------------------------------------------------------
Total correction                          0.12223210 Eh      76.70 kcal/mol

--------
ENTHALPY
--------

The enthalpy is H = U + kB*T
                kB is Boltzmann's constant
Total free energy                 ...   -663.63200623 Eh
Thermal Enthalpy correction       ...      0.00094421 Eh       0.59 kcal/mol
-----------------------------------------------------------------------
Total Enthalpy                    ...   -663.63106202 Eh

-------
ENTROPY
-------

The entropy contributions are T*S = T*(S(el)+S(vib)+S(rot)+S(trans)
     S(el)   - electronic entropy
     S(vib)  - vibrational entropy
     S(rot)  - rotational entropy
     S(trans)- translational entropy
The entropies will be listed as mutliplied by the temperature to get
units of energy

Electronic entropy                ...      0.00000000 Eh      0.00 kcal/mol
Vibrational entropy               ...      0.00678661 Eh      4.26 kcal/mol
Rotational entropy                ...      0.01214960 Eh      7.62 kcal/mol
Translational entropy             ...      0.01907132 Eh     11.97 kcal/mol
-----------------------------------------------------------------------
Final entropy term                ...      0.03800754 Eh     23.85 kcal/mol

CAUTION: The rotational entropy is not quite correctly treated here
         because it includes a symmetry number that is not yet correctly
         implemented in ORCA!
For a nonlinear molecule the correct rotational entropy is:
    S(rot) = R*(ln(qrot/sn)+1.5)
    R    = 8.31441 J/mol/K = 1.987191683e-3 kcal/mol/K
    qrot = 259494.1010201
    sn is the rotational symmetry number. We have assumed 3 here
       if it is different for your molecule then you should correct
       the printed rotational entropy by manually evaluating the equation
       as given above

For convenience we print out the resulting values for sn=1 - 12:
 sn= 1  qrot/sn=  259494.1010 T*S(rot)=     8.27 kcal/mol T*S(tot)=    24.50 kcal/mol
 sn= 2  qrot/sn=  129747.0505 T*S(rot)=     7.86 kcal/mol T*S(tot)=    24.09 kcal/mol
 sn= 3  qrot/sn=   86498.0337 T*S(rot)=     7.62 kcal/mol T*S(tot)=    23.85 kcal/mol
 sn= 4  qrot/sn=   64873.5253 T*S(rot)=     7.45 kcal/mol T*S(tot)=    23.68 kcal/mol
 sn= 5  qrot/sn=   51898.8202 T*S(rot)=     7.32 kcal/mol T*S(tot)=    23.55 kcal/mol
 sn= 6  qrot/sn=   43249.0168 T*S(rot)=     7.21 kcal/mol T*S(tot)=    23.44 kcal/mol
 sn= 7  qrot/sn=   37070.5859 T*S(rot)=     7.12 kcal/mol T*S(tot)=    23.35 kcal/mol
 sn= 8  qrot/sn=   32436.7626 T*S(rot)=     7.04 kcal/mol T*S(tot)=    23.27 kcal/mol
 sn= 9  qrot/sn=   28832.6779 T*S(rot)=     6.97 kcal/mol T*S(tot)=    23.20 kcal/mol
 sn=10  qrot/sn=   25949.4101 T*S(rot)=     6.91 kcal/mol T*S(tot)=    23.14 kcal/mol
 sn=11  qrot/sn=   23590.3728 T*S(rot)=     6.85 kcal/mol T*S(tot)=    23.08 kcal/mol
 sn=12  qrot/sn=   21624.5084 T*S(rot)=     6.80 kcal/mol T*S(tot)=    23.03 kcal/mol

-------------------
GIBBS FREE ENTHALPY
-------------------

The Gibbs free enthalpy is G = H - T*S

Total enthalpy                    ...   -663.63106202 Eh
Total entropy correction          ...     -0.03800754 Eh    -23.85 kcal/mol
-----------------------------------------------------------------------
Final Gibbs free enthalpy         ...   -663.66906957 Eh

For completeness - the Gibbs free enthalpy minus the electronic energy
G-E(el)                           ...      0.08516877 Eh     53.44 kcal/mol

                             ****ORCA TERMINATED NORMALLY****
TOTAL RUN TIME: 0 days 0 hours 31 minutes 38 seconds 436 msec
