                         Program Version 3.0.3 - RELEASE   -
|  1> ! NORI PBE0 def2-TZVP UseSym TightOPT Freq TightSCF Grid3 FinalGrid5 XYZFile
|  2> % pal
|  3>     nprocs 8
|  4> end
|  5> %method
|  6>     SymThresh 5.0e-2
|  7> end
|  8> % geom
|  9>     MaxIter 10
| 10> end
| 11> % maxcore 2000
| 12> % output
| 13>     printlevel mini
| 14>     print[ P_Basis ] 0
| 15>     print[ P_SCFInfo ] 1
| 16>     print[ P_SCFIterInfo ] 1
| 17>     print[ P_OrbEn ] 0
| 18>     print[ P_Cartesian ] 0
| 19> end
| 20> % elprop
| 21>     Dipole false
| 22> end
| 23> *xyz 1 1
| 24>  O        1.2538239909    -0.0955145258     1.2561622081
| 25>  S        2.1032708473     0.0425335715     0.1096678361
| 26>  O        1.6241387201     0.1226469789    -1.2220730131
| 27>  C        3.3194941077     1.2965895772     0.5097905343
| 28>  C        4.2910325980     0.6296235968     1.4816334975
| 29>  N        3.9344944052    -0.8534649733     1.5857303076
| 30>  C        3.3122883616    -1.2901554131     0.3124133717
| 31>  H        2.7832410181     2.1348501285     0.9542914532
| 32>  H        3.8014733962     1.6144184606    -0.4140702220
| 33>  H        4.2485780141     1.0419448362     2.4876758554
| 34>  H        5.3160025610     0.6775497709     1.1176836717
| 35>  H        4.7585706540    -1.4053179239     1.8292839703
| 36>  H        3.2381900498    -0.9784019112     2.3286371171
| 37>  H        4.0506553177    -1.2961414512    -0.4893282295
| 38>  H        2.8090259583    -2.2499507219     0.4181316417
| 39> *
| 40>
| 41>                          ****END OF INPUT****
 Total Charge           Charge          ....    1
 Multiplicity           Mult            ....    1
 Number of Electrons    NEL             ....   64
FINAL SINGLE POINT ENERGY      -721.881537644115
FINAL SINGLE POINT ENERGY      -721.881538065872

CARTESIAN COORDINATES (ANGSTROEM)
---------------------------------
  O      1.432023   -0.001708    0.794761
  S     -0.000204   -0.000018    0.729702
  O     -0.841655   -0.109478    1.865019
  C     -0.470829    1.321685   -0.385879
  C     -0.141970    0.811348   -1.787705
  N      0.291917   -0.650926   -1.683994
  C     -0.370062   -1.267861   -0.509173
  H      0.110224    2.200863   -0.107007
  H     -1.533201    1.522493   -0.250631
  H      0.670271    1.354266   -2.266106
  H     -1.016757    0.830499   -2.435648
  H      0.091645   -1.148191   -2.553190
  H      1.304291   -0.688667   -1.522790
  H     -1.441118   -1.367385   -0.684777
  H      0.093503   -2.214824   -0.236555

FINAL SINGLE POINT ENERGY      -721.881538251503
                    ***********************HURRAY********************
 Multiplicity           Mult            ....    1
 Number of Electrons    NEL             ....   64
 Basis Dimension        Dim             ....  271
FINAL SINGLE POINT ENERGY      -721.881538322892

VIBRATIONAL FREQUENCIES
-----------------------

   0:         0.00 cm**-1
   1:         0.00 cm**-1
   2:         0.00 cm**-1
   3:         0.00 cm**-1
   4:         0.00 cm**-1
   5:         0.00 cm**-1
   6:        81.55 cm**-1
   7:       188.94 cm**-1
   8:       266.38 cm**-1
   9:       336.54 cm**-1
  10:       408.57 cm**-1
  11:       442.41 cm**-1
  12:       561.25 cm**-1
  13:       582.98 cm**-1
  14:       690.09 cm**-1
  15:       741.71 cm**-1
  16:       797.27 cm**-1
  17:       853.11 cm**-1
  18:       908.81 cm**-1
  19:       963.06 cm**-1
  20:       983.82 cm**-1
  21:      1009.00 cm**-1
  22:      1047.50 cm**-1
  23:      1144.48 cm**-1
  24:      1188.00 cm**-1
  25:      1218.03 cm**-1
  26:      1233.24 cm**-1
  27:      1264.31 cm**-1
  28:      1314.66 cm**-1
  29:      1346.36 cm**-1
  30:      1401.37 cm**-1
  31:      1419.56 cm**-1
  32:      1456.57 cm**-1
  33:      1462.75 cm**-1
  34:      1465.41 cm**-1
  35:      1499.17 cm**-1
  36:      1625.52 cm**-1
  37:      3110.29 cm**-1
  38:      3113.26 cm**-1
  39:      3122.97 cm**-1
  40:      3172.98 cm**-1
  41:      3190.02 cm**-1
  42:      3197.62 cm**-1
  43:      3409.71 cm**-1
  44:      3491.33 cm**-1

IR SPECTRUM
-----------

 Mode    freq (cm**-1)   T**2         TX         TY         TZ
-------------------------------------------------------------------
   6:        81.55    2.209461  (  1.114266   0.713605  -0.677231)
   7:       188.94   11.500870  (  0.396978   1.247072   3.128592)
   8:       266.38    0.927547  ( -0.223009   0.084131   0.933132)
   9:       336.54    2.298801  ( -0.393306   0.865208  -1.181324)
  10:       408.57   18.784622  (  1.104642   0.905888   4.091913)
  11:       442.41   19.686238  (  0.460903  -4.405673   0.252682)
  12:       561.25    3.259648  ( -0.117124  -1.786096  -0.236201)
  13:       582.98   25.603835  (  1.369760  -2.383505   4.248117)
  14:       690.09   27.493381  ( -1.698129  -3.519062  -3.496562)
  15:       741.71    8.435949  (  0.354405  -2.855271   0.397206)
  16:       797.27   12.741548  ( -1.858539  -3.003836  -0.514148)
  17:       853.11    5.840360  (  0.001735   2.089825   1.213667)
  18:       908.81   26.123307  ( -1.071073   4.941098  -0.749442)
  19:       963.06    3.285382  ( -0.515932   1.651400  -0.540439)
  20:       983.82    2.055314  (  0.395297  -0.419686   1.312600)
  21:      1009.00    2.129378  (  0.005422  -1.238936   0.770965)
  22:      1047.50   13.746387  ( -0.033950  -2.767030  -2.467546)
  23:      1144.48    2.841074  (  0.976612  -0.656227   1.206926)
  24:      1188.00   41.456527  ( -3.614359   1.706660  -5.047796)
  25:      1218.03    8.082010  (  1.589468   2.357008  -0.010664)
  26:      1233.24   74.744794  ( -4.701691  -1.616349  -7.072928)
  27:      1264.31   34.054814  (  2.837278  -1.935957   4.717705)
  28:      1314.66   15.338131  ( -1.604718   0.966023  -3.439449)
  29:      1346.36   18.933289  (  1.929742  -1.640687   3.538012)
  30:      1401.37    3.400942  ( -0.577655   1.664235  -0.545507)
  31:      1419.56   53.315195  (  1.824625   5.442966  -4.512212)
  32:      1456.57   22.536408  ( -0.948857   3.973259   2.418531)
  33:      1462.75   90.107542  ( -7.950780  -1.514518   4.959726)
  34:      1465.41  119.293570  ( -8.876456   0.869253   6.304483)
  35:      1499.17   11.275577  ( -0.822355   1.438613  -2.920565)
  36:      1625.52   69.578577  (  4.826382  -3.559288  -5.797938)
  37:      3110.29   16.263734  ( -0.207109   4.025906   0.113665)
  38:      3113.26    2.986422  (  0.628394   1.609732   0.017522)
  39:      3122.97    1.054037  (  0.124288   1.014789   0.093767)
  40:      3172.98    4.803184  (  1.614644   1.472179   0.169703)
  41:      3190.02    5.998771  (  2.007982   1.402342   0.014694)
  42:      3197.62    9.640630  ( -2.242612   2.106283  -0.418199)
  43:      3409.71   78.058936  (  7.985520  -2.784115  -2.557168)
  44:      3491.33  114.248351  (  4.571141   4.546351   8.525474)

--------------------------
THERMOCHEMISTRY AT 298.15K
--------------------------

Temperature         ... 298.15 K
Pressure            ... 1.00 atm
Total Mass          ... 122.16 AMU

Throughout the following assumptions are being made:
  (1) The electronic state is orbitally nondegenerate
  (2) There are no thermally accessible electronically excited states
  (3) Hindered rotations indicated by low frequency modes) are not
      treated as such but are treated as vibrations and this may
      case some error
  (4) All equations used are the standard statistical mechanics
      equations for an ideal gas
  (5) All vibrations are strinctly harmonic

------------
INNER ENERGY
------------

The inner energy is: U= E(el) + E(ZPE) + E(vib) + E(rot) + E(trans)
    E(el)   - is the total energy from the electronic structure calculation
              = E(kin-el) + E(nuc-el) + E(el-el) + E(nuc-nuc)
    E(ZPE)  - the the zero temperature vibrational energy from the frequency calculation
    E(vib)  - the the finite temperature correction to E(ZPE) due to population
              of excietd vibrational states
    E(rot)  - is the rotational thermal energy
    E(trans)- is the translational thermal energy

Summary of contributions to the inner energy U:
Electronic energy                ...   -721.88153832 Eh
Zero point energy                ...      0.12691811 Eh      79.64 kcal/mol
Thermal vibrational correction   ...      0.00381128 Eh       2.39 kcal/mol
Thermal rotational correction    ...      0.00141627 Eh       0.89 kcal/mol
Thermal translational correction ...      0.00141627 Eh       0.89 kcal/mol
-----------------------------------------------------------------------
Total thermal energy                   -721.74797638 Eh

Summary of corrections to the electronic energy:
(perhaps to be used in another calculation)
Total thermal correction                  0.00664383 Eh       4.17 kcal/mol
Non-thermal (ZPE) correction              0.12691811 Eh      79.64 kcal/mol
-----------------------------------------------------------------------
Total correction                          0.13356194 Eh      83.81 kcal/mol

--------
ENTHALPY
--------

The enthalpy is H = U + kB*T
                kB is Boltzmann's constant
Total free energy                 ...   -721.74797638 Eh
Thermal Enthalpy correction       ...      0.00094421 Eh       0.59 kcal/mol
-----------------------------------------------------------------------
Total Enthalpy                    ...   -721.74703218 Eh

-------
ENTROPY
-------

The entropy contributions are T*S = T*(S(el)+S(vib)+S(rot)+S(trans)
     S(el)   - electronic entropy
     S(vib)  - vibrational entropy
     S(rot)  - rotational entropy
     S(trans)- translational entropy
The entropies will be listed as mutliplied by the temperature to get
units of energy

Electronic entropy                ...      0.00000000 Eh      0.00 kcal/mol
Vibrational entropy               ...      0.00641573 Eh      4.03 kcal/mol
Rotational entropy                ...      0.01198993 Eh      7.52 kcal/mol
Translational entropy             ...      0.01915475 Eh     12.02 kcal/mol
-----------------------------------------------------------------------
Final entropy term                ...      0.03756041 Eh     23.57 kcal/mol

CAUTION: The rotational entropy is not quite correctly treated here
         because it includes a symmetry number that is not yet correctly
         implemented in ORCA!
For a nonlinear molecule the correct rotational entropy is:
    S(rot) = R*(ln(qrot/sn)+1.5)
    R    = 8.31441 J/mol/K = 1.987191683e-3 kcal/mol/K
    qrot = 219119.1195176
    sn is the rotational symmetry number. We have assumed 3 here
       if it is different for your molecule then you should correct
       the printed rotational entropy by manually evaluating the equation
       as given above

For convenience we print out the resulting values for sn=1 - 12:
 sn= 1  qrot/sn=  219119.1195 T*S(rot)=     8.17 kcal/mol T*S(tot)=    24.22 kcal/mol
 sn= 2  qrot/sn=  109559.5598 T*S(rot)=     7.76 kcal/mol T*S(tot)=    23.81 kcal/mol
 sn= 3  qrot/sn=   73039.7065 T*S(rot)=     7.52 kcal/mol T*S(tot)=    23.57 kcal/mol
 sn= 4  qrot/sn=   54779.7799 T*S(rot)=     7.35 kcal/mol T*S(tot)=    23.40 kcal/mol
 sn= 5  qrot/sn=   43823.8239 T*S(rot)=     7.22 kcal/mol T*S(tot)=    23.27 kcal/mol
 sn= 6  qrot/sn=   36519.8533 T*S(rot)=     7.11 kcal/mol T*S(tot)=    23.16 kcal/mol
 sn= 7  qrot/sn=   31302.7314 T*S(rot)=     7.02 kcal/mol T*S(tot)=    23.07 kcal/mol
 sn= 8  qrot/sn=   27389.8899 T*S(rot)=     6.94 kcal/mol T*S(tot)=    22.99 kcal/mol
 sn= 9  qrot/sn=   24346.5688 T*S(rot)=     6.87 kcal/mol T*S(tot)=    22.92 kcal/mol
 sn=10  qrot/sn=   21911.9120 T*S(rot)=     6.81 kcal/mol T*S(tot)=    22.86 kcal/mol
 sn=11  qrot/sn=   19919.9200 T*S(rot)=     6.75 kcal/mol T*S(tot)=    22.80 kcal/mol
 sn=12  qrot/sn=   18259.9266 T*S(rot)=     6.70 kcal/mol T*S(tot)=    22.75 kcal/mol

-------------------
GIBBS FREE ENTHALPY
-------------------

The Gibbs free enthalpy is G = H - T*S

Total enthalpy                    ...   -721.74703218 Eh
Total entropy correction          ...     -0.03756041 Eh    -23.57 kcal/mol
-----------------------------------------------------------------------
Final Gibbs free enthalpy         ...   -721.78459258 Eh

For completeness - the Gibbs free enthalpy minus the electronic energy
G-E(el)                           ...      0.09694574 Eh     60.83 kcal/mol

                             ****ORCA TERMINATED NORMALLY****
TOTAL RUN TIME: 0 days 0 hours 34 minutes 58 seconds 985 msec
