                         Program Version 3.0.3 - RELEASE   -
|  1> ! NORI PBE0 def2-TZVP UseSym TightOPT Freq TightSCF Grid3 FinalGrid5 XYZFile
|  2> % pal
|  3>     nprocs 8
|  4> end
|  5> %method
|  6>     SymThresh 5.0e-2
|  7> end
|  8> % geom
|  9>     MaxIter 10
| 10> end
| 11> % maxcore 2000
| 12> % output
| 13>     printlevel mini
| 14>     print[ P_Basis ] 0
| 15>     print[ P_SCFInfo ] 1
| 16>     print[ P_SCFIterInfo ] 1
| 17>     print[ P_OrbEn ] 0
| 18>     print[ P_Cartesian ] 0
| 19> end
| 20> % elprop
| 21>     Dipole false
| 22> end
| 23> *xyz 1 1
| 24>  C        0.8175047079     0.0149948856     0.1274092663
| 25>  N        2.3070439658    -0.0580032627     0.0565215345
| 26>  C        2.8311076894    -1.3925173749    -0.3619470379
| 27>  C        4.3473776398    -1.3940989211    -0.5207935418
| 28>  O        4.9730823679    -2.3964267890    -0.4001918682
| 29>  H        0.5282834814     1.0145125875     0.4472481598
| 30>  H        0.4680947997    -0.7265772535     0.8428123470
| 31>  H        0.4142150649    -0.1975100361    -0.8608073335
| 32>  H        2.6455394650     0.6583309918    -0.5911476495
| 33>  H        2.6968797075     0.1858019041     0.9705091618
| 34>  H        2.5293062272    -2.1358125101     0.3757373260
| 35>  H        2.3707618906    -1.6402403067    -1.3226450157
| 36>  H        4.8224529929    -0.4224839148    -0.7807553488
| 37> *
| 38>
| 39>                          ****END OF INPUT****
 Total Charge           Charge          ....    1
 Multiplicity           Mult            ....    1
 Number of Electrons    NEL             ....   40
 Basis Dimension        Dim             ....  203
FINAL SINGLE POINT ENERGY      -248.636985956476
FINAL SINGLE POINT ENERGY      -248.636982679048
FINAL SINGLE POINT ENERGY      -248.636987887049
FINAL SINGLE POINT ENERGY      -248.636988577409
FINAL SINGLE POINT ENERGY      -248.636992249445
FINAL SINGLE POINT ENERGY      -248.636995449872
FINAL SINGLE POINT ENERGY      -248.636999545970
FINAL SINGLE POINT ENERGY      -248.637002724077
FINAL SINGLE POINT ENERGY      -248.637004737560

CARTESIAN COORDINATES (ANGSTROEM)
---------------------------------
  C     -0.329572    0.319743   -2.424272
  N      0.402978   -0.029621   -1.170564
  C     -0.433400    0.050738    0.063609
  C      0.329757   -0.366678    1.316297
  O     -0.122456   -0.160845    2.394603
  H      0.356619    0.245175   -3.266056
  H     -0.706800    1.336319   -2.333210
  H     -1.155965   -0.377367   -2.547373
  H      0.785555   -0.974268   -1.260784
  H      1.211346    0.589807   -1.073384
  H     -0.795980    1.073594    0.172060
  H     -1.293233   -0.610077   -0.070684
  H      1.305449   -0.881524    1.166285

FINAL SINGLE POINT ENERGY      -248.637005119470

VIBRATIONAL FREQUENCIES
-----------------------

   0:         0.00 cm**-1
   1:         0.00 cm**-1
   2:         0.00 cm**-1
   3:         0.00 cm**-1
   4:         0.00 cm**-1
   5:         0.00 cm**-1
   6:   -105050.77 cm**-1 ***imaginary mode***
   7:    -63613.73 cm**-1 ***imaginary mode***
   8:    -58910.30 cm**-1 ***imaginary mode***
   9:    -55264.50 cm**-1 ***imaginary mode***
  10:    -48874.98 cm**-1 ***imaginary mode***
  11:    -35911.23 cm**-1 ***imaginary mode***
  12:    -23079.53 cm**-1 ***imaginary mode***
  13:    -20373.16 cm**-1 ***imaginary mode***
  14:    -18763.00 cm**-1 ***imaginary mode***
  15:    -14961.93 cm**-1 ***imaginary mode***
  16:    -12724.59 cm**-1 ***imaginary mode***
  17:     -9726.63 cm**-1 ***imaginary mode***
  18:     -4355.93 cm**-1 ***imaginary mode***
  19:     -2773.28 cm**-1 ***imaginary mode***
  20:     -2504.86 cm**-1 ***imaginary mode***
  21:     -1284.44 cm**-1 ***imaginary mode***
  22:     -1117.15 cm**-1 ***imaginary mode***
  23:      -714.59 cm**-1 ***imaginary mode***
  24:      -447.54 cm**-1 ***imaginary mode***
  25:       407.59 cm**-1
  26:       657.55 cm**-1
  27:       945.73 cm**-1
  28:      1086.16 cm**-1
  29:      1107.38 cm**-1
  30:      1161.14 cm**-1
  31:      1245.34 cm**-1
  32:      1351.94 cm**-1
  33:      1503.27 cm**-1
  34:      1587.99 cm**-1
  35:      2056.94 cm**-1
  36:      2103.32 cm**-1
  37:      3141.31 cm**-1
  38:     32192.04 cm**-1

IR SPECTRUM
-----------

 Mode    freq (cm**-1)   T**2         TX         TY         TZ
-------------------------------------------------------------------
  25:       407.59    1.710393  ( -0.484051  -0.492595   1.110603)
  26:       657.55   30.496707  ( -3.643505   2.975371  -2.892878)
  27:       945.73   16.896248  ( -1.763239  -0.928444   3.595167)
  28:      1086.16    2.775436  (  1.588830  -0.333107  -0.374292)
  29:      1107.38   27.412582  (  2.048694  -4.665443  -1.203777)
  30:      1161.14    4.317062  ( -0.083805  -0.303570   2.053749)
  31:      1245.34   43.158449  (  2.167426  -5.751089  -2.320710)
  32:      1351.94   31.490872  ( -0.733337   1.397737  -5.385111)
  33:      1503.27   16.180385  ( -0.146328  -3.254213   2.359888)
  34:      1587.99    9.894281  (  1.685258   0.110846  -2.653658)
  35:      2056.94  104.603723  (  6.713492  -7.447597  -2.016444)
  36:      2103.32   96.122308  (  6.563069  -7.274703   0.356554)
  37:      3141.31    1.451525  (  0.375345   0.758377  -0.857616)
  38:     32192.04  3639.865368  ( 47.494685 -18.961530 -32.009071)

--------------------------
THERMOCHEMISTRY AT 298.15K
--------------------------

Temperature         ... 298.15 K
Pressure            ... 1.00 atm
Total Mass          ... 74.10 AMU

Throughout the following assumptions are being made:
  (1) The electronic state is orbitally nondegenerate
  (2) There are no thermally accessible electronically excited states
  (3) Hindered rotations indicated by low frequency modes) are not
      treated as such but are treated as vibrations and this may
      case some error
  (4) All equations used are the standard statistical mechanics
      equations for an ideal gas
  (5) All vibrations are strinctly harmonic

------------
INNER ENERGY
------------

The inner energy is: U= E(el) + E(ZPE) + E(vib) + E(rot) + E(trans)
    E(el)   - is the total energy from the electronic structure calculation
              = E(kin-el) + E(nuc-el) + E(el-el) + E(nuc-nuc)
    E(ZPE)  - the the zero temperature vibrational energy from the frequency calculation
    E(vib)  - the the finite temperature correction to E(ZPE) due to population
              of excietd vibrational states
    E(rot)  - is the rotational thermal energy
    E(trans)- is the translational thermal energy

Summary of contributions to the inner energy U:
Electronic energy                ...   -248.63700512 Eh
Zero point energy                ...      0.11515616 Eh      72.26 kcal/mol
Thermal vibrational correction   ...      0.00058063 Eh       0.36 kcal/mol
Thermal rotational correction    ...      0.00141627 Eh       0.89 kcal/mol
Thermal translational correction ...      0.00141627 Eh       0.89 kcal/mol
-----------------------------------------------------------------------
Total thermal energy                   -248.51843578 Eh

Summary of corrections to the electronic energy:
(perhaps to be used in another calculation)
Total thermal correction                  0.00341318 Eh       2.14 kcal/mol
Non-thermal (ZPE) correction              0.11515616 Eh      72.26 kcal/mol
-----------------------------------------------------------------------
Total correction                          0.11856934 Eh      74.40 kcal/mol

--------
ENTHALPY
--------

The enthalpy is H = U + kB*T
                kB is Boltzmann's constant
Total free energy                 ...   -248.51843578 Eh
Thermal Enthalpy correction       ...      0.00094421 Eh       0.59 kcal/mol
-----------------------------------------------------------------------
Total Enthalpy                    ...   -248.51749157 Eh

-------
ENTROPY
-------

The entropy contributions are T*S = T*(S(el)+S(vib)+S(rot)+S(trans)
     S(el)   - electronic entropy
     S(vib)  - vibrational entropy
     S(rot)  - rotational entropy
     S(trans)- translational entropy
The entropies will be listed as mutliplied by the temperature to get
units of energy

Electronic entropy                ...      0.00000000 Eh      0.00 kcal/mol
Vibrational entropy               ...      0.00079111 Eh      0.50 kcal/mol
Rotational entropy                ...      0.01110792 Eh      6.97 kcal/mol
Translational entropy             ...      0.01844677 Eh     11.58 kcal/mol
-----------------------------------------------------------------------
Final entropy term                ...      0.03034580 Eh     19.04 kcal/mol

CAUTION: The rotational entropy is not quite correctly treated here
         because it includes a symmetry number that is not yet correctly
         implemented in ORCA!
For a nonlinear molecule the correct rotational entropy is:
    S(rot) = R*(ln(qrot/sn)+1.5)
    R    = 8.31441 J/mol/K = 1.987191683e-3 kcal/mol/K
    qrot = 86096.4537707
    sn is the rotational symmetry number. We have assumed 3 here
       if it is different for your molecule then you should correct
       the printed rotational entropy by manually evaluating the equation
       as given above

For convenience we print out the resulting values for sn=1 - 12:
 sn= 1  qrot/sn=   86096.4538 T*S(rot)=     7.62 kcal/mol T*S(tot)=    19.69 kcal/mol
 sn= 2  qrot/sn=   43048.2269 T*S(rot)=     7.21 kcal/mol T*S(tot)=    19.28 kcal/mol
 sn= 3  qrot/sn=   28698.8179 T*S(rot)=     6.97 kcal/mol T*S(tot)=    19.04 kcal/mol
 sn= 4  qrot/sn=   21524.1134 T*S(rot)=     6.80 kcal/mol T*S(tot)=    18.87 kcal/mol
 sn= 5  qrot/sn=   17219.2908 T*S(rot)=     6.67 kcal/mol T*S(tot)=    18.74 kcal/mol
 sn= 6  qrot/sn=   14349.4090 T*S(rot)=     6.56 kcal/mol T*S(tot)=    18.63 kcal/mol
 sn= 7  qrot/sn=   12299.4934 T*S(rot)=     6.47 kcal/mol T*S(tot)=    18.54 kcal/mol
 sn= 8  qrot/sn=   10762.0567 T*S(rot)=     6.39 kcal/mol T*S(tot)=    18.46 kcal/mol
 sn= 9  qrot/sn=    9566.2726 T*S(rot)=     6.32 kcal/mol T*S(tot)=    18.39 kcal/mol
 sn=10  qrot/sn=    8609.6454 T*S(rot)=     6.26 kcal/mol T*S(tot)=    18.33 kcal/mol
 sn=11  qrot/sn=    7826.9503 T*S(rot)=     6.20 kcal/mol T*S(tot)=    18.27 kcal/mol
 sn=12  qrot/sn=    7174.7045 T*S(rot)=     6.15 kcal/mol T*S(tot)=    18.22 kcal/mol

-------------------
GIBBS FREE ENTHALPY
-------------------

The Gibbs free enthalpy is G = H - T*S

Total enthalpy                    ...   -248.51749157 Eh
Total entropy correction          ...     -0.03034580 Eh    -19.04 kcal/mol
-----------------------------------------------------------------------
Final Gibbs free enthalpy         ...   -248.54783737 Eh

For completeness - the Gibbs free enthalpy minus the electronic energy
G-E(el)                           ...      0.08916775 Eh     55.95 kcal/mol

                             ****ORCA TERMINATED NORMALLY****
TOTAL RUN TIME: 0 days 0 hours 14 minutes 40 seconds 799 msec
