                         Program Version 3.0.3 - RELEASE   -
|  1> ! NORI PBE0 def2-TZVP UseSym TightOPT Freq TightSCF Grid3 FinalGrid5 XYZFile
|  2> % pal
|  3>     nprocs 8
|  4> end
|  5> %method
|  6>     SymThresh 5.0e-2
|  7> end
|  8> % geom
|  9>     MaxIter 10
| 10> end
| 11> % maxcore 2000
| 12> % output
| 13>     printlevel mini
| 14>     print[ P_Basis ] 0
| 15>     print[ P_SCFInfo ] 1
| 16>     print[ P_SCFIterInfo ] 1
| 17>     print[ P_OrbEn ] 0
| 18>     print[ P_Cartesian ] 0
| 19> end
| 20> % elprop
| 21>     Dipole false
| 22> end
| 23> *xyz 1 1
| 24>  C        1.1034670208     0.3358273354    -0.1368079496
| 25>  C        2.4722358350    -0.3017434475     0.0963293293
| 26>  C        2.9106237113    -0.2338793783     1.4763355776
| 27>  C        3.2654207267    -0.1553274956     2.6245438773
| 28>  C        3.7076742162    -0.0416801654     3.9879175665
| 29>  N        3.4564523218    -1.3515351817     4.7180886749
| 30>  H        0.8393645764     0.2591987996    -1.1918895134
| 31>  H        1.1110696070     1.3910835498     0.1375980379
| 32>  H        0.3304479741    -0.1667479276     0.4453653021
| 33>  H        3.2337609957     0.1865493798    -0.5209431136
| 34>  H        2.4642082975    -1.3533638393    -0.2091311828
| 35>  H        3.1689466185     0.7283035097     4.5450533848
| 36>  H        4.7793301099     0.1544730449     4.0702481077
| 37>  H        2.4601620843    -1.5800082522     4.6914105060
| 38>  H        3.7585486643    -1.3126846956     5.6943041629
| 39>  H        3.9545072404    -2.1122852361     4.2506272323
| 40> *
| 41>
| 42>                          ****END OF INPUT****
 Total Charge           Charge          ....    1
 Multiplicity           Mult            ....    1
 Number of Electrons    NEL             ....   46
 Basis Dimension        Dim             ....  246
FINAL SINGLE POINT ENERGY      -250.781845053038
FINAL SINGLE POINT ENERGY      -250.781845483425
FINAL SINGLE POINT ENERGY      -250.781846169453
FINAL SINGLE POINT ENERGY      -250.781846849282
FINAL SINGLE POINT ENERGY      -250.781848173327
FINAL SINGLE POINT ENERGY      -250.781849075386
FINAL SINGLE POINT ENERGY      -250.781849927458
FINAL SINGLE POINT ENERGY      -250.781850848985
FINAL SINGLE POINT ENERGY      -250.781850336561

CARTESIAN COORDINATES (ANGSTROEM)
---------------------------------
  C      1.062287   -0.045556   -2.797188
  C      0.129077    0.818239   -1.949522
  C     -0.135338    0.255637   -0.639947
  C     -0.352137   -0.236846    0.437372
  C     -0.630387   -0.839370    1.712853
  N     -0.091006    0.045764    2.825004
  H      1.216772    0.427611   -3.767166
  H      0.635898   -1.035195   -2.963960
  H      2.033809   -0.164738   -2.316287
  H     -0.830101    0.961505   -2.457742
  H      0.553396    1.818574   -1.811902
  H     -0.149622   -1.812834    1.834908
  H     -1.700318   -0.952883    1.903187
  H      0.916612    0.175768    2.709428
  H     -0.267046   -0.349300    3.751669
  H     -0.523671    0.970897    2.775285

FINAL SINGLE POINT ENERGY      -250.781850641334

VIBRATIONAL FREQUENCIES
-----------------------

   0:         0.00 cm**-1
   1:         0.00 cm**-1
   2:         0.00 cm**-1
   3:         0.00 cm**-1
   4:         0.00 cm**-1
   5:         0.00 cm**-1
   6:  -2148739.90 cm**-1 ***imaginary mode***
   7:  -2006351.29 cm**-1 ***imaginary mode***
   8:  -1895588.97 cm**-1 ***imaginary mode***
   9:  -1622974.85 cm**-1 ***imaginary mode***
  10:  -1461336.33 cm**-1 ***imaginary mode***
  11:  -1240897.12 cm**-1 ***imaginary mode***
  12:  -1168313.59 cm**-1 ***imaginary mode***
  13:   -640338.92 cm**-1 ***imaginary mode***
  14:   -512906.67 cm**-1 ***imaginary mode***
  15:   -466132.61 cm**-1 ***imaginary mode***
  16:   -411932.69 cm**-1 ***imaginary mode***
  17:   -377951.45 cm**-1 ***imaginary mode***
  18:   -267415.48 cm**-1 ***imaginary mode***
  19:   -253077.35 cm**-1 ***imaginary mode***
  20:   -221730.93 cm**-1 ***imaginary mode***
  21:   -203647.95 cm**-1 ***imaginary mode***
  22:   -198353.51 cm**-1 ***imaginary mode***
  23:   -179006.09 cm**-1 ***imaginary mode***
  24:   -163262.08 cm**-1 ***imaginary mode***
  25:   -154503.39 cm**-1 ***imaginary mode***
  26:   -149721.79 cm**-1 ***imaginary mode***
  27:   -131238.14 cm**-1 ***imaginary mode***
  28:   -125672.04 cm**-1 ***imaginary mode***
  29:   -119559.25 cm**-1 ***imaginary mode***
  30:   -104651.36 cm**-1 ***imaginary mode***
  31:   -101795.42 cm**-1 ***imaginary mode***
  32:    -98528.32 cm**-1 ***imaginary mode***
  33:    -89621.79 cm**-1 ***imaginary mode***
  34:    -73010.91 cm**-1 ***imaginary mode***
  35:    -47758.70 cm**-1 ***imaginary mode***
  36:    -36022.81 cm**-1 ***imaginary mode***
  37:    -23252.01 cm**-1 ***imaginary mode***
  38:      7604.40 cm**-1
  39:     38200.34 cm**-1
  40:     47902.56 cm**-1
  41:     56849.96 cm**-1
  42:     92353.58 cm**-1
  43:    106336.50 cm**-1
  44:    142668.11 cm**-1
  45:    175810.92 cm**-1
  46:    214215.39 cm**-1
  47:    216080.81 cm**-1

IR SPECTRUM
-----------

 Mode    freq (cm**-1)   T**2         TX         TY         TZ
-------------------------------------------------------------------
  38:      7604.40  40661.637587  (-65.263829 -178.945393 -66.187737)
  39:     38200.34  233988.340407  (-106.668879 -130.091671 453.526458)
  40:     47902.56  1444185.235462  (-472.593773 -838.681668 719.342353)
  41:     56849.96  86656.300123  (-55.057953 -189.158245 218.732897)
  42:     92353.58  758969.204035  (362.721380 -46.665713 -790.711525)
  43:    106336.50  1944088.118186  (408.495234 1153.704341 -667.971598)
  44:    142668.11  24580.261871  ( 45.877618 117.639206 -92.932897)
  45:    175810.92  2961086.752591  (762.772457 1450.609650 -524.401158)
  46:    214215.39  6197155.639337  (1271.155607 2140.068238  37.775664)
  47:    216080.81  9608589.729018  (-1509.578379 -2169.322741 1619.815327)

--------------------------
THERMOCHEMISTRY AT 298.15K
--------------------------

Temperature         ... 298.15 K
Pressure            ... 1.00 atm
Total Mass          ... 84.14 AMU

Throughout the following assumptions are being made:
  (1) The electronic state is orbitally nondegenerate
  (2) There are no thermally accessible electronically excited states
  (3) Hindered rotations indicated by low frequency modes) are not
      treated as such but are treated as vibrations and this may
      case some error
  (4) All equations used are the standard statistical mechanics
      equations for an ideal gas
  (5) All vibrations are strinctly harmonic

------------
INNER ENERGY
------------

The inner energy is: U= E(el) + E(ZPE) + E(vib) + E(rot) + E(trans)
    E(el)   - is the total energy from the electronic structure calculation
              = E(kin-el) + E(nuc-el) + E(el-el) + E(nuc-nuc)
    E(ZPE)  - the the zero temperature vibrational energy from the frequency calculation
    E(vib)  - the the finite temperature correction to E(ZPE) due to population
              of excietd vibrational states
    E(rot)  - is the rotational thermal energy
    E(trans)- is the translational thermal energy

Summary of contributions to the inner energy U:
Electronic energy                ...   -250.78185064 Eh
Zero point energy                ...      2.50147945 Eh    1569.70 kcal/mol
Thermal vibrational correction   ...      0.00000000 Eh       0.00 kcal/mol
Thermal rotational correction    ...      0.00141627 Eh       0.89 kcal/mol
Thermal translational correction ...      0.00141627 Eh       0.89 kcal/mol
-----------------------------------------------------------------------
Total thermal energy                   -248.27753865 Eh

Summary of corrections to the electronic energy:
(perhaps to be used in another calculation)
Total thermal correction                  0.00283254 Eh       1.78 kcal/mol
Non-thermal (ZPE) correction              2.50147945 Eh    1569.70 kcal/mol
-----------------------------------------------------------------------
Total correction                          2.50431200 Eh    1571.48 kcal/mol

--------
ENTHALPY
--------

The enthalpy is H = U + kB*T
                kB is Boltzmann's constant
Total free energy                 ...   -248.27753865 Eh
Thermal Enthalpy correction       ...      0.00094421 Eh       0.59 kcal/mol
-----------------------------------------------------------------------
Total Enthalpy                    ...   -248.27659444 Eh

-------
ENTROPY
-------

The entropy contributions are T*S = T*(S(el)+S(vib)+S(rot)+S(trans)
     S(el)   - electronic entropy
     S(vib)  - vibrational entropy
     S(rot)  - rotational entropy
     S(trans)- translational entropy
The entropies will be listed as mutliplied by the temperature to get
units of energy

Electronic entropy                ...      0.00000000 Eh      0.00 kcal/mol
Vibrational entropy               ...      0.00000000 Eh      0.00 kcal/mol
Rotational entropy                ...      0.01190607 Eh      7.47 kcal/mol
Translational entropy             ...      0.01862670 Eh     11.69 kcal/mol
-----------------------------------------------------------------------
Final entropy term                ...      0.03053277 Eh     19.16 kcal/mol

CAUTION: The rotational entropy is not quite correctly treated here
         because it includes a symmetry number that is not yet correctly
         implemented in ORCA!
For a nonlinear molecule the correct rotational entropy is:
    S(rot) = R*(ln(qrot/sn)+1.5)
    R    = 8.31441 J/mol/K = 1.987191683e-3 kcal/mol/K
    qrot = 200497.8086406
    sn is the rotational symmetry number. We have assumed 3 here
       if it is different for your molecule then you should correct
       the printed rotational entropy by manually evaluating the equation
       as given above

For convenience we print out the resulting values for sn=1 - 12:
 sn= 1  qrot/sn=  200497.8086 T*S(rot)=     8.12 kcal/mol T*S(tot)=    19.81 kcal/mol
 sn= 2  qrot/sn=  100248.9043 T*S(rot)=     7.71 kcal/mol T*S(tot)=    19.40 kcal/mol
 sn= 3  qrot/sn=   66832.6029 T*S(rot)=     7.47 kcal/mol T*S(tot)=    19.16 kcal/mol
 sn= 4  qrot/sn=   50124.4522 T*S(rot)=     7.30 kcal/mol T*S(tot)=    18.99 kcal/mol
 sn= 5  qrot/sn=   40099.5617 T*S(rot)=     7.17 kcal/mol T*S(tot)=    18.86 kcal/mol
 sn= 6  qrot/sn=   33416.3014 T*S(rot)=     7.06 kcal/mol T*S(tot)=    18.75 kcal/mol
 sn= 7  qrot/sn=   28642.5441 T*S(rot)=     6.97 kcal/mol T*S(tot)=    18.66 kcal/mol
 sn= 8  qrot/sn=   25062.2261 T*S(rot)=     6.89 kcal/mol T*S(tot)=    18.58 kcal/mol
 sn= 9  qrot/sn=   22277.5343 T*S(rot)=     6.82 kcal/mol T*S(tot)=    18.51 kcal/mol
 sn=10  qrot/sn=   20049.7809 T*S(rot)=     6.76 kcal/mol T*S(tot)=    18.45 kcal/mol
 sn=11  qrot/sn=   18227.0735 T*S(rot)=     6.70 kcal/mol T*S(tot)=    18.39 kcal/mol
 sn=12  qrot/sn=   16708.1507 T*S(rot)=     6.65 kcal/mol T*S(tot)=    18.34 kcal/mol

-------------------
GIBBS FREE ENTHALPY
-------------------

The Gibbs free enthalpy is G = H - T*S

Total enthalpy                    ...   -248.27659444 Eh
Total entropy correction          ...     -0.03053277 Eh    -19.16 kcal/mol
-----------------------------------------------------------------------
Final Gibbs free enthalpy         ...   -248.30712721 Eh

For completeness - the Gibbs free enthalpy minus the electronic energy
G-E(el)                           ...      2.47472343 Eh   1552.91 kcal/mol

                             ****ORCA TERMINATED NORMALLY****
TOTAL RUN TIME: 0 days 0 hours 29 minutes 53 seconds 647 msec
