                         Program Version 3.0.3 - RELEASE   -
|  1> ! NORI PBE0 def2-TZVP UseSym TightOPT Freq TightSCF Grid3 FinalGrid5 XYZFile
|  2> % pal
|  3>     nprocs 8
|  4> end
|  5> %method
|  6>     SymThresh 5.0e-2
|  7> end
|  8> % geom
|  9>     MaxIter 10
| 10> end
| 11> % maxcore 2000
| 12> % output
| 13>     printlevel mini
| 14>     print[ P_Basis ] 0
| 15>     print[ P_SCFInfo ] 1
| 16>     print[ P_SCFIterInfo ] 1
| 17>     print[ P_OrbEn ] 0
| 18>     print[ P_Cartesian ] 0
| 19> end
| 20> % elprop
| 21>     Dipole false
| 22> end
| 23> *xyz 1 1
| 24>  C        1.3288047775     0.3556498189    -0.6765876123
| 25>  C        2.8163060042     0.1191678777    -0.6166076503
| 26>  N        3.2376395251    -0.3170617303     0.7622615361
| 27>  C        4.6916676832    -0.6105706038     0.9034007817
| 28>  C        5.0807363347    -0.9393805440     2.3395530023
| 29>  O        6.0135628736    -1.6352255971     2.5789533378
| 30>  H        1.0642382869     0.6784450942    -1.6843405400
| 31>  H        1.0103682712     1.1425215817     0.0115888557
| 32>  H        0.7603392991    -0.5540380178    -0.4679856331
| 33>  H        3.3894871352     1.0208725564    -0.8386196506
| 34>  H        3.1384518876    -0.6700977802    -1.2973304752
| 35>  H        2.6942252322    -1.1459653272     1.0188201944
| 36>  H        2.9640245877     0.4095673402     1.4297503652
| 37>  H        5.2417756044     0.2785059002     0.5820155641
| 38>  H        4.9502086117    -1.4407041561     0.2461394837
| 39>  H        4.4666238856    -0.4715464128     3.1403784405
| 40> *
| 41>
| 42>                          ****END OF INPUT****
 Total Charge           Charge          ....    1
 Multiplicity           Mult            ....    1
 Number of Electrons    NEL             ....   48
 Basis Dimension        Dim             ....  246
FINAL SINGLE POINT ENERGY      -287.923430999344
FINAL SINGLE POINT ENERGY      -287.923431022727
FINAL SINGLE POINT ENERGY      -287.923434251313
FINAL SINGLE POINT ENERGY      -287.923435351990
FINAL SINGLE POINT ENERGY      -287.923436937542
FINAL SINGLE POINT ENERGY      -287.923437692550
FINAL SINGLE POINT ENERGY      -287.923438632854
FINAL SINGLE POINT ENERGY      -287.923439687154
FINAL SINGLE POINT ENERGY      -287.923440847696

CARTESIAN COORDINATES (ANGSTROEM)
---------------------------------
  C      0.362013    0.264598   -3.046777
  C     -0.530045    0.164521   -1.835388
  N      0.284002    0.003857   -0.578196
  C     -0.519184   -0.093196    0.673275
  C      0.343517   -0.353369    1.902466
  O     -0.052384   -0.094658    2.992098
  H     -0.261413    0.381675   -3.934016
  H      0.964357   -0.635823   -3.188152
  H      1.022914    1.133294   -2.998919
  H     -1.194665   -0.699456   -1.879711
  H     -1.137682    1.059127   -1.692702
  H      0.931394    0.793343   -0.509985
  H      0.873218   -0.827091   -0.677906
  H     -1.224366   -0.920331    0.553974
  H     -1.084155    0.829832    0.802502
  H      1.338849   -0.819656    1.725617

FINAL SINGLE POINT ENERGY      -287.923442080747

VIBRATIONAL FREQUENCIES
-----------------------

   0:         0.00 cm**-1
   1:         0.00 cm**-1
   2:         0.00 cm**-1
   3:         0.00 cm**-1
   4:         0.00 cm**-1
   5:         0.00 cm**-1
   6:   -184548.97 cm**-1 ***imaginary mode***
   7:   -126664.52 cm**-1 ***imaginary mode***
   8:   -112679.20 cm**-1 ***imaginary mode***
   9:   -103310.64 cm**-1 ***imaginary mode***
  10:    -88218.43 cm**-1 ***imaginary mode***
  11:    -71369.39 cm**-1 ***imaginary mode***
  12:    -60524.31 cm**-1 ***imaginary mode***
  13:    -58112.40 cm**-1 ***imaginary mode***
  14:    -52109.52 cm**-1 ***imaginary mode***
  15:    -48088.87 cm**-1 ***imaginary mode***
  16:    -41459.91 cm**-1 ***imaginary mode***
  17:    -38734.59 cm**-1 ***imaginary mode***
  18:    -32333.81 cm**-1 ***imaginary mode***
  19:    -30761.43 cm**-1 ***imaginary mode***
  20:    -15288.89 cm**-1 ***imaginary mode***
  21:    -13357.49 cm**-1 ***imaginary mode***
  22:    -11647.39 cm**-1 ***imaginary mode***
  23:     -9644.25 cm**-1 ***imaginary mode***
  24:     -8166.21 cm**-1 ***imaginary mode***
  25:     -4980.61 cm**-1 ***imaginary mode***
  26:     -4849.17 cm**-1 ***imaginary mode***
  27:     -4095.24 cm**-1 ***imaginary mode***
  28:     -3320.18 cm**-1 ***imaginary mode***
  29:     -2448.90 cm**-1 ***imaginary mode***
  30:     -2271.77 cm**-1 ***imaginary mode***
  31:     -1977.87 cm**-1 ***imaginary mode***
  32:     -1688.42 cm**-1 ***imaginary mode***
  33:     -1313.31 cm**-1 ***imaginary mode***
  34:      -633.99 cm**-1 ***imaginary mode***
  35:       432.72 cm**-1
  36:      1142.28 cm**-1
  37:      1319.50 cm**-1
  38:      1897.64 cm**-1
  39:      2205.57 cm**-1
  40:      2444.46 cm**-1
  41:      3068.34 cm**-1
  42:      3188.45 cm**-1
  43:      3291.08 cm**-1
  44:      3596.45 cm**-1
  45:      9481.81 cm**-1
  46:     27380.61 cm**-1
  47:     42539.42 cm**-1

IR SPECTRUM
-----------

 Mode    freq (cm**-1)   T**2         TX         TY         TZ
-------------------------------------------------------------------
  35:       432.72   13.249379  ( -0.922062  -3.061490  -1.739672)
  36:      1142.28   23.423162  (  2.117194   0.639357   4.304866)
  37:      1319.50   37.575922  ( -0.554499  -1.744261   5.850300)
  38:      1897.64   95.342327  ( -6.243294   2.121544   7.201574)
  39:      2205.57    2.545288  (  0.833128  -1.360583   0.000711)
  40:      2444.46   28.040845  (  3.684383  -3.023096  -2.308042)
  41:      3068.34   77.521688  ( -2.543047  -3.292376  -7.759824)
  42:      3188.45   17.141326  ( -1.109486   3.530786  -1.855780)
  43:      3291.08  163.680242  ( -1.819745  -9.885059  -7.915451)
  44:      3596.45   11.201946  (  1.316128  -2.564725  -1.700570)
  45:      9481.81   23.805664  ( -2.732781   2.647613  -3.054132)
  46:     27380.61  1109.564720  ( 21.967494  -2.608697 -24.903587)
  47:     42539.42  740.749418  ( -4.382757  -0.630399 -26.854114)

--------------------------
THERMOCHEMISTRY AT 298.15K
--------------------------

Temperature         ... 298.15 K
Pressure            ... 1.00 atm
Total Mass          ... 88.13 AMU

Throughout the following assumptions are being made:
  (1) The electronic state is orbitally nondegenerate
  (2) There are no thermally accessible electronically excited states
  (3) Hindered rotations indicated by low frequency modes) are not
      treated as such but are treated as vibrations and this may
      case some error
  (4) All equations used are the standard statistical mechanics
      equations for an ideal gas
  (5) All vibrations are strinctly harmonic

------------
INNER ENERGY
------------

The inner energy is: U= E(el) + E(ZPE) + E(vib) + E(rot) + E(trans)
    E(el)   - is the total energy from the electronic structure calculation
              = E(kin-el) + E(nuc-el) + E(el-el) + E(nuc-nuc)
    E(ZPE)  - the the zero temperature vibrational energy from the frequency calculation
    E(vib)  - the the finite temperature correction to E(ZPE) due to population
              of excietd vibrational states
    E(rot)  - is the rotational thermal energy
    E(trans)- is the translational thermal energy

Summary of contributions to the inner energy U:
Electronic energy                ...   -287.92344208 Eh
Zero point energy                ...      0.23234653 Eh     145.80 kcal/mol
Thermal vibrational correction   ...      0.00031157 Eh       0.20 kcal/mol
Thermal rotational correction    ...      0.00141627 Eh       0.89 kcal/mol
Thermal translational correction ...      0.00141627 Eh       0.89 kcal/mol
-----------------------------------------------------------------------
Total thermal energy                   -287.68795144 Eh

Summary of corrections to the electronic energy:
(perhaps to be used in another calculation)
Total thermal correction                  0.00314411 Eh       1.97 kcal/mol
Non-thermal (ZPE) correction              0.23234653 Eh     145.80 kcal/mol
-----------------------------------------------------------------------
Total correction                          0.23549064 Eh     147.77 kcal/mol

--------
ENTHALPY
--------

The enthalpy is H = U + kB*T
                kB is Boltzmann's constant
Total free energy                 ...   -287.68795144 Eh
Thermal Enthalpy correction       ...      0.00094421 Eh       0.59 kcal/mol
-----------------------------------------------------------------------
Total Enthalpy                    ...   -287.68700723 Eh

-------
ENTROPY
-------

The entropy contributions are T*S = T*(S(el)+S(vib)+S(rot)+S(trans)
     S(el)   - electronic entropy
     S(vib)  - vibrational entropy
     S(rot)  - rotational entropy
     S(trans)- translational entropy
The entropies will be listed as mutliplied by the temperature to get
units of energy

Electronic entropy                ...      0.00000000 Eh      0.00 kcal/mol
Vibrational entropy               ...      0.00044205 Eh      0.28 kcal/mol
Rotational entropy                ...      0.01174767 Eh      7.37 kcal/mol
Translational entropy             ...      0.01869229 Eh     11.73 kcal/mol
-----------------------------------------------------------------------
Final entropy term                ...      0.03088200 Eh     19.38 kcal/mol

CAUTION: The rotational entropy is not quite correctly treated here
         because it includes a symmetry number that is not yet correctly
         implemented in ORCA!
For a nonlinear molecule the correct rotational entropy is:
    S(rot) = R*(ln(qrot/sn)+1.5)
    R    = 8.31441 J/mol/K = 1.987191683e-3 kcal/mol/K
    qrot = 169531.2248332
    sn is the rotational symmetry number. We have assumed 3 here
       if it is different for your molecule then you should correct
       the printed rotational entropy by manually evaluating the equation
       as given above

For convenience we print out the resulting values for sn=1 - 12:
 sn= 1  qrot/sn=  169531.2248 T*S(rot)=     8.02 kcal/mol T*S(tot)=    20.03 kcal/mol
 sn= 2  qrot/sn=   84765.6124 T*S(rot)=     7.61 kcal/mol T*S(tot)=    19.62 kcal/mol
 sn= 3  qrot/sn=   56510.4083 T*S(rot)=     7.37 kcal/mol T*S(tot)=    19.38 kcal/mol
 sn= 4  qrot/sn=   42382.8062 T*S(rot)=     7.20 kcal/mol T*S(tot)=    19.21 kcal/mol
 sn= 5  qrot/sn=   33906.2450 T*S(rot)=     7.07 kcal/mol T*S(tot)=    19.08 kcal/mol
 sn= 6  qrot/sn=   28255.2041 T*S(rot)=     6.96 kcal/mol T*S(tot)=    18.97 kcal/mol
 sn= 7  qrot/sn=   24218.7464 T*S(rot)=     6.87 kcal/mol T*S(tot)=    18.88 kcal/mol
 sn= 8  qrot/sn=   21191.4031 T*S(rot)=     6.79 kcal/mol T*S(tot)=    18.80 kcal/mol
 sn= 9  qrot/sn=   18836.8028 T*S(rot)=     6.72 kcal/mol T*S(tot)=    18.73 kcal/mol
 sn=10  qrot/sn=   16953.1225 T*S(rot)=     6.66 kcal/mol T*S(tot)=    18.67 kcal/mol
 sn=11  qrot/sn=   15411.9295 T*S(rot)=     6.60 kcal/mol T*S(tot)=    18.61 kcal/mol
 sn=12  qrot/sn=   14127.6021 T*S(rot)=     6.55 kcal/mol T*S(tot)=    18.56 kcal/mol

-------------------
GIBBS FREE ENTHALPY
-------------------

The Gibbs free enthalpy is G = H - T*S

Total enthalpy                    ...   -287.68700723 Eh
Total entropy correction          ...     -0.03088200 Eh    -19.38 kcal/mol
-----------------------------------------------------------------------
Final Gibbs free enthalpy         ...   -287.71788923 Eh

For completeness - the Gibbs free enthalpy minus the electronic energy
G-E(el)                           ...      0.20555285 Eh    128.99 kcal/mol

                             ****ORCA TERMINATED NORMALLY****
TOTAL RUN TIME: 0 days 0 hours 32 minutes 15 seconds 82 msec
