                         Program Version 3.0.3 - RELEASE   -
|  1> ! NORI PBE0 def2-TZVP UseSym TightOPT Freq TightSCF Grid3 FinalGrid5 XYZFile
|  2> % pal
|  3>     nprocs 8
|  4> end
|  5> %method
|  6>     SymThresh 5.0e-2
|  7> end
|  8> % geom
|  9>     MaxIter 10
| 10> end
| 11> % maxcore 2000
| 12> % output
| 13>     printlevel mini
| 14>     print[ P_Basis ] 0
| 15>     print[ P_SCFInfo ] 1
| 16>     print[ P_SCFIterInfo ] 1
| 17>     print[ P_OrbEn ] 0
| 18>     print[ P_Cartesian ] 0
| 19> end
| 20> % elprop
| 21>     Dipole false
| 22> end
| 23> *xyz 1 1
| 24>  C        0.6299003801     0.0399289604    -0.2230654017
| 25>  C        2.1226961138     0.0811454971    -0.0303361113
| 26>  C        3.1216185567    -0.8521653622    -0.6516850499
| 27>  C        2.7495530892    -1.6556827543    -1.8621443025
| 28>  N        2.2010909917    -0.6443462401    -2.8446220404
| 29>  C        2.7254416914     0.7259128621    -2.4670619375
| 30>  C        3.1174933091     0.6083990682    -1.0228576753
| 31>  H        0.1738748045     0.9210237629     0.2317781645
| 32>  H        0.1947358070    -0.8378443843     0.2594471987
| 33>  H        0.2930297916     0.0448166921    -1.2646433756
| 34>  H        2.3948541684     0.3319451792     0.9897458169
| 35>  H        3.9098364978    -1.2668322484    -0.0366199636
| 36>  H        3.6272185056    -2.1198681816    -2.3117950443
| 37>  H        1.9868248496    -2.4203683249    -1.7051726211
| 38>  H        2.4416404315    -0.8851802199    -3.8054868163
| 39>  H        1.1838005052    -0.6445742063    -2.7878814383
| 40>  H        1.9449497641     1.4562224503    -2.6863777151
| 41>  H        3.5919934190     0.9363395208    -3.0937295638
| 42>  H        3.9067173237     1.2717079290    -0.6930421235
| 43> *
| 44>
| 45>                          ****END OF INPUT****
 Total Charge           Charge          ....    1
 Multiplicity           Mult            ....    1
 Number of Electrons    NEL             ....   54
 Basis Dimension        Dim             ....  289
FINAL SINGLE POINT ENERGY      -290.104403943635
FINAL SINGLE POINT ENERGY      -290.104405969357
FINAL SINGLE POINT ENERGY      -290.104408305522
FINAL SINGLE POINT ENERGY      -290.104409646602
FINAL SINGLE POINT ENERGY      -290.104412678999
FINAL SINGLE POINT ENERGY      -290.104415959003
FINAL SINGLE POINT ENERGY      -290.104421210778
FINAL SINGLE POINT ENERGY      -290.104424989130
FINAL SINGLE POINT ENERGY      -290.104429528501

CARTESIAN COORDINATES (ANGSTROEM)
---------------------------------
  C      1.825043   -0.017424   -1.004079
  C      0.355207   -0.020538   -1.326416
  C     -0.718019   -0.759218   -0.581555
  C     -0.477563   -1.214394    0.828099
  N     -0.006607    0.022486    1.562482
  C     -0.462984    1.242384    0.790702
  C     -0.712418    0.748464   -0.604545
  H      2.309968    0.844459   -1.466407
  H      2.303029   -0.914740   -1.401494
  H      2.076623    0.024460    0.059808
  H      0.179983   -0.038432   -2.397706
  H     -1.457624   -1.322287   -1.135929
  H     -1.403772   -1.549578    1.295082
  H      0.280801   -1.988913    0.952164
  H     -0.344257    0.039967    2.524208
  H      1.010612    0.015353    1.610096
  H      0.305699    2.010305    0.890226
  H     -1.383756    1.602602    1.249626
  H     -1.449238    1.300602   -1.173353

FINAL SINGLE POINT ENERGY      -290.104433546959

VIBRATIONAL FREQUENCIES
-----------------------

   0:         0.00 cm**-1
   1:         0.00 cm**-1
   2:         0.00 cm**-1
   3:         0.00 cm**-1
   4:         0.00 cm**-1
   5:         0.00 cm**-1
   6:    -56748.08 cm**-1 ***imaginary mode***
   7:    -50610.26 cm**-1 ***imaginary mode***
   8:    -48402.59 cm**-1 ***imaginary mode***
   9:    -43500.27 cm**-1 ***imaginary mode***
  10:    -41942.30 cm**-1 ***imaginary mode***
  11:    -39674.19 cm**-1 ***imaginary mode***
  12:    -36666.07 cm**-1 ***imaginary mode***
  13:    -34215.63 cm**-1 ***imaginary mode***
  14:    -29782.83 cm**-1 ***imaginary mode***
  15:    -28485.75 cm**-1 ***imaginary mode***
  16:    -27668.93 cm**-1 ***imaginary mode***
  17:    -26336.45 cm**-1 ***imaginary mode***
  18:    -25190.81 cm**-1 ***imaginary mode***
  19:    -23457.90 cm**-1 ***imaginary mode***
  20:    -23031.29 cm**-1 ***imaginary mode***
  21:    -21444.66 cm**-1 ***imaginary mode***
  22:    -20948.39 cm**-1 ***imaginary mode***
  23:    -18603.73 cm**-1 ***imaginary mode***
  24:    -18169.47 cm**-1 ***imaginary mode***
  25:    -16639.37 cm**-1 ***imaginary mode***
  26:    -15547.86 cm**-1 ***imaginary mode***
  27:    -13725.60 cm**-1 ***imaginary mode***
  28:    -11720.09 cm**-1 ***imaginary mode***
  29:    -11159.20 cm**-1 ***imaginary mode***
  30:     -9385.98 cm**-1 ***imaginary mode***
  31:     -8384.10 cm**-1 ***imaginary mode***
  32:     -8122.96 cm**-1 ***imaginary mode***
  33:     -7882.15 cm**-1 ***imaginary mode***
  34:     -7593.66 cm**-1 ***imaginary mode***
  35:     -7299.34 cm**-1 ***imaginary mode***
  36:     -7188.45 cm**-1 ***imaginary mode***
  37:     -6562.99 cm**-1 ***imaginary mode***
  38:     -5994.72 cm**-1 ***imaginary mode***
  39:     -5751.24 cm**-1 ***imaginary mode***
  40:     -5615.44 cm**-1 ***imaginary mode***
  41:     -5206.00 cm**-1 ***imaginary mode***
  42:     -4185.23 cm**-1 ***imaginary mode***
  43:     -3768.47 cm**-1 ***imaginary mode***
  44:     -3268.99 cm**-1 ***imaginary mode***
  45:     -2806.71 cm**-1 ***imaginary mode***
  46:     -2206.96 cm**-1 ***imaginary mode***
  47:     -1936.81 cm**-1 ***imaginary mode***
  48:     -1703.09 cm**-1 ***imaginary mode***
  49:     -1527.87 cm**-1 ***imaginary mode***
  50:     -1303.91 cm**-1 ***imaginary mode***
  51:      -897.75 cm**-1 ***imaginary mode***
  52:      -101.14 cm**-1 ***imaginary mode***
  53:      1818.79 cm**-1
  54:      2021.44 cm**-1
  55:      2440.55 cm**-1
  56:      3056.24 cm**-1

IR SPECTRUM
-----------

 Mode    freq (cm**-1)   T**2         TX         TY         TZ
-------------------------------------------------------------------
  53:      1818.79    4.603220  ( -1.044443  -1.753744   0.660864)
  54:      2021.44   10.801257  ( -1.017203  -3.112220   0.283979)
  55:      2440.55    4.679967  ( -0.200126   1.899018   1.016685)
  56:      3056.24    3.759423  (  0.422135   1.749041   0.722552)

--------------------------
THERMOCHEMISTRY AT 298.15K
--------------------------

Temperature         ... 298.15 K
Pressure            ... 1.00 atm
Total Mass          ... 98.17 AMU

Throughout the following assumptions are being made:
  (1) The electronic state is orbitally nondegenerate
  (2) There are no thermally accessible electronically excited states
  (3) Hindered rotations indicated by low frequency modes) are not
      treated as such but are treated as vibrations and this may
      case some error
  (4) All equations used are the standard statistical mechanics
      equations for an ideal gas
  (5) All vibrations are strinctly harmonic

------------
INNER ENERGY
------------

The inner energy is: U= E(el) + E(ZPE) + E(vib) + E(rot) + E(trans)
    E(el)   - is the total energy from the electronic structure calculation
              = E(kin-el) + E(nuc-el) + E(el-el) + E(nuc-nuc)
    E(ZPE)  - the the zero temperature vibrational energy from the frequency calculation
    E(vib)  - the the finite temperature correction to E(ZPE) due to population
              of excietd vibrational states
    E(rot)  - is the rotational thermal energy
    E(trans)- is the translational thermal energy

Summary of contributions to the inner energy U:
Electronic energy                ...   -290.10443355 Eh
Zero point energy                ...      0.02127132 Eh      13.35 kcal/mol
Thermal vibrational correction   ...      0.00000190 Eh       0.00 kcal/mol
Thermal rotational correction    ...      0.00141627 Eh       0.89 kcal/mol
Thermal translational correction ...      0.00141627 Eh       0.89 kcal/mol
-----------------------------------------------------------------------
Total thermal energy                   -290.08032778 Eh

Summary of corrections to the electronic energy:
(perhaps to be used in another calculation)
Total thermal correction                  0.00283445 Eh       1.78 kcal/mol
Non-thermal (ZPE) correction              0.02127132 Eh      13.35 kcal/mol
-----------------------------------------------------------------------
Total correction                          0.02410576 Eh      15.13 kcal/mol

--------
ENTHALPY
--------

The enthalpy is H = U + kB*T
                kB is Boltzmann's constant
Total free energy                 ...   -290.08032778 Eh
Thermal Enthalpy correction       ...      0.00094421 Eh       0.59 kcal/mol
-----------------------------------------------------------------------
Total Enthalpy                    ...   -290.07938357 Eh

-------
ENTROPY
-------

The entropy contributions are T*S = T*(S(el)+S(vib)+S(rot)+S(trans)
     S(el)   - electronic entropy
     S(vib)  - vibrational entropy
     S(rot)  - rotational entropy
     S(trans)- translational entropy
The entropies will be listed as mutliplied by the temperature to get
units of energy

Electronic entropy                ...      0.00000000 Eh      0.00 kcal/mol
Vibrational entropy               ...      0.00000211 Eh      0.00 kcal/mol
Rotational entropy                ...      0.01179930 Eh      7.40 kcal/mol
Translational entropy             ...      0.01884507 Eh     11.83 kcal/mol
-----------------------------------------------------------------------
Final entropy term                ...      0.03064648 Eh     19.23 kcal/mol

CAUTION: The rotational entropy is not quite correctly treated here
         because it includes a symmetry number that is not yet correctly
         implemented in ORCA!
For a nonlinear molecule the correct rotational entropy is:
    S(rot) = R*(ln(qrot/sn)+1.5)
    R    = 8.31441 J/mol/K = 1.987191683e-3 kcal/mol/K
    qrot = 179059.0830964
    sn is the rotational symmetry number. We have assumed 3 here
       if it is different for your molecule then you should correct
       the printed rotational entropy by manually evaluating the equation
       as given above

For convenience we print out the resulting values for sn=1 - 12:
 sn= 1  qrot/sn=  179059.0831 T*S(rot)=     8.06 kcal/mol T*S(tot)=    19.88 kcal/mol
 sn= 2  qrot/sn=   89529.5415 T*S(rot)=     7.64 kcal/mol T*S(tot)=    19.47 kcal/mol
 sn= 3  qrot/sn=   59686.3610 T*S(rot)=     7.40 kcal/mol T*S(tot)=    19.23 kcal/mol
 sn= 4  qrot/sn=   44764.7708 T*S(rot)=     7.23 kcal/mol T*S(tot)=    19.06 kcal/mol
 sn= 5  qrot/sn=   35811.8166 T*S(rot)=     7.10 kcal/mol T*S(tot)=    18.93 kcal/mol
 sn= 6  qrot/sn=   29843.1805 T*S(rot)=     6.99 kcal/mol T*S(tot)=    18.82 kcal/mol
 sn= 7  qrot/sn=   25579.8690 T*S(rot)=     6.90 kcal/mol T*S(tot)=    18.73 kcal/mol
 sn= 8  qrot/sn=   22382.3854 T*S(rot)=     6.82 kcal/mol T*S(tot)=    18.65 kcal/mol
 sn= 9  qrot/sn=   19895.4537 T*S(rot)=     6.75 kcal/mol T*S(tot)=    18.58 kcal/mol
 sn=10  qrot/sn=   17905.9083 T*S(rot)=     6.69 kcal/mol T*S(tot)=    18.52 kcal/mol
 sn=11  qrot/sn=   16278.0985 T*S(rot)=     6.63 kcal/mol T*S(tot)=    18.46 kcal/mol
 sn=12  qrot/sn=   14921.5903 T*S(rot)=     6.58 kcal/mol T*S(tot)=    18.41 kcal/mol

-------------------
GIBBS FREE ENTHALPY
-------------------

The Gibbs free enthalpy is G = H - T*S

Total enthalpy                    ...   -290.07938357 Eh
Total entropy correction          ...     -0.03064648 Eh    -19.23 kcal/mol
-----------------------------------------------------------------------
Final Gibbs free enthalpy         ...   -290.11003005 Eh

For completeness - the Gibbs free enthalpy minus the electronic energy
G-E(el)                           ...     -0.00559650 Eh     -3.51 kcal/mol

                             ****ORCA TERMINATED NORMALLY****
TOTAL RUN TIME: 0 days 1 hours 32 minutes 14 seconds 702 msec
