                         Program Version 3.0.3 - RELEASE   -
|  1> ! NORI PBE0 def2-TZVP UseSym TightOPT Freq TightSCF Grid3 FinalGrid5 XYZFile
|  2> % pal
|  3>     nprocs 8
|  4> end
|  5> %method
|  6>     SymThresh 5.0e-2
|  7> end
|  8> % geom
|  9>     MaxIter 10
| 10> end
| 11> % maxcore 2000
| 12> % output
| 13>     printlevel mini
| 14>     print[ P_Basis ] 0
| 15>     print[ P_SCFInfo ] 1
| 16>     print[ P_SCFIterInfo ] 1
| 17>     print[ P_OrbEn ] 0
| 18>     print[ P_Cartesian ] 0
| 19> end
| 20> % elprop
| 21>     Dipole false
| 22> end
| 23> *xyz 1 1
| 24>  C        0.9514144769     0.1149089509     0.4959277958
| 25>  C        2.4455187653     0.1553126673     0.4639471626
| 26>  C        3.1776170146     1.2543473765     0.6068452140
| 27>  C        4.6582889165     1.2817839126     0.5899040080
| 28>  C        5.4830838129     0.2400240534    -0.1074268031
| 29>  C        5.3790380700     1.6083710200    -0.6825920658
| 30>  N        6.5760123299     2.4849518508    -0.6206701844
| 31>  H        0.5771187186    -0.8985947665     0.3607185542
| 32>  H        0.5195211309     0.7382263453    -0.2908752462
| 33>  H        0.5686489360     0.4867770718     1.4495968871
| 34>  H        2.9596844486    -0.7940888596     0.3279755918
| 35>  H        2.6919899985     2.2135914727     0.7757273683
| 36>  H        5.1192408669     1.6938856154     1.4881005563
| 37>  H        6.4151113524    -0.0615288784     0.3579410063
| 38>  H        4.9856195311    -0.5490830810    -0.6553161400
| 39>  H        4.8180683454     1.7800104373    -1.5922459977
| 40>  H        7.0817149214     2.3456622736     0.2573158237
| 41>  H        6.3180206616     3.4739948506    -0.6729530586
| 42>  H        7.2278477024     2.2866576874    -1.3849304721
| 43> *
| 44>
| 45>                          ****END OF INPUT****
 Total Charge           Charge          ....    1
 Multiplicity           Mult            ....    1
 Number of Electrons    NEL             ....   54
 Basis Dimension        Dim             ....  289
FINAL SINGLE POINT ENERGY      -290.071715302599
FINAL SINGLE POINT ENERGY      -290.071717646836
FINAL SINGLE POINT ENERGY      -290.071720578997
FINAL SINGLE POINT ENERGY      -290.071723232181
FINAL SINGLE POINT ENERGY      -290.071742962869
FINAL SINGLE POINT ENERGY      -290.071767570436
FINAL SINGLE POINT ENERGY      -290.071669246214
FINAL SINGLE POINT ENERGY      -290.071778234098
FINAL SINGLE POINT ENERGY      -290.071782756552

CARTESIAN COORDINATES (ANGSTROEM)
---------------------------------
  C      0.859174    0.083989   -3.280097
  C      0.082851    0.031923   -2.006379
  C      0.548686    0.432558   -0.830361
  C     -0.262620    0.428187    0.407846
  C     -1.197012   -0.686274    0.787892
  C      0.065474   -0.478171    1.548886
  N     -0.044684    0.078580    2.921176
  H      0.438797   -0.586131   -4.029133
  H      1.902638   -0.195809   -3.118104
  H      0.839980    1.096119   -3.694238
  H     -0.931473   -0.362028   -2.060784
  H      1.563700    0.819486   -0.750490
  H     -0.622910    1.410329    0.716250
  H     -2.135186   -0.414186    1.260433
  H     -1.254591   -1.569159    0.165662
  H      0.880298   -1.187090    1.476129
  H     -0.780653    0.789854    2.956188
  H      0.827713    0.527835    3.216161
  H     -0.277390   -0.643799    3.610216

FINAL SINGLE POINT ENERGY      -290.071759172791

VIBRATIONAL FREQUENCIES
-----------------------

   0:         0.00 cm**-1
   1:         0.00 cm**-1
   2:         0.00 cm**-1
   3:         0.00 cm**-1
   4:         0.00 cm**-1
   5:         0.00 cm**-1
   6:   -206135.35 cm**-1 ***imaginary mode***
   7:   -158028.67 cm**-1 ***imaginary mode***
   8:   -113571.48 cm**-1 ***imaginary mode***
   9:    -82305.65 cm**-1 ***imaginary mode***
  10:    -77691.42 cm**-1 ***imaginary mode***
  11:    -74568.39 cm**-1 ***imaginary mode***
  12:    -71848.05 cm**-1 ***imaginary mode***
  13:    -57070.67 cm**-1 ***imaginary mode***
  14:    -52907.87 cm**-1 ***imaginary mode***
  15:    -50572.36 cm**-1 ***imaginary mode***
  16:    -47712.26 cm**-1 ***imaginary mode***
  17:    -44629.16 cm**-1 ***imaginary mode***
  18:    -38496.21 cm**-1 ***imaginary mode***
  19:    -34535.35 cm**-1 ***imaginary mode***
  20:    -31522.11 cm**-1 ***imaginary mode***
  21:    -27227.68 cm**-1 ***imaginary mode***
  22:    -24168.32 cm**-1 ***imaginary mode***
  23:    -22670.34 cm**-1 ***imaginary mode***
  24:    -21308.12 cm**-1 ***imaginary mode***
  25:    -20494.48 cm**-1 ***imaginary mode***
  26:    -17173.27 cm**-1 ***imaginary mode***
  27:    -15767.92 cm**-1 ***imaginary mode***
  28:    -15394.36 cm**-1 ***imaginary mode***
  29:    -14791.17 cm**-1 ***imaginary mode***
  30:    -13415.60 cm**-1 ***imaginary mode***
  31:    -12880.31 cm**-1 ***imaginary mode***
  32:    -11321.46 cm**-1 ***imaginary mode***
  33:    -10660.92 cm**-1 ***imaginary mode***
  34:    -10125.65 cm**-1 ***imaginary mode***
  35:     -9528.48 cm**-1 ***imaginary mode***
  36:     -9023.21 cm**-1 ***imaginary mode***
  37:     -8939.75 cm**-1 ***imaginary mode***
  38:     -8119.62 cm**-1 ***imaginary mode***
  39:     -7736.72 cm**-1 ***imaginary mode***
  40:     -6741.04 cm**-1 ***imaginary mode***
  41:     -6454.27 cm**-1 ***imaginary mode***
  42:     -6253.96 cm**-1 ***imaginary mode***
  43:     -5153.84 cm**-1 ***imaginary mode***
  44:     -4739.21 cm**-1 ***imaginary mode***
  45:     -4339.09 cm**-1 ***imaginary mode***
  46:     -2899.21 cm**-1 ***imaginary mode***
  47:     -2222.56 cm**-1 ***imaginary mode***
  48:     -1555.94 cm**-1 ***imaginary mode***
  49:       588.06 cm**-1
  50:      1941.26 cm**-1
  51:      2407.77 cm**-1
  52:      4619.90 cm**-1
  53:      5094.54 cm**-1
  54:      5430.97 cm**-1
  55:     20191.17 cm**-1
  56:     29874.50 cm**-1

IR SPECTRUM
-----------

 Mode    freq (cm**-1)   T**2         TX         TY         TZ
-------------------------------------------------------------------
  49:       588.06  214.578047  ( -4.962651  -3.980260  13.194987)
  50:      1941.26   13.527317  ( -0.901474  -2.734825  -2.288099)
  51:      2407.77   42.841135  (  0.273013  -1.234400  -6.422060)
  52:      4619.90   37.492655  ( -2.394212  -4.205622   3.751420)
  53:      5094.54  156.076750  ( 12.099925  -2.206993   2.190378)
  54:      5430.97   29.712222  (  0.757839  -2.288344   4.888904)
  55:     20191.17  1953.906906  ( 30.946889  31.538036   1.244694)
  56:     29874.50  3633.433404  ( -9.354841 -58.817959  -9.293439)

--------------------------
THERMOCHEMISTRY AT 298.15K
--------------------------

Temperature         ... 298.15 K
Pressure            ... 1.00 atm
Total Mass          ... 98.17 AMU

Throughout the following assumptions are being made:
  (1) The electronic state is orbitally nondegenerate
  (2) There are no thermally accessible electronically excited states
  (3) Hindered rotations indicated by low frequency modes) are not
      treated as such but are treated as vibrations and this may
      case some error
  (4) All equations used are the standard statistical mechanics
      equations for an ideal gas
  (5) All vibrations are strinctly harmonic

------------
INNER ENERGY
------------

The inner energy is: U= E(el) + E(ZPE) + E(vib) + E(rot) + E(trans)
    E(el)   - is the total energy from the electronic structure calculation
              = E(kin-el) + E(nuc-el) + E(el-el) + E(nuc-nuc)
    E(ZPE)  - the the zero temperature vibrational energy from the frequency calculation
    E(vib)  - the the finite temperature correction to E(ZPE) due to population
              of excietd vibrational states
    E(rot)  - is the rotational thermal energy
    E(trans)- is the translational thermal energy

Summary of contributions to the inner energy U:
Electronic energy                ...   -290.07175917 Eh
Zero point energy                ...      0.15980928 Eh     100.28 kcal/mol
Thermal vibrational correction   ...      0.00016752 Eh       0.11 kcal/mol
Thermal rotational correction    ...      0.00141627 Eh       0.89 kcal/mol
Thermal translational correction ...      0.00141627 Eh       0.89 kcal/mol
-----------------------------------------------------------------------
Total thermal energy                   -289.90894983 Eh

Summary of corrections to the electronic energy:
(perhaps to be used in another calculation)
Total thermal correction                  0.00300006 Eh       1.88 kcal/mol
Non-thermal (ZPE) correction              0.15980928 Eh     100.28 kcal/mol
-----------------------------------------------------------------------
Total correction                          0.16280934 Eh     102.16 kcal/mol

--------
ENTHALPY
--------

The enthalpy is H = U + kB*T
                kB is Boltzmann's constant
Total free energy                 ...   -289.90894983 Eh
Thermal Enthalpy correction       ...      0.00094421 Eh       0.59 kcal/mol
-----------------------------------------------------------------------
Total Enthalpy                    ...   -289.90800562 Eh

-------
ENTROPY
-------

The entropy contributions are T*S = T*(S(el)+S(vib)+S(rot)+S(trans)
     S(el)   - electronic entropy
     S(vib)  - vibrational entropy
     S(rot)  - rotational entropy
     S(trans)- translational entropy
The entropies will be listed as mutliplied by the temperature to get
units of energy

Electronic entropy                ...      0.00000000 Eh      0.00 kcal/mol
Vibrational entropy               ...      0.00022458 Eh      0.14 kcal/mol
Rotational entropy                ...      0.01218653 Eh      7.65 kcal/mol
Translational entropy             ...      0.01884507 Eh     11.83 kcal/mol
-----------------------------------------------------------------------
Final entropy term                ...      0.03125617 Eh     19.61 kcal/mol

CAUTION: The rotational entropy is not quite correctly treated here
         because it includes a symmetry number that is not yet correctly
         implemented in ORCA!
For a nonlinear molecule the correct rotational entropy is:
    S(rot) = R*(ln(qrot/sn)+1.5)
    R    = 8.31441 J/mol/K = 1.987191683e-3 kcal/mol/K
    qrot = 269842.4169021
    sn is the rotational symmetry number. We have assumed 3 here
       if it is different for your molecule then you should correct
       the printed rotational entropy by manually evaluating the equation
       as given above

For convenience we print out the resulting values for sn=1 - 12:
 sn= 1  qrot/sn=  269842.4169 T*S(rot)=     8.30 kcal/mol T*S(tot)=    20.26 kcal/mol
 sn= 2  qrot/sn=  134921.2085 T*S(rot)=     7.89 kcal/mol T*S(tot)=    19.85 kcal/mol
 sn= 3  qrot/sn=   89947.4723 T*S(rot)=     7.65 kcal/mol T*S(tot)=    19.61 kcal/mol
 sn= 4  qrot/sn=   67460.6042 T*S(rot)=     7.48 kcal/mol T*S(tot)=    19.44 kcal/mol
 sn= 5  qrot/sn=   53968.4834 T*S(rot)=     7.34 kcal/mol T*S(tot)=    19.31 kcal/mol
 sn= 6  qrot/sn=   44973.7362 T*S(rot)=     7.24 kcal/mol T*S(tot)=    19.20 kcal/mol
 sn= 7  qrot/sn=   38548.9167 T*S(rot)=     7.15 kcal/mol T*S(tot)=    19.11 kcal/mol
 sn= 8  qrot/sn=   33730.3021 T*S(rot)=     7.07 kcal/mol T*S(tot)=    19.03 kcal/mol
 sn= 9  qrot/sn=   29982.4908 T*S(rot)=     7.00 kcal/mol T*S(tot)=    18.96 kcal/mol
 sn=10  qrot/sn=   26984.2417 T*S(rot)=     6.93 kcal/mol T*S(tot)=    18.90 kcal/mol
 sn=11  qrot/sn=   24531.1288 T*S(rot)=     6.88 kcal/mol T*S(tot)=    18.84 kcal/mol
 sn=12  qrot/sn=   22486.8681 T*S(rot)=     6.83 kcal/mol T*S(tot)=    18.79 kcal/mol

-------------------
GIBBS FREE ENTHALPY
-------------------

The Gibbs free enthalpy is G = H - T*S

Total enthalpy                    ...   -289.90800562 Eh
Total entropy correction          ...     -0.03125617 Eh    -19.61 kcal/mol
-----------------------------------------------------------------------
Final Gibbs free enthalpy         ...   -289.93926179 Eh

For completeness - the Gibbs free enthalpy minus the electronic energy
G-E(el)                           ...      0.13249738 Eh     83.14 kcal/mol

                             ****ORCA TERMINATED NORMALLY****
TOTAL RUN TIME: 0 days 1 hours 4 minutes 57 seconds 801 msec
