                         Program Version 3.0.3 - RELEASE   -
|  1> ! NORI PBE0 def2-TZVP UseSym TightOPT Freq TightSCF Grid3 FinalGrid5 XYZFile
|  2> % pal
|  3>     nprocs 8
|  4> end
|  5> %method
|  6>     SymThresh 5.0e-2
|  7> end
|  8> % geom
|  9>     MaxIter 10
| 10> end
| 11> % maxcore 2000
| 12> % output
| 13>     printlevel mini
| 14>     print[ P_Basis ] 0
| 15>     print[ P_SCFInfo ] 1
| 16>     print[ P_SCFIterInfo ] 1
| 17>     print[ P_OrbEn ] 0
| 18>     print[ P_Cartesian ] 0
| 19> end
| 20> % elprop
| 21>     Dipole false
| 22> end
| 23> *xyz 1 1
| 24>  C        4.1648555674     1.4636578177     0.9515321333
| 25>  C        3.6152142083     0.2334788999     0.3020835141
| 26>  C        2.6827561605     0.2627707579    -0.6417644101
| 27>  C        4.2174135862    -1.0210160446     0.8503119282
| 28>  C        3.6236135148    -1.5377799565     2.1846147282
| 29>  C        2.9493827180    -2.6660008242     1.3995523337
| 30>  N        3.7458224254    -2.2968270557     0.1641806503
| 31>  H        3.6538772917     2.3552315537     0.5929078040
| 32>  H        5.2333514696     1.5707065750     0.7394888948
| 33>  H        4.0570588843     1.4246375287     2.0403435459
| 34>  H        2.2598318866    -0.6116951836    -1.1288192013
| 35>  H        2.2787916938     1.2060356828    -0.9877991997
| 36>  H        5.3073965932    -0.9669881579     0.8217723911
| 37>  H        2.9486858590    -0.8470530482     2.6840412933
| 38>  H        4.3757920371    -1.8859105297     2.8907863496
| 39>  H        3.1319492124    -3.6914870219     1.7115264883
| 40>  H        1.8902456549    -2.5168013012     1.2002797282
| 41>  H        4.5055649088    -2.9432420558    -0.0405088717
| 42>  H        3.2131163278    -2.1462076364    -0.6922001001
| 43> *
| 44>
| 45>                          ****END OF INPUT****
 Total Charge           Charge          ....    1
 Multiplicity           Mult            ....    1
 Number of Electrons    NEL             ....   54
 Basis Dimension        Dim             ....  289
FINAL SINGLE POINT ENERGY      -290.082148907530
FINAL SINGLE POINT ENERGY      -290.082152246735
FINAL SINGLE POINT ENERGY      -290.082159138279
FINAL SINGLE POINT ENERGY      -290.082165583363
FINAL SINGLE POINT ENERGY      -290.082174350900
FINAL SINGLE POINT ENERGY      -290.082180637129
FINAL SINGLE POINT ENERGY      -290.082216801573
FINAL SINGLE POINT ENERGY      -290.082277843217
FINAL SINGLE POINT ENERGY      -290.082424737955

CARTESIAN COORDINATES (ANGSTROEM)
---------------------------------
  C      0.954337    0.027372   -2.136482
  C      0.622804   -0.577938   -0.809665
  C      0.577047   -1.885108   -0.593594
  C      0.369812    0.452628    0.243377
  C     -0.919148    1.299817    0.117009
  C     -1.409932    0.691539    1.433158
  N     -0.123655   -0.096157    1.577459
  H      1.125334   -0.745248   -2.882416
  H      1.859441    0.640661   -2.069552
  H      0.150778    0.680052   -2.494683
  H      0.373002   -2.348973    0.368027
  H      0.767474   -2.585275   -1.397243
  H      1.270289    1.048218    0.420119
  H     -1.528617    1.053206   -0.750614
  H     -0.758555    2.376014    0.145549
  H     -1.552058    1.370516    2.270671
  H     -2.256077    0.010184    1.359201
  H      0.452365    0.157241    2.377918
  H     -0.246409   -1.108414    1.574849

FINAL SINGLE POINT ENERGY      -290.082434673749

VIBRATIONAL FREQUENCIES
-----------------------

   0:         0.00 cm**-1
   1:         0.00 cm**-1
   2:         0.00 cm**-1
   3:         0.00 cm**-1
   4:         0.00 cm**-1
   5:         0.00 cm**-1
   6:   -641525.97 cm**-1 ***imaginary mode***
   7:   -547646.63 cm**-1 ***imaginary mode***
   8:   -410914.12 cm**-1 ***imaginary mode***
   9:   -397759.10 cm**-1 ***imaginary mode***
  10:   -370030.24 cm**-1 ***imaginary mode***
  11:   -351648.17 cm**-1 ***imaginary mode***
  12:   -336361.27 cm**-1 ***imaginary mode***
  13:   -306882.00 cm**-1 ***imaginary mode***
  14:   -296615.35 cm**-1 ***imaginary mode***
  15:   -267420.28 cm**-1 ***imaginary mode***
  16:   -251031.56 cm**-1 ***imaginary mode***
  17:   -205700.50 cm**-1 ***imaginary mode***
  18:   -166372.02 cm**-1 ***imaginary mode***
  19:   -156318.30 cm**-1 ***imaginary mode***
  20:   -147189.97 cm**-1 ***imaginary mode***
  21:   -143698.75 cm**-1 ***imaginary mode***
  22:   -132845.36 cm**-1 ***imaginary mode***
  23:   -132214.42 cm**-1 ***imaginary mode***
  24:   -116961.24 cm**-1 ***imaginary mode***
  25:   -112031.58 cm**-1 ***imaginary mode***
  26:   -107374.80 cm**-1 ***imaginary mode***
  27:    -98395.32 cm**-1 ***imaginary mode***
  28:    -95013.54 cm**-1 ***imaginary mode***
  29:    -83785.83 cm**-1 ***imaginary mode***
  30:    -81215.42 cm**-1 ***imaginary mode***
  31:    -74433.25 cm**-1 ***imaginary mode***
  32:    -69759.34 cm**-1 ***imaginary mode***
  33:    -62664.78 cm**-1 ***imaginary mode***
  34:    -61672.23 cm**-1 ***imaginary mode***
  35:    -55150.98 cm**-1 ***imaginary mode***
  36:    -48397.79 cm**-1 ***imaginary mode***
  37:    -44960.93 cm**-1 ***imaginary mode***
  38:    -38361.77 cm**-1 ***imaginary mode***
  39:    -37982.79 cm**-1 ***imaginary mode***
  40:    -36657.56 cm**-1 ***imaginary mode***
  41:    -29836.02 cm**-1 ***imaginary mode***
  42:    -25780.69 cm**-1 ***imaginary mode***
  43:    -22507.23 cm**-1 ***imaginary mode***
  44:    -22319.43 cm**-1 ***imaginary mode***
  45:    -16462.34 cm**-1 ***imaginary mode***
  46:    -12142.06 cm**-1 ***imaginary mode***
  47:     -6703.36 cm**-1 ***imaginary mode***
  48:     11793.09 cm**-1
  49:     15800.78 cm**-1
  50:     22119.59 cm**-1
  51:     30436.11 cm**-1
  52:     40184.01 cm**-1
  53:     46585.65 cm**-1
  54:     62830.88 cm**-1
  55:     77169.29 cm**-1
  56:    145943.19 cm**-1

IR SPECTRUM
-----------

 Mode    freq (cm**-1)   T**2         TX         TY         TZ
-------------------------------------------------------------------
  48:     11793.09  887.033220  (  9.071664  -0.329291 -28.365996)
  49:     15800.78  13789.583382  (-31.953875 -18.697858 -111.440223)
  50:     22119.59  24981.750623  ( 48.481768 135.234747 -65.900167)
  51:     30436.11  218725.610404  ( 52.849378 -318.561781 -338.305994)
  52:     40184.01  116313.219455  (-47.468715 307.503078 -139.648838)
  53:     46585.65  25141.805218  (-27.204566  30.730436 -153.157948)
  54:     62830.88  371838.386793  ( 74.746917 -593.141255 -120.144650)
  55:     77169.29  205292.765474  (111.123368 412.694085 150.425911)
  56:    145943.19  111445.416749  (-143.034078  39.369696 -299.059687)

--------------------------
THERMOCHEMISTRY AT 298.15K
--------------------------

Temperature         ... 298.15 K
Pressure            ... 1.00 atm
Total Mass          ... 98.17 AMU

Throughout the following assumptions are being made:
  (1) The electronic state is orbitally nondegenerate
  (2) There are no thermally accessible electronically excited states
  (3) Hindered rotations indicated by low frequency modes) are not
      treated as such but are treated as vibrations and this may
      case some error
  (4) All equations used are the standard statistical mechanics
      equations for an ideal gas
  (5) All vibrations are strinctly harmonic

------------
INNER ENERGY
------------

The inner energy is: U= E(el) + E(ZPE) + E(vib) + E(rot) + E(trans)
    E(el)   - is the total energy from the electronic structure calculation
              = E(kin-el) + E(nuc-el) + E(el-el) + E(nuc-nuc)
    E(ZPE)  - the the zero temperature vibrational energy from the frequency calculation
    E(vib)  - the the finite temperature correction to E(ZPE) due to population
              of excietd vibrational states
    E(rot)  - is the rotational thermal energy
    E(trans)- is the translational thermal energy

Summary of contributions to the inner energy U:
Electronic energy                ...   -290.08243467 Eh
Zero point energy                ...      1.03169692 Eh     647.40 kcal/mol
Thermal vibrational correction   ...      0.00000000 Eh       0.00 kcal/mol
Thermal rotational correction    ...      0.00141627 Eh       0.89 kcal/mol
Thermal translational correction ...      0.00141627 Eh       0.89 kcal/mol
-----------------------------------------------------------------------
Total thermal energy                   -289.04790521 Eh

Summary of corrections to the electronic energy:
(perhaps to be used in another calculation)
Total thermal correction                  0.00283254 Eh       1.78 kcal/mol
Non-thermal (ZPE) correction              1.03169692 Eh     647.40 kcal/mol
-----------------------------------------------------------------------
Total correction                          1.03452946 Eh     649.18 kcal/mol

--------
ENTHALPY
--------

The enthalpy is H = U + kB*T
                kB is Boltzmann's constant
Total free energy                 ...   -289.04790521 Eh
Thermal Enthalpy correction       ...      0.00094421 Eh       0.59 kcal/mol
-----------------------------------------------------------------------
Total Enthalpy                    ...   -289.04696100 Eh

-------
ENTROPY
-------

The entropy contributions are T*S = T*(S(el)+S(vib)+S(rot)+S(trans)
     S(el)   - electronic entropy
     S(vib)  - vibrational entropy
     S(rot)  - rotational entropy
     S(trans)- translational entropy
The entropies will be listed as mutliplied by the temperature to get
units of energy

Electronic entropy                ...      0.00000000 Eh      0.00 kcal/mol
Vibrational entropy               ...      0.00000000 Eh      0.00 kcal/mol
Rotational entropy                ...      0.01201285 Eh      7.54 kcal/mol
Translational entropy             ...      0.01884507 Eh     11.83 kcal/mol
-----------------------------------------------------------------------
Final entropy term                ...      0.03085792 Eh     19.36 kcal/mol

CAUTION: The rotational entropy is not quite correctly treated here
         because it includes a symmetry number that is not yet correctly
         implemented in ORCA!
For a nonlinear molecule the correct rotational entropy is:
    S(rot) = R*(ln(qrot/sn)+1.5)
    R    = 8.31441 J/mol/K = 1.987191683e-3 kcal/mol/K
    qrot = 224503.7652239
    sn is the rotational symmetry number. We have assumed 3 here
       if it is different for your molecule then you should correct
       the printed rotational entropy by manually evaluating the equation
       as given above

For convenience we print out the resulting values for sn=1 - 12:
 sn= 1  qrot/sn=  224503.7652 T*S(rot)=     8.19 kcal/mol T*S(tot)=    20.01 kcal/mol
 sn= 2  qrot/sn=  112251.8826 T*S(rot)=     7.78 kcal/mol T*S(tot)=    19.60 kcal/mol
 sn= 3  qrot/sn=   74834.5884 T*S(rot)=     7.54 kcal/mol T*S(tot)=    19.36 kcal/mol
 sn= 4  qrot/sn=   56125.9413 T*S(rot)=     7.37 kcal/mol T*S(tot)=    19.19 kcal/mol
 sn= 5  qrot/sn=   44900.7530 T*S(rot)=     7.24 kcal/mol T*S(tot)=    19.06 kcal/mol
 sn= 6  qrot/sn=   37417.2942 T*S(rot)=     7.13 kcal/mol T*S(tot)=    18.95 kcal/mol
 sn= 7  qrot/sn=   32071.9665 T*S(rot)=     7.04 kcal/mol T*S(tot)=    18.86 kcal/mol
 sn= 8  qrot/sn=   28062.9707 T*S(rot)=     6.96 kcal/mol T*S(tot)=    18.78 kcal/mol
 sn= 9  qrot/sn=   24944.8628 T*S(rot)=     6.89 kcal/mol T*S(tot)=    18.71 kcal/mol
 sn=10  qrot/sn=   22450.3765 T*S(rot)=     6.82 kcal/mol T*S(tot)=    18.65 kcal/mol
 sn=11  qrot/sn=   20409.4332 T*S(rot)=     6.77 kcal/mol T*S(tot)=    18.59 kcal/mol
 sn=12  qrot/sn=   18708.6471 T*S(rot)=     6.72 kcal/mol T*S(tot)=    18.54 kcal/mol

-------------------
GIBBS FREE ENTHALPY
-------------------

The Gibbs free enthalpy is G = H - T*S

Total enthalpy                    ...   -289.04696100 Eh
Total entropy correction          ...     -0.03085792 Eh    -19.36 kcal/mol
-----------------------------------------------------------------------
Final Gibbs free enthalpy         ...   -289.07781892 Eh

For completeness - the Gibbs free enthalpy minus the electronic energy
G-E(el)                           ...      1.00461575 Eh    630.40 kcal/mol

                             ****ORCA TERMINATED NORMALLY****
TOTAL RUN TIME: 0 days 1 hours 42 minutes 49 seconds 548 msec
