                         Program Version 3.0.3 - RELEASE   -
|  1> ! NORI PBE0 def2-TZVP UseSym TightOPT Freq TightSCF Grid3 FinalGrid5 XYZFile
|  2> % pal
|  3>     nprocs 8
|  4> end
|  5> %method
|  6>     SymThresh 5.0e-2
|  7> end
|  8> % geom
|  9>     MaxIter 10
| 10> end
| 11> % maxcore 2000
| 12> % output
| 13>     printlevel mini
| 14>     print[ P_Basis ] 0
| 15>     print[ P_SCFInfo ] 1
| 16>     print[ P_SCFIterInfo ] 1
| 17>     print[ P_OrbEn ] 0
| 18>     print[ P_Cartesian ] 0
| 19> end
| 20> % elprop
| 21>     Dipole false
| 22> end
| 23> *xyz 1 1
| 24>  C        0.1024954429     0.1716942816     0.2358379288
| 25>  C        1.5700705170     0.4578047060     0.2806115831
| 26>  C        2.5005799631    -0.3590605884     0.7788848552
| 27>  C        2.1827267695    -1.6954383256     1.3740578147
| 28>  C        3.9668507306    -0.0216066174     0.8172849272
| 29>  C        4.5317130739     0.1754183455     2.2122169941
| 30>  N        4.2482598521     1.2263465108     0.0167159943
| 31>  H       -0.4426980453     0.9904847723    -0.2312273940
| 32>  H       -0.3085909391     0.0281875886     1.2382153032
| 33>  H       -0.1110834735    -0.7355440451    -0.3355133230
| 34>  H        1.8495673539     1.4281811718    -0.1270437098
| 35>  H        1.2147022444    -2.0584067570     1.0335344052
| 36>  H        2.1451028722    -1.6468736998     2.4671371674
| 37>  H        2.9347079341    -2.4439162695     1.1084579712
| 38>  H        4.5279912928    -0.8088223980     0.3018810886
| 39>  H        4.0112028446     0.9802152155     2.7374266055
| 40>  H        5.6039456646     0.3869385971     2.1910067479
| 41>  H        4.3946208604    -0.7385099281     2.7891853024
| 42>  H        3.7969573805     2.0347929549     0.4505325409
| 43>  H        3.8787788024     1.1364830180    -0.9323915054
| 44>  H        5.2508988588     1.4115114667    -0.0316712976
| 45> *
| 46>
| 47>                          ****END OF INPUT****
 Total Charge           Charge          ....    1
 Multiplicity           Mult            ....    1
 Number of Electrons    NEL             ....   56
 Basis Dimension        Dim             ....  301
FINAL SINGLE POINT ENERGY      -291.317235748605
FINAL SINGLE POINT ENERGY      -291.317237090054
FINAL SINGLE POINT ENERGY      -291.317238405862
FINAL SINGLE POINT ENERGY      -291.317239552803
FINAL SINGLE POINT ENERGY      -291.317241881949
FINAL SINGLE POINT ENERGY      -291.317245336247
FINAL SINGLE POINT ENERGY      -291.317257336553
FINAL SINGLE POINT ENERGY      -291.317259297169
FINAL SINGLE POINT ENERGY      -291.317259997124

CARTESIAN COORDINATES (ANGSTROEM)
---------------------------------
  C      2.205894    0.019559   -1.597472
  C      1.316420    0.050877   -0.396093
  C      0.015234   -0.246822   -0.392359
  C     -0.735989   -0.646031   -1.624529
  C     -0.847289   -0.177783    0.838745
  C     -1.884339    0.930116    0.814172
  N      0.000701   -0.003441    2.075361
  H      3.248859    0.161896   -1.318587
  H      1.941558    0.808760   -2.307216
  H      2.130441   -0.930900   -2.130868
  H      1.812054    0.367628    0.520334
  H     -0.071436   -1.093203   -2.362246
  H     -1.209015    0.219831   -2.099589
  H     -1.526859   -1.367595   -1.402548
  H     -1.343375   -1.143777    0.982633
  H     -1.409905    1.907882    0.699202
  H     -2.506557    0.929957    1.712892
  H     -2.547229    0.782834   -0.038155
  H      0.449960    0.914830    2.073181
  H      0.738526   -0.710899    2.105767
  H     -0.566113   -0.076109    2.921145

FINAL SINGLE POINT ENERGY      -291.317260023766

VIBRATIONAL FREQUENCIES
-----------------------

   0:         0.00 cm**-1
   1:         0.00 cm**-1
   2:         0.00 cm**-1
   3:         0.00 cm**-1
   4:         0.00 cm**-1
   5:         0.00 cm**-1
   6:     -2837.52 cm**-1 ***imaginary mode***
   7:     -1913.20 cm**-1 ***imaginary mode***
   8:     -1623.61 cm**-1 ***imaginary mode***
   9:     -1446.61 cm**-1 ***imaginary mode***
  10:     -1202.76 cm**-1 ***imaginary mode***
  11:     -1094.02 cm**-1 ***imaginary mode***
  12:      -768.79 cm**-1 ***imaginary mode***
  13:      -565.17 cm**-1 ***imaginary mode***
  14:      -466.66 cm**-1 ***imaginary mode***
  15:      -409.30 cm**-1 ***imaginary mode***
  16:      -282.87 cm**-1 ***imaginary mode***
  17:      -100.58 cm**-1 ***imaginary mode***
  18:       155.59 cm**-1
  19:       253.70 cm**-1
  20:       308.47 cm**-1
  21:       410.48 cm**-1
  22:       515.35 cm**-1
  23:       580.78 cm**-1
  24:       715.43 cm**-1
  25:       820.63 cm**-1
  26:       875.77 cm**-1
  27:       932.01 cm**-1
  28:       933.13 cm**-1
  29:       991.19 cm**-1
  30:      1017.08 cm**-1
  31:      1061.68 cm**-1
  32:      1113.76 cm**-1
  33:      1123.26 cm**-1
  34:      1137.82 cm**-1
  35:      1221.79 cm**-1
  36:      1300.65 cm**-1
  37:      1335.75 cm**-1
  38:      1374.36 cm**-1
  39:      1392.32 cm**-1
  40:      1396.59 cm**-1
  41:      1417.37 cm**-1
  42:      1429.66 cm**-1
  43:      1445.45 cm**-1
  44:      1454.57 cm**-1
  45:      1459.83 cm**-1
  46:      1539.89 cm**-1
  47:      1597.32 cm**-1
  48:      1637.23 cm**-1
  49:      2672.31 cm**-1
  50:      2768.94 cm**-1
  51:      2988.87 cm**-1
  52:      3007.16 cm**-1
  53:      3013.35 cm**-1
  54:      3051.02 cm**-1
  55:      3088.57 cm**-1
  56:      3111.46 cm**-1
  57:      3128.88 cm**-1
  58:      3129.76 cm**-1
  59:      3142.73 cm**-1
  60:      3393.87 cm**-1
  61:      3478.65 cm**-1
  62:      3503.78 cm**-1

IR SPECTRUM
-----------

 Mode    freq (cm**-1)   T**2         TX         TY         TZ
-------------------------------------------------------------------
  18:       155.59    1.848161  ( -0.368028  -0.519554  -1.201158)
  19:       253.70   13.122344  (  1.979733  -0.936749  -2.885395)
  20:       308.47    6.510881  ( -0.361817   2.444773  -0.634866)
  21:       410.48    8.116464  (  0.776638  -1.302691   2.411699)
  22:       515.35    2.360579  ( -0.365295   1.143088  -0.959421)
  23:       580.78    6.088560  (  1.369002   1.756253   1.063000)
  24:       715.43    0.254747  ( -0.108456  -0.357625  -0.339247)
  25:       820.63    3.315029  (  0.071866  -1.198469  -1.368772)
  26:       875.77    9.972604  (  1.315290  -1.045716  -2.673779)
  27:       932.01    6.744891  ( -1.109134  -1.395237  -1.888922)
  28:       933.13    2.208085  (  0.994504   0.680393  -0.869548)
  29:       991.19    2.574165  ( -0.840428  -1.366023  -0.042740)
  30:      1017.08    6.532989  ( -1.754050   1.290869   1.337893)
  31:      1061.68    7.312910  (  1.548488   1.158111  -1.890469)
  32:      1113.76   15.269459  ( -0.877470   2.311324  -3.026101)
  33:      1123.26    7.162494  (  0.962697   2.135478   1.294389)
  34:      1137.82    6.704672  (  1.475468  -2.043229   0.594039)
  35:      1221.79   34.563417  ( -2.081110   0.091829   5.497633)
  36:      1300.65    9.639716  ( -1.766632  -0.358673   2.527861)
  37:      1335.75   16.287147  ( -1.546710   3.677226   0.610611)
  38:      1374.36    5.116456  (  1.347175   1.595083   0.870221)
  39:      1392.32    4.667591  (  0.954384   1.853808  -0.565806)
  40:      1396.59   27.884037  ( -2.736202   3.727596  -2.549953)
  41:      1417.37   14.246889  (  2.825177  -0.443004  -2.463537)
  42:      1429.66    6.282375  ( -1.426645   0.958663  -1.824287)
  43:      1445.45   43.295344  (  4.466396   1.147859   4.693513)
  44:      1454.57    7.806627  ( -0.745512   1.339542   2.335908)
  45:      1459.83  116.326935  (  4.833493   0.282343   9.637664)
  46:      1539.89    5.582040  (  2.188105   0.880715   0.136291)
  47:      1597.32   52.921732  ( -3.101192   5.688507   3.308357)
  48:      1637.23   59.283048  (  2.287787   4.854232  -5.521368)
  49:      2672.31   59.037563  (  0.655280   2.292232   7.304372)
  50:      2768.94    3.201375  ( -0.014542  -0.334148  -1.757700)
  51:      2988.87    9.487252  ( -2.417999  -1.635090   0.983368)
  52:      3007.16    0.538830  (  0.020265   0.185819  -0.709852)
  53:      3013.35    3.660279  (  0.394068   1.127642   1.494461)
  54:      3051.02    1.967975  (  0.547767  -1.059233   0.738885)
  55:      3088.57    2.515105  ( -0.124747   1.576720  -0.116177)
  56:      3111.46    6.041285  (  1.774992   0.525407  -1.616984)
  57:      3128.88    5.347104  (  1.397605  -0.723141  -1.694365)
  58:      3129.76    0.156619  (  0.118832   0.053218  -0.373718)
  59:      3142.73    7.306893  (  2.627406   0.632990  -0.054356)
  60:      3393.87   27.929147  ( -2.621127  -1.518432  -4.330497)
  61:      3478.65   81.352971  ( -2.880773  -6.918628   5.018636)
  62:      3503.78   82.529306  (  6.447446  -4.363341  -4.681987)

--------------------------
THERMOCHEMISTRY AT 298.15K
--------------------------

Temperature         ... 298.15 K
Pressure            ... 1.00 atm
Total Mass          ... 100.18 AMU

Throughout the following assumptions are being made:
  (1) The electronic state is orbitally nondegenerate
  (2) There are no thermally accessible electronically excited states
  (3) Hindered rotations indicated by low frequency modes) are not
      treated as such but are treated as vibrations and this may
      case some error
  (4) All equations used are the standard statistical mechanics
      equations for an ideal gas
  (5) All vibrations are strinctly harmonic

------------
INNER ENERGY
------------

The inner energy is: U= E(el) + E(ZPE) + E(vib) + E(rot) + E(trans)
    E(el)   - is the total energy from the electronic structure calculation
              = E(kin-el) + E(nuc-el) + E(el-el) + E(nuc-nuc)
    E(ZPE)  - the the zero temperature vibrational energy from the frequency calculation
    E(vib)  - the the finite temperature correction to E(ZPE) due to population
              of excietd vibrational states
    E(rot)  - is the rotational thermal energy
    E(trans)- is the translational thermal energy

Summary of contributions to the inner energy U:
Electronic energy                ...   -291.31726002 Eh
Zero point energy                ...      0.17411639 Eh     109.26 kcal/mol
Thermal vibrational correction   ...      0.00281261 Eh       1.76 kcal/mol
Thermal rotational correction    ...      0.00141627 Eh       0.89 kcal/mol
Thermal translational correction ...      0.00141627 Eh       0.89 kcal/mol
-----------------------------------------------------------------------
Total thermal energy                   -291.13749848 Eh

Summary of corrections to the electronic energy:
(perhaps to be used in another calculation)
Total thermal correction                  0.00564515 Eh       3.54 kcal/mol
Non-thermal (ZPE) correction              0.17411639 Eh     109.26 kcal/mol
-----------------------------------------------------------------------
Total correction                          0.17976154 Eh     112.80 kcal/mol

--------
ENTHALPY
--------

The enthalpy is H = U + kB*T
                kB is Boltzmann's constant
Total free energy                 ...   -291.13749848 Eh
Thermal Enthalpy correction       ...      0.00094421 Eh       0.59 kcal/mol
-----------------------------------------------------------------------
Total Enthalpy                    ...   -291.13655427 Eh

-------
ENTROPY
-------

The entropy contributions are T*S = T*(S(el)+S(vib)+S(rot)+S(trans)
     S(el)   - electronic entropy
     S(vib)  - vibrational entropy
     S(rot)  - rotational entropy
     S(trans)- translational entropy
The entropies will be listed as mutliplied by the temperature to get
units of energy

Electronic entropy                ...      0.00000000 Eh      0.00 kcal/mol
Vibrational entropy               ...      0.00439878 Eh      2.76 kcal/mol
Rotational entropy                ...      0.01226115 Eh      7.69 kcal/mol
Translational entropy             ...      0.01887386 Eh     11.84 kcal/mol
-----------------------------------------------------------------------
Final entropy term                ...      0.03553380 Eh     22.30 kcal/mol

CAUTION: The rotational entropy is not quite correctly treated here
         because it includes a symmetry number that is not yet correctly
         implemented in ORCA!
For a nonlinear molecule the correct rotational entropy is:
    S(rot) = R*(ln(qrot/sn)+1.5)
    R    = 8.31441 J/mol/K = 1.987191683e-3 kcal/mol/K
    qrot = 292036.4459567
    sn is the rotational symmetry number. We have assumed 3 here
       if it is different for your molecule then you should correct
       the printed rotational entropy by manually evaluating the equation
       as given above

For convenience we print out the resulting values for sn=1 - 12:
 sn= 1  qrot/sn=  292036.4460 T*S(rot)=     8.34 kcal/mol T*S(tot)=    22.95 kcal/mol
 sn= 2  qrot/sn=  146018.2230 T*S(rot)=     7.93 kcal/mol T*S(tot)=    22.54 kcal/mol
 sn= 3  qrot/sn=   97345.4820 T*S(rot)=     7.69 kcal/mol T*S(tot)=    22.30 kcal/mol
 sn= 4  qrot/sn=   73009.1115 T*S(rot)=     7.52 kcal/mol T*S(tot)=    22.13 kcal/mol
 sn= 5  qrot/sn=   58407.2892 T*S(rot)=     7.39 kcal/mol T*S(tot)=    22.00 kcal/mol
 sn= 6  qrot/sn=   48672.7410 T*S(rot)=     7.28 kcal/mol T*S(tot)=    21.89 kcal/mol
 sn= 7  qrot/sn=   41719.4923 T*S(rot)=     7.19 kcal/mol T*S(tot)=    21.80 kcal/mol
 sn= 8  qrot/sn=   36504.5557 T*S(rot)=     7.11 kcal/mol T*S(tot)=    21.72 kcal/mol
 sn= 9  qrot/sn=   32448.4940 T*S(rot)=     7.04 kcal/mol T*S(tot)=    21.65 kcal/mol
 sn=10  qrot/sn=   29203.6446 T*S(rot)=     6.98 kcal/mol T*S(tot)=    21.58 kcal/mol
 sn=11  qrot/sn=   26548.7678 T*S(rot)=     6.92 kcal/mol T*S(tot)=    21.53 kcal/mol
 sn=12  qrot/sn=   24336.3705 T*S(rot)=     6.87 kcal/mol T*S(tot)=    21.48 kcal/mol

-------------------
GIBBS FREE ENTHALPY
-------------------

The Gibbs free enthalpy is G = H - T*S

Total enthalpy                    ...   -291.13655427 Eh
Total entropy correction          ...     -0.03553380 Eh    -22.30 kcal/mol
-----------------------------------------------------------------------
Final Gibbs free enthalpy         ...   -291.17208807 Eh

For completeness - the Gibbs free enthalpy minus the electronic energy
G-E(el)                           ...      0.14517195 Eh     91.10 kcal/mol

                             ****ORCA TERMINATED NORMALLY****
TOTAL RUN TIME: 0 days 1 hours 2 minutes 11 seconds 283 msec
