                         Program Version 3.0.3 - RELEASE   -
|  1> ! NORI PBE0 def2-TZVP UseSym TightOPT Freq TightSCF Grid3 FinalGrid5 XYZFile
|  2> % pal
|  3>     nprocs 8
|  4> end
|  5> %method
|  6>     SymThresh 5.0e-2
|  7> end
|  8> % geom
|  9>     MaxIter 10
| 10> end
| 11> % maxcore 2000
| 12> % output
| 13>     printlevel mini
| 14>     print[ P_Basis ] 0
| 15>     print[ P_SCFInfo ] 1
| 16>     print[ P_SCFIterInfo ] 1
| 17>     print[ P_OrbEn ] 0
| 18>     print[ P_Cartesian ] 0
| 19> end
| 20> % elprop
| 21>     Dipole false
| 22> end
| 23> *xyz 1 1
| 24>  C        0.9784344614    -0.1729463818     0.1264534273
| 25>  C        2.4943158870     0.0103366135     0.1374595207
| 26>  C        2.9699440764     0.9018011816    -0.9063563328
| 27>  C        3.3483490768     1.6267299093    -1.7883007675
| 28>  C        3.8099859818     2.5122609927    -2.8395384687
| 29>  C        3.8156455173     3.9463769461    -2.3367034569
| 30>  N        4.2949065657     4.8857579110    -3.4172385885
| 31>  H        0.6810917367    -0.8567343545     0.9224503488
| 32>  H        0.6413742654    -0.5884942150    -0.8240979742
| 33>  H        0.4664351111     0.7773011669     0.2843099898
| 34>  H        2.8227388846     0.4003002303     1.1062318043
| 35>  H        2.9934263484    -0.9563834058     0.0148133887
| 36>  H        4.8193944563     2.2226663384    -3.1591838066
| 37>  H        3.1572728122     2.4256903723    -3.7180419200
| 38>  H        2.8174220889     4.2765738337    -2.0513270750
| 39>  H        4.4872852411     4.0726982113    -1.4881108883
| 40>  H        3.6917724933     4.8353108217    -4.2414488905
| 41>  H        5.2427246925     4.6464428188    -3.7168785518
| 42>  H        4.3047503031     5.8559410096    -3.0962817589
| 43> *
| 44>
| 45>                          ****END OF INPUT****
 Total Charge           Charge          ....    1
 Multiplicity           Mult            ....    1
 Number of Electrons    NEL             ....   54
 Basis Dimension        Dim             ....  289
FINAL SINGLE POINT ENERGY      -290.061178214838
FINAL SINGLE POINT ENERGY      -290.061179679181
FINAL SINGLE POINT ENERGY      -290.061183920700
FINAL SINGLE POINT ENERGY      -290.061187689264
FINAL SINGLE POINT ENERGY      -290.061191080301
FINAL SINGLE POINT ENERGY      -290.061200802431
FINAL SINGLE POINT ENERGY      -290.061204874384
FINAL SINGLE POINT ENERGY      -290.061209230459
FINAL SINGLE POINT ENERGY      -290.061211893642

CARTESIAN COORDINATES (ANGSTROEM)
---------------------------------
  C      0.988749   -0.150993   -3.481939
  C     -0.076141    0.593918   -2.679533
  C     -0.163973    0.148479   -1.299329
  C     -0.228537   -0.251788   -0.167122
  C     -0.309487   -0.706845    1.207200
  C     -0.014692    0.450392    2.147279
  N     -0.095505   -0.000550    3.585795
  H      1.007999    0.219910   -4.507368
  H      0.779863   -1.221164   -3.509589
  H      1.979114   -0.007193   -3.047692
  H      0.128846    1.669422   -2.686052
  H     -1.058565    0.468124   -3.145859
  H     -1.309356   -1.111409    1.412263
  H      0.407839   -1.520221    1.377756
  H      0.989452    0.845616    1.996102
  H     -0.735767    1.258749    2.028936
  H      0.576109   -0.748291    3.773956
  H     -1.026369   -0.362970    3.804497
  H      0.100983    0.765668    4.232791

FINAL SINGLE POINT ENERGY      -290.061213610770

VIBRATIONAL FREQUENCIES
-----------------------

   0:         0.00 cm**-1
   1:         0.00 cm**-1
   2:         0.00 cm**-1
   3:         0.00 cm**-1
   4:         0.00 cm**-1
   5:         0.00 cm**-1
   6:   -422159.21 cm**-1 ***imaginary mode***
   7:   -385536.97 cm**-1 ***imaginary mode***
   8:   -355033.27 cm**-1 ***imaginary mode***
   9:   -316883.25 cm**-1 ***imaginary mode***
  10:   -288800.07 cm**-1 ***imaginary mode***
  11:   -245866.80 cm**-1 ***imaginary mode***
  12:   -209011.51 cm**-1 ***imaginary mode***
  13:   -119559.13 cm**-1 ***imaginary mode***
  14:    -94040.06 cm**-1 ***imaginary mode***
  15:    -84779.78 cm**-1 ***imaginary mode***
  16:    -73838.67 cm**-1 ***imaginary mode***
  17:    -66879.67 cm**-1 ***imaginary mode***
  18:    -60468.61 cm**-1 ***imaginary mode***
  19:    -56920.68 cm**-1 ***imaginary mode***
  20:    -48563.75 cm**-1 ***imaginary mode***
  21:    -47075.27 cm**-1 ***imaginary mode***
  22:    -41915.36 cm**-1 ***imaginary mode***
  23:    -40719.35 cm**-1 ***imaginary mode***
  24:    -35810.53 cm**-1 ***imaginary mode***
  25:    -28978.54 cm**-1 ***imaginary mode***
  26:    -26906.68 cm**-1 ***imaginary mode***
  27:    -24296.40 cm**-1 ***imaginary mode***
  28:    -21460.68 cm**-1 ***imaginary mode***
  29:    -20144.70 cm**-1 ***imaginary mode***
  30:    -16735.35 cm**-1 ***imaginary mode***
  31:    -16054.08 cm**-1 ***imaginary mode***
  32:    -15157.67 cm**-1 ***imaginary mode***
  33:    -14062.37 cm**-1 ***imaginary mode***
  34:    -13552.95 cm**-1 ***imaginary mode***
  35:    -11070.63 cm**-1 ***imaginary mode***
  36:     -7594.24 cm**-1 ***imaginary mode***
  37:     -6248.37 cm**-1 ***imaginary mode***
  38:     -5669.28 cm**-1 ***imaginary mode***
  39:     -5097.83 cm**-1 ***imaginary mode***
  40:     -4191.00 cm**-1 ***imaginary mode***
  41:     -3772.64 cm**-1 ***imaginary mode***
  42:     -3146.76 cm**-1 ***imaginary mode***
  43:     -1782.34 cm**-1 ***imaginary mode***
  44:     -1617.30 cm**-1 ***imaginary mode***
  45:      2244.48 cm**-1
  46:      3043.90 cm**-1
  47:      6403.35 cm**-1
  48:      9052.83 cm**-1
  49:     13820.09 cm**-1
  50:     22219.83 cm**-1
  51:     33433.47 cm**-1
  52:     36080.24 cm**-1
  53:     41764.18 cm**-1
  54:     48673.23 cm**-1
  55:     61716.07 cm**-1
  56:     79101.66 cm**-1

IR SPECTRUM
-----------

 Mode    freq (cm**-1)   T**2         TX         TY         TZ
-------------------------------------------------------------------
  45:      2244.48  132.628734  ( -1.485679   1.596816 -11.308036)
  46:      3043.90   50.444295  ( -1.586619  -4.006307  -5.645923)
  47:      6403.35  148.518155  ( -4.614412  10.233010   4.744562)
  48:      9052.83  122.770563  ( -7.212540  -6.225020  -5.656762)
  49:     13820.09   85.057211  ( -1.005135   3.444279   8.496108)
  50:     22219.83  377.393967  ( -7.364677  -7.483362  16.344871)
  51:     33433.47  739.775646  ( -7.174705  20.999742  15.726096)
  52:     36080.24  469.102598  ( 18.294172   7.097658   9.167831)
  53:     41764.18  209.961707  (  8.960342  -6.733176   9.183589)
  54:     48673.23  4688.213211  ( -5.043379   7.848676 -67.831968)
  55:     61716.07  1191.003299  (-19.412301  28.421821   2.523091)
  56:     79101.66  3705.508203  ( 25.868304 -26.746072  48.176619)

--------------------------
THERMOCHEMISTRY AT 298.15K
--------------------------

Temperature         ... 298.15 K
Pressure            ... 1.00 atm
Total Mass          ... 98.17 AMU

Throughout the following assumptions are being made:
  (1) The electronic state is orbitally nondegenerate
  (2) There are no thermally accessible electronically excited states
  (3) Hindered rotations indicated by low frequency modes) are not
      treated as such but are treated as vibrations and this may
      case some error
  (4) All equations used are the standard statistical mechanics
      equations for an ideal gas
  (5) All vibrations are strinctly harmonic

------------
INNER ENERGY
------------

The inner energy is: U= E(el) + E(ZPE) + E(vib) + E(rot) + E(trans)
    E(el)   - is the total energy from the electronic structure calculation
              = E(kin-el) + E(nuc-el) + E(el-el) + E(nuc-nuc)
    E(ZPE)  - the the zero temperature vibrational energy from the frequency calculation
    E(vib)  - the the finite temperature correction to E(ZPE) due to population
              of excietd vibrational states
    E(rot)  - is the rotational thermal energy
    E(trans)- is the translational thermal energy

Summary of contributions to the inner energy U:
Electronic energy                ...   -290.06121361 Eh
Zero point energy                ...      0.81456643 Eh     511.15 kcal/mol
Thermal vibrational correction   ...      0.00000021 Eh       0.00 kcal/mol
Thermal rotational correction    ...      0.00141627 Eh       0.89 kcal/mol
Thermal translational correction ...      0.00141627 Eh       0.89 kcal/mol
-----------------------------------------------------------------------
Total thermal energy                   -289.24381443 Eh

Summary of corrections to the electronic energy:
(perhaps to be used in another calculation)
Total thermal correction                  0.00283275 Eh       1.78 kcal/mol
Non-thermal (ZPE) correction              0.81456643 Eh     511.15 kcal/mol
-----------------------------------------------------------------------
Total correction                          0.81739918 Eh     512.92 kcal/mol

--------
ENTHALPY
--------

The enthalpy is H = U + kB*T
                kB is Boltzmann's constant
Total free energy                 ...   -289.24381443 Eh
Thermal Enthalpy correction       ...      0.00094421 Eh       0.59 kcal/mol
-----------------------------------------------------------------------
Total Enthalpy                    ...   -289.24287023 Eh

-------
ENTROPY
-------

The entropy contributions are T*S = T*(S(el)+S(vib)+S(rot)+S(trans)
     S(el)   - electronic entropy
     S(vib)  - vibrational entropy
     S(rot)  - rotational entropy
     S(trans)- translational entropy
The entropies will be listed as mutliplied by the temperature to get
units of energy

Electronic entropy                ...      0.00000000 Eh      0.00 kcal/mol
Vibrational entropy               ...      0.00000023 Eh      0.00 kcal/mol
Rotational entropy                ...      0.01239037 Eh      7.78 kcal/mol
Translational entropy             ...      0.01884507 Eh     11.83 kcal/mol
-----------------------------------------------------------------------
Final entropy term                ...      0.03123566 Eh     19.60 kcal/mol

CAUTION: The rotational entropy is not quite correctly treated here
         because it includes a symmetry number that is not yet correctly
         implemented in ORCA!
For a nonlinear molecule the correct rotational entropy is:
    S(rot) = R*(ln(qrot/sn)+1.5)
    R    = 8.31441 J/mol/K = 1.987191683e-3 kcal/mol/K
    qrot = 334865.9557459
    sn is the rotational symmetry number. We have assumed 3 here
       if it is different for your molecule then you should correct
       the printed rotational entropy by manually evaluating the equation
       as given above

For convenience we print out the resulting values for sn=1 - 12:
 sn= 1  qrot/sn=  334865.9557 T*S(rot)=     8.43 kcal/mol T*S(tot)=    20.25 kcal/mol
 sn= 2  qrot/sn=  167432.9779 T*S(rot)=     8.02 kcal/mol T*S(tot)=    19.84 kcal/mol
 sn= 3  qrot/sn=  111621.9852 T*S(rot)=     7.78 kcal/mol T*S(tot)=    19.60 kcal/mol
 sn= 4  qrot/sn=   83716.4889 T*S(rot)=     7.60 kcal/mol T*S(tot)=    19.43 kcal/mol
 sn= 5  qrot/sn=   66973.1911 T*S(rot)=     7.47 kcal/mol T*S(tot)=    19.30 kcal/mol
 sn= 6  qrot/sn=   55810.9926 T*S(rot)=     7.36 kcal/mol T*S(tot)=    19.19 kcal/mol
 sn= 7  qrot/sn=   47837.9937 T*S(rot)=     7.27 kcal/mol T*S(tot)=    19.10 kcal/mol
 sn= 8  qrot/sn=   41858.2445 T*S(rot)=     7.19 kcal/mol T*S(tot)=    19.02 kcal/mol
 sn= 9  qrot/sn=   37207.3284 T*S(rot)=     7.12 kcal/mol T*S(tot)=    18.95 kcal/mol
 sn=10  qrot/sn=   33486.5956 T*S(rot)=     7.06 kcal/mol T*S(tot)=    18.89 kcal/mol
 sn=11  qrot/sn=   30442.3596 T*S(rot)=     7.01 kcal/mol T*S(tot)=    18.83 kcal/mol
 sn=12  qrot/sn=   27905.4963 T*S(rot)=     6.95 kcal/mol T*S(tot)=    18.78 kcal/mol

-------------------
GIBBS FREE ENTHALPY
-------------------

The Gibbs free enthalpy is G = H - T*S

Total enthalpy                    ...   -289.24287023 Eh
Total entropy correction          ...     -0.03123566 Eh    -19.60 kcal/mol
-----------------------------------------------------------------------
Final Gibbs free enthalpy         ...   -289.27410589 Eh

For completeness - the Gibbs free enthalpy minus the electronic energy
G-E(el)                           ...      0.78710772 Eh    493.92 kcal/mol

                             ****ORCA TERMINATED NORMALLY****
TOTAL RUN TIME: 0 days 0 hours 56 minutes 4 seconds 510 msec
