                         Program Version 3.0.3 - RELEASE   -
|  1> ! NORI PBE0 def2-TZVP UseSym TightOPT Freq TightSCF Grid3 FinalGrid5 XYZFile
|  2> % pal
|  3>     nprocs 8
|  4> end
|  5> %method
|  6>     SymThresh 5.0e-2
|  7> end
|  8> % geom
|  9>     MaxIter 10
| 10> end
| 11> % maxcore 2000
| 12> % output
| 13>     printlevel mini
| 14>     print[ P_Basis ] 0
| 15>     print[ P_SCFInfo ] 1
| 16>     print[ P_SCFIterInfo ] 1
| 17>     print[ P_OrbEn ] 0
| 18>     print[ P_Cartesian ] 0
| 19> end
| 20> % elprop
| 21>     Dipole false
| 22> end
| 23> *xyz 1 1
| 24>  C        0.8431385675     0.0479522854    -0.2162864648
| 25>  C        2.2819538706    -0.2794477133     0.0495579110
| 26>  C        3.0922182064    -0.9752846862    -0.9707721638
| 27>  N        3.2671641782     0.4823091199    -0.7731162619
| 28>  C        2.6666434732    -0.3791130816     1.4989359583
| 29>  C        4.0236363139    -0.2356290455     2.0141274915
| 30>  O        3.0853793792     0.8275756615     2.0948915361
| 31>  H        0.6392768402     0.1750004996    -1.2814877583
| 32>  H        0.5505882742     0.9529262154     0.3192394929
| 33>  H        0.2225909453    -0.7753370403     0.1430411032
| 34>  H        3.9478655173    -1.5638409249    -0.6652317976
| 35>  H        2.6438238692    -1.2399902346    -1.9204548507
| 36>  H        2.9029372686     1.1154434690    -1.4770751678
| 37>  H        4.1013414364     0.8249109391    -0.3064044913
| 38>  H        1.9555497748    -0.9678915184     2.0758044595
| 39>  H        4.8762737528    -0.0710985247     1.3549451190
| 40>  H        4.2770383322    -0.7119554205     2.9560358848
| 41> *
| 42>
| 43>                          ****END OF INPUT****
 Total Charge           Charge          ....    1
 Multiplicity           Mult            ....    1
 Number of Electrons    NEL             ....   54
 Basis Dimension        Dim             ....  277
FINAL SINGLE POINT ENERGY      -325.951713469627
FINAL SINGLE POINT ENERGY      -325.951739234240
FINAL SINGLE POINT ENERGY      -325.951849809748
FINAL SINGLE POINT ENERGY      -325.951981115078
FINAL SINGLE POINT ENERGY      -325.952117236071
FINAL SINGLE POINT ENERGY      -325.952123269950
FINAL SINGLE POINT ENERGY      -325.952125974423
FINAL SINGLE POINT ENERGY      -325.952126295488
FINAL SINGLE POINT ENERGY      -325.952126577155

CARTESIAN COORDINATES (ANGSTROEM)
---------------------------------
  C     -0.598455    1.725585   -0.980901
  C     -0.163648    0.343059   -0.593072
  C      0.307642   -0.604937   -1.622024
  N      1.296361    0.081503   -0.754178
  C     -0.700465   -0.162290    0.721391
  C     -0.325624   -1.420801    1.350450
  O      0.220274   -0.180694    1.791572
  H     -0.096347    2.072409   -1.887103
  H     -0.404099    2.429614   -0.169673
  H     -1.671406    1.720357   -1.180474
  H      0.231354   -1.667334   -1.432718
  H      0.345363   -0.300530   -2.660901
  H      1.846214    0.828635   -1.163723
  H      1.766489   -0.426067   -0.008453
  H     -1.674681    0.261608    0.955733
  H      0.383398   -2.111561    0.895364
  H     -1.030039   -1.893730    2.028760

FINAL SINGLE POINT ENERGY      -325.952126650789

VIBRATIONAL FREQUENCIES
-----------------------

   0:         0.00 cm**-1
   1:         0.00 cm**-1
   2:         0.00 cm**-1
   3:         0.00 cm**-1
   4:         0.00 cm**-1
   5:         0.00 cm**-1
   6:     -6329.95 cm**-1 ***imaginary mode***
   7:     -4675.75 cm**-1 ***imaginary mode***
   8:     -3694.81 cm**-1 ***imaginary mode***
   9:     -2596.25 cm**-1 ***imaginary mode***
  10:     -2512.29 cm**-1 ***imaginary mode***
  11:     -2169.17 cm**-1 ***imaginary mode***
  12:     -1631.27 cm**-1 ***imaginary mode***
  13:     -1604.58 cm**-1 ***imaginary mode***
  14:     -1341.47 cm**-1 ***imaginary mode***
  15:     -1142.95 cm**-1 ***imaginary mode***
  16:      -987.77 cm**-1 ***imaginary mode***
  17:      -885.20 cm**-1 ***imaginary mode***
  18:      -729.89 cm**-1 ***imaginary mode***
  19:      -465.95 cm**-1 ***imaginary mode***
  20:      -411.55 cm**-1 ***imaginary mode***
  21:       170.14 cm**-1
  22:       299.29 cm**-1
  23:       476.86 cm**-1
  24:       666.01 cm**-1
  25:       705.89 cm**-1
  26:       780.29 cm**-1
  27:       866.46 cm**-1
  28:       889.61 cm**-1
  29:       924.88 cm**-1
  30:       940.27 cm**-1
  31:      1085.57 cm**-1
  32:      1132.38 cm**-1
  33:      1173.39 cm**-1
  34:      1187.43 cm**-1
  35:      1240.87 cm**-1
  36:      1325.06 cm**-1
  37:      1340.72 cm**-1
  38:      1407.53 cm**-1
  39:      1444.07 cm**-1
  40:      1577.02 cm**-1
  41:      2481.17 cm**-1
  42:      2749.51 cm**-1
  43:      2788.62 cm**-1
  44:      2951.00 cm**-1
  45:      3060.03 cm**-1
  46:      3096.80 cm**-1
  47:      3161.07 cm**-1
  48:      3168.42 cm**-1
  49:      3467.83 cm**-1
  50:      3587.61 cm**-1

IR SPECTRUM
-----------

 Mode    freq (cm**-1)   T**2         TX         TY         TZ
-------------------------------------------------------------------
  21:       170.14    8.994444  (  1.312181  -0.353283  -2.673540)
  22:       299.29   41.328358  (  5.609816  -1.288781  -2.863105)
  23:       476.86   24.104560  (  2.640344  -4.105195  -0.529639)
  24:       666.01   25.364485  (  2.060875  -4.555690   0.602465)
  25:       705.89   31.580707  ( -0.897068  -3.168171  -4.553973)
  26:       780.29   21.964777  ( -3.812802  -0.228990   2.715674)
  27:       866.46   17.218785  ( -3.829823   0.717308  -1.427133)
  28:       889.61    8.803608  ( -2.461050   1.266371  -1.069179)
  29:       924.88   18.109776  (  2.639165   2.909848   1.636266)
  30:       940.27    3.788285  (  1.451950  -0.115260   1.291062)
  31:      1085.57    6.497872  ( -0.430216  -0.032182   2.512320)
  32:      1132.38    6.196987  ( -1.481602  -0.055346   1.999694)
  33:      1173.39    1.092070  (  0.580520  -0.273418  -0.824808)
  34:      1187.43    4.510904  (  1.254587   1.593028  -0.631804)
  35:      1240.87    8.106606  (  0.946737   0.821041   2.556597)
  36:      1325.06    3.244950  ( -1.225285   1.254823  -0.411150)
  37:      1340.72   15.259949  (  3.398916  -1.888559   0.375052)
  38:      1407.53    6.288465  (  1.606578   1.381064   1.341653)
  39:      1444.07    6.161808  (  1.450438   1.773896  -0.954637)
  40:      1577.02   80.863704  ( -8.619222  -2.561395   0.109392)
  41:      2481.17   21.685458  ( -2.719489   2.610964   2.733625)
  42:      2749.51    0.332765  (  0.382996   0.291314   0.318143)
  43:      2788.62    4.874200  (  0.434789  -1.496387   1.563965)
  44:      2951.00    2.679077  (  0.167723   1.157140   1.145415)
  45:      3060.03    2.457973  (  0.910142   0.843278  -0.958383)
  46:      3096.80    2.053561  (  0.595169   0.304601  -1.267499)
  47:      3161.07    1.489498  (  0.057422  -0.276229   1.187391)
  48:      3168.42    2.725378  (  0.678058   1.258574  -0.825594)
  49:      3467.83   90.447866  (  8.172114  -0.003264   4.864608)
  50:      3587.61  129.906886  ( -3.191935  -8.171339   7.276514)

--------------------------
THERMOCHEMISTRY AT 298.15K
--------------------------

Temperature         ... 298.15 K
Pressure            ... 1.00 atm
Total Mass          ... 100.14 AMU

Throughout the following assumptions are being made:
  (1) The electronic state is orbitally nondegenerate
  (2) There are no thermally accessible electronically excited states
  (3) Hindered rotations indicated by low frequency modes) are not
      treated as such but are treated as vibrations and this may
      case some error
  (4) All equations used are the standard statistical mechanics
      equations for an ideal gas
  (5) All vibrations are strinctly harmonic

------------
INNER ENERGY
------------

The inner energy is: U= E(el) + E(ZPE) + E(vib) + E(rot) + E(trans)
    E(el)   - is the total energy from the electronic structure calculation
              = E(kin-el) + E(nuc-el) + E(el-el) + E(nuc-nuc)
    E(ZPE)  - the the zero temperature vibrational energy from the frequency calculation
    E(vib)  - the the finite temperature correction to E(ZPE) due to population
              of excietd vibrational states
    E(rot)  - is the rotational thermal energy
    E(trans)- is the translational thermal energy

Summary of contributions to the inner energy U:
Electronic energy                ...   -325.95212665 Eh
Zero point energy                ...      0.11424050 Eh      71.69 kcal/mol
Thermal vibrational correction   ...      0.00194208 Eh       1.22 kcal/mol
Thermal rotational correction    ...      0.00141627 Eh       0.89 kcal/mol
Thermal translational correction ...      0.00141627 Eh       0.89 kcal/mol
-----------------------------------------------------------------------
Total thermal energy                   -325.83311153 Eh

Summary of corrections to the electronic energy:
(perhaps to be used in another calculation)
Total thermal correction                  0.00477462 Eh       3.00 kcal/mol
Non-thermal (ZPE) correction              0.11424050 Eh      71.69 kcal/mol
-----------------------------------------------------------------------
Total correction                          0.11901512 Eh      74.68 kcal/mol

--------
ENTHALPY
--------

The enthalpy is H = U + kB*T
                kB is Boltzmann's constant
Total free energy                 ...   -325.83311153 Eh
Thermal Enthalpy correction       ...      0.00094421 Eh       0.59 kcal/mol
-----------------------------------------------------------------------
Total Enthalpy                    ...   -325.83216732 Eh

-------
ENTROPY
-------

The entropy contributions are T*S = T*(S(el)+S(vib)+S(rot)+S(trans)
     S(el)   - electronic entropy
     S(vib)  - vibrational entropy
     S(rot)  - rotational entropy
     S(trans)- translational entropy
The entropies will be listed as mutliplied by the temperature to get
units of energy

Electronic entropy                ...      0.00000000 Eh      0.00 kcal/mol
Vibrational entropy               ...      0.00300773 Eh      1.89 kcal/mol
Rotational entropy                ...      0.01188668 Eh      7.46 kcal/mol
Translational entropy             ...      0.01887324 Eh     11.84 kcal/mol
-----------------------------------------------------------------------
Final entropy term                ...      0.03376765 Eh     21.19 kcal/mol

CAUTION: The rotational entropy is not quite correctly treated here
         because it includes a symmetry number that is not yet correctly
         implemented in ORCA!
For a nonlinear molecule the correct rotational entropy is:
    S(rot) = R*(ln(qrot/sn)+1.5)
    R    = 8.31441 J/mol/K = 1.987191683e-3 kcal/mol/K
    qrot = 196422.0402934
    sn is the rotational symmetry number. We have assumed 3 here
       if it is different for your molecule then you should correct
       the printed rotational entropy by manually evaluating the equation
       as given above

For convenience we print out the resulting values for sn=1 - 12:
 sn= 1  qrot/sn=  196422.0403 T*S(rot)=     8.11 kcal/mol T*S(tot)=    21.84 kcal/mol
 sn= 2  qrot/sn=   98211.0201 T*S(rot)=     7.70 kcal/mol T*S(tot)=    21.43 kcal/mol
 sn= 3  qrot/sn=   65474.0134 T*S(rot)=     7.46 kcal/mol T*S(tot)=    21.19 kcal/mol
 sn= 4  qrot/sn=   49105.5101 T*S(rot)=     7.29 kcal/mol T*S(tot)=    21.02 kcal/mol
 sn= 5  qrot/sn=   39284.4081 T*S(rot)=     7.16 kcal/mol T*S(tot)=    20.89 kcal/mol
 sn= 6  qrot/sn=   32737.0067 T*S(rot)=     7.05 kcal/mol T*S(tot)=    20.78 kcal/mol
 sn= 7  qrot/sn=   28060.2915 T*S(rot)=     6.96 kcal/mol T*S(tot)=    20.69 kcal/mol
 sn= 8  qrot/sn=   24552.7550 T*S(rot)=     6.88 kcal/mol T*S(tot)=    20.61 kcal/mol
 sn= 9  qrot/sn=   21824.6711 T*S(rot)=     6.81 kcal/mol T*S(tot)=    20.54 kcal/mol
 sn=10  qrot/sn=   19642.2040 T*S(rot)=     6.75 kcal/mol T*S(tot)=    20.48 kcal/mol
 sn=11  qrot/sn=   17856.5491 T*S(rot)=     6.69 kcal/mol T*S(tot)=    20.42 kcal/mol
 sn=12  qrot/sn=   16368.5034 T*S(rot)=     6.64 kcal/mol T*S(tot)=    20.37 kcal/mol

-------------------
GIBBS FREE ENTHALPY
-------------------

The Gibbs free enthalpy is G = H - T*S

Total enthalpy                    ...   -325.83216732 Eh
Total entropy correction          ...     -0.03376765 Eh    -21.19 kcal/mol
-----------------------------------------------------------------------
Final Gibbs free enthalpy         ...   -325.86593497 Eh

For completeness - the Gibbs free enthalpy minus the electronic energy
G-E(el)                           ...      0.08619168 Eh     54.09 kcal/mol

                             ****ORCA TERMINATED NORMALLY****
TOTAL RUN TIME: 0 days 0 hours 40 minutes 42 seconds 183 msec
