                         Program Version 3.0.3 - RELEASE   -
|  1> ! NORI PBE0 def2-TZVP UseSym TightOPT Freq TightSCF Grid3 FinalGrid5 XYZFile
|  2> % pal
|  3>     nprocs 8
|  4> end
|  5> %method
|  6>     SymThresh 5.0e-2
|  7> end
|  8> % geom
|  9>     MaxIter 10
| 10> end
| 11> % maxcore 2000
| 12> % output
| 13>     printlevel mini
| 14>     print[ P_Basis ] 0
| 15>     print[ P_SCFInfo ] 1
| 16>     print[ P_SCFIterInfo ] 1
| 17>     print[ P_OrbEn ] 0
| 18>     print[ P_Cartesian ] 0
| 19> end
| 20> % elprop
| 21>     Dipole false
| 22> end
| 23> *xyz 1 1
| 24>  C        0.9093011098     0.1016650310     0.0070745232
| 25>  C        2.3799207267     0.1834949982    -0.0628133433
| 26>  N        3.1424025855     1.1820097008    -0.0426364854
| 27>  C        4.4735963027     0.7409487008    -0.1187790883
| 28>  O        5.3759565441     1.6841514100    -0.1067658920
| 29>  C        4.5644548418    -0.6013615012    -0.1924102827
| 30>  N        3.1958414525    -1.0881589968    -0.1662707261
| 31>  H        0.5394093913    -0.9115161827    -0.1508021937
| 32>  H        0.4727727404     0.7630501458    -0.7440675461
| 33>  H        0.5687242088     0.4520785141     0.9852571272
| 34>  H        6.2751866174     1.3372679352    -0.1639768650
| 35>  H        5.3886425568    -1.2904812746    -0.2604459613
| 36>  H        2.9328068735    -1.6040970261    -1.0147539978
| 37>  H        2.9966040487    -1.7023314546     0.6325507314
| 38> *
| 39>
| 40>                          ****END OF INPUT****
 Total Charge           Charge          ....    1
 Multiplicity           Mult            ....    1
 Number of Electrons    NEL             ....   52
 Basis Dimension        Dim             ....  259
FINAL SINGLE POINT ENERGY      -340.817482782602
FINAL SINGLE POINT ENERGY      -340.817490928911
FINAL SINGLE POINT ENERGY      -340.817591860765
FINAL SINGLE POINT ENERGY      -340.817706086904
FINAL SINGLE POINT ENERGY      -340.817825807535
FINAL SINGLE POINT ENERGY      -340.817723700585
FINAL SINGLE POINT ENERGY      -340.818105760917
FINAL SINGLE POINT ENERGY      -340.818220786477
FINAL SINGLE POINT ENERGY      -340.817652833087

CARTESIAN COORDINATES (ANGSTROEM)
---------------------------------
  C      1.317876   -0.039577   -2.184884
  C      0.526233   -0.036097   -0.947149
  N      0.891789   -0.139215    0.251275
  C     -0.243620   -0.082904    1.079578
  O     -0.006433   -0.185516    2.359088
  C     -1.382501    0.069530    0.377153
  N     -0.977008    0.132031   -1.018674
  H      0.926521   -0.749134   -2.919120
  H      2.344152   -0.309475   -1.935001
  H      1.321377    0.954466   -2.640318
  H     -0.810072   -0.118190    2.890084
  H     -2.423761    0.106854    0.648322
  H     -1.400740   -0.604707   -1.595682
  H     -1.205518    1.028715   -1.463113

FINAL SINGLE POINT ENERGY      -340.818571741088

VIBRATIONAL FREQUENCIES
-----------------------

   0:         0.00 cm**-1
   1:         0.00 cm**-1
   2:         0.00 cm**-1
   3:         0.00 cm**-1
   4:         0.00 cm**-1
   5:         0.00 cm**-1
   6:   -571553.84 cm**-1 ***imaginary mode***
   7:   -523921.01 cm**-1 ***imaginary mode***
   8:   -446740.60 cm**-1 ***imaginary mode***
   9:   -393884.54 cm**-1 ***imaginary mode***
  10:   -333845.01 cm**-1 ***imaginary mode***
  11:   -297901.91 cm**-1 ***imaginary mode***
  12:   -273333.91 cm**-1 ***imaginary mode***
  13:   -156562.53 cm**-1 ***imaginary mode***
  14:   -141717.86 cm**-1 ***imaginary mode***
  15:   -101144.57 cm**-1 ***imaginary mode***
  16:    -59659.58 cm**-1 ***imaginary mode***
  17:    -54222.58 cm**-1 ***imaginary mode***
  18:    -44809.04 cm**-1 ***imaginary mode***
  19:    -41337.06 cm**-1 ***imaginary mode***
  20:    -38876.14 cm**-1 ***imaginary mode***
  21:    -37346.93 cm**-1 ***imaginary mode***
  22:    -35601.18 cm**-1 ***imaginary mode***
  23:    -31437.06 cm**-1 ***imaginary mode***
  24:    -27154.71 cm**-1 ***imaginary mode***
  25:    -26064.37 cm**-1 ***imaginary mode***
  26:    -22048.18 cm**-1 ***imaginary mode***
  27:    -21203.80 cm**-1 ***imaginary mode***
  28:    -19203.99 cm**-1 ***imaginary mode***
  29:    -18007.91 cm**-1 ***imaginary mode***
  30:    -14492.80 cm**-1 ***imaginary mode***
  31:    -11010.94 cm**-1 ***imaginary mode***
  32:    -10156.41 cm**-1 ***imaginary mode***
  33:     -9115.07 cm**-1 ***imaginary mode***
  34:     -8381.68 cm**-1 ***imaginary mode***
  35:     -7770.46 cm**-1 ***imaginary mode***
  36:     -5953.62 cm**-1 ***imaginary mode***
  37:     -3191.12 cm**-1 ***imaginary mode***
  38:     11610.36 cm**-1
  39:     12773.05 cm**-1
  40:     17751.67 cm**-1
  41:     20709.57 cm**-1

IR SPECTRUM
-----------

 Mode    freq (cm**-1)   T**2         TX         TY         TZ
-------------------------------------------------------------------
  38:     11610.36  675.902004  ( 14.685715 -21.057720  -4.099295)
  39:     12773.05  3545.501171  ( 27.942392  -5.618442 -52.279604)
  40:     17751.67  6432.788268  ( 72.312735 -31.537290 -14.458768)
  41:     20709.57  13366.262331  (-115.267774   6.592153  -6.012168)

--------------------------
THERMOCHEMISTRY AT 298.15K
--------------------------

Temperature         ... 298.15 K
Pressure            ... 1.00 atm
Total Mass          ... 99.11 AMU

Throughout the following assumptions are being made:
  (1) The electronic state is orbitally nondegenerate
  (2) There are no thermally accessible electronically excited states
  (3) Hindered rotations indicated by low frequency modes) are not
      treated as such but are treated as vibrations and this may
      case some error
  (4) All equations used are the standard statistical mechanics
      equations for an ideal gas
  (5) All vibrations are strinctly harmonic

------------
INNER ENERGY
------------

The inner energy is: U= E(el) + E(ZPE) + E(vib) + E(rot) + E(trans)
    E(el)   - is the total energy from the electronic structure calculation
              = E(kin-el) + E(nuc-el) + E(el-el) + E(nuc-nuc)
    E(ZPE)  - the the zero temperature vibrational energy from the frequency calculation
    E(vib)  - the the finite temperature correction to E(ZPE) due to population
              of excietd vibrational states
    E(rot)  - is the rotational thermal energy
    E(trans)- is the translational thermal energy

Summary of contributions to the inner energy U:
Electronic energy                ...   -340.81857174 Eh
Zero point energy                ...      0.14317062 Eh      89.84 kcal/mol
Thermal vibrational correction   ...      0.00000000 Eh       0.00 kcal/mol
Thermal rotational correction    ...      0.00141627 Eh       0.89 kcal/mol
Thermal translational correction ...      0.00141627 Eh       0.89 kcal/mol
-----------------------------------------------------------------------
Total thermal energy                   -340.67256858 Eh

Summary of corrections to the electronic energy:
(perhaps to be used in another calculation)
Total thermal correction                  0.00283254 Eh       1.78 kcal/mol
Non-thermal (ZPE) correction              0.14317062 Eh      89.84 kcal/mol
-----------------------------------------------------------------------
Total correction                          0.14600316 Eh      91.62 kcal/mol

--------
ENTHALPY
--------

The enthalpy is H = U + kB*T
                kB is Boltzmann's constant
Total free energy                 ...   -340.67256858 Eh
Thermal Enthalpy correction       ...      0.00094421 Eh       0.59 kcal/mol
-----------------------------------------------------------------------
Total Enthalpy                    ...   -340.67162437 Eh

-------
ENTROPY
-------

The entropy contributions are T*S = T*(S(el)+S(vib)+S(rot)+S(trans)
     S(el)   - electronic entropy
     S(vib)  - vibrational entropy
     S(rot)  - rotational entropy
     S(trans)- translational entropy
The entropies will be listed as mutliplied by the temperature to get
units of energy

Electronic entropy                ...      0.00000000 Eh      0.00 kcal/mol
Vibrational entropy               ...      0.00000000 Eh      0.00 kcal/mol
Rotational entropy                ...      0.01184380 Eh      7.43 kcal/mol
Translational entropy             ...      0.01885862 Eh     11.83 kcal/mol
-----------------------------------------------------------------------
Final entropy term                ...      0.03070243 Eh     19.27 kcal/mol

CAUTION: The rotational entropy is not quite correctly treated here
         because it includes a symmetry number that is not yet correctly
         implemented in ORCA!
For a nonlinear molecule the correct rotational entropy is:
    S(rot) = R*(ln(qrot/sn)+1.5)
    R    = 8.31441 J/mol/K = 1.987191683e-3 kcal/mol/K
    qrot = 187701.6498333
    sn is the rotational symmetry number. We have assumed 3 here
       if it is different for your molecule then you should correct
       the printed rotational entropy by manually evaluating the equation
       as given above

For convenience we print out the resulting values for sn=1 - 12:
 sn= 1  qrot/sn=  187701.6498 T*S(rot)=     8.08 kcal/mol T*S(tot)=    19.92 kcal/mol
 sn= 2  qrot/sn=   93850.8249 T*S(rot)=     7.67 kcal/mol T*S(tot)=    19.51 kcal/mol
 sn= 3  qrot/sn=   62567.2166 T*S(rot)=     7.43 kcal/mol T*S(tot)=    19.27 kcal/mol
 sn= 4  qrot/sn=   46925.4125 T*S(rot)=     7.26 kcal/mol T*S(tot)=    19.10 kcal/mol
 sn= 5  qrot/sn=   37540.3300 T*S(rot)=     7.13 kcal/mol T*S(tot)=    18.96 kcal/mol
 sn= 6  qrot/sn=   31283.6083 T*S(rot)=     7.02 kcal/mol T*S(tot)=    18.86 kcal/mol
 sn= 7  qrot/sn=   26814.5214 T*S(rot)=     6.93 kcal/mol T*S(tot)=    18.76 kcal/mol
 sn= 8  qrot/sn=   23462.7062 T*S(rot)=     6.85 kcal/mol T*S(tot)=    18.68 kcal/mol
 sn= 9  qrot/sn=   20855.7389 T*S(rot)=     6.78 kcal/mol T*S(tot)=    18.62 kcal/mol
 sn=10  qrot/sn=   18770.1650 T*S(rot)=     6.72 kcal/mol T*S(tot)=    18.55 kcal/mol
 sn=11  qrot/sn=   17063.7863 T*S(rot)=     6.66 kcal/mol T*S(tot)=    18.50 kcal/mol
 sn=12  qrot/sn=   15641.8042 T*S(rot)=     6.61 kcal/mol T*S(tot)=    18.44 kcal/mol

-------------------
GIBBS FREE ENTHALPY
-------------------

The Gibbs free enthalpy is G = H - T*S

Total enthalpy                    ...   -340.67162437 Eh
Total entropy correction          ...     -0.03070243 Eh    -19.27 kcal/mol
-----------------------------------------------------------------------
Final Gibbs free enthalpy         ...   -340.70232680 Eh

For completeness - the Gibbs free enthalpy minus the electronic energy
G-E(el)                           ...      0.11624494 Eh     72.94 kcal/mol

                             ****ORCA TERMINATED NORMALLY****
TOTAL RUN TIME: 0 days 0 hours 45 minutes 10 seconds 288 msec
