                         Program Version 3.0.3 - RELEASE   -
|  1> ! NORI PBE0 def2-TZVP UseSym TightOPT Freq TightSCF Grid3 FinalGrid5 XYZFile
|  2> % pal
|  3>     nprocs 8
|  4> end
|  5> %method
|  6>     SymThresh 5.0e-2
|  7> end
|  8> % geom
|  9>     MaxIter 10
| 10> end
| 11> % maxcore 2000
| 12> % output
| 13>     printlevel mini
| 14>     print[ P_Basis ] 0
| 15>     print[ P_SCFInfo ] 1
| 16>     print[ P_SCFIterInfo ] 1
| 17>     print[ P_OrbEn ] 0
| 18>     print[ P_Cartesian ] 0
| 19> end
| 20> % elprop
| 21>     Dipole false
| 22> end
| 23> *xyz 1 1
| 24>  C        0.9000759865     0.3498822743     0.0465867773
| 25>  C        2.3753701138     0.0330166005     0.1475323826
| 26>  O        3.1246566054     0.5938891210    -0.9130164166
| 27>  C        2.9626048551     0.4594919654     1.4956432558
| 28>  C        4.4895026107     0.5033486437     1.5243761540
| 29>  C        5.1855257829    -0.7157643061     0.9642987970
| 30>  N        4.8056412442    -1.9609424134     1.7303058747
| 31>  H        0.4923162188    -0.0064657857    -0.9008414793
| 32>  H        0.7376012747     1.4304743051     0.1152918909
| 33>  H        0.3373084875    -0.1192564999     0.8562340863
| 34>  H        2.4897495683    -1.0579598929     0.0313516999
| 35>  H        2.6543047157     1.3485770322    -1.2777346936
| 36>  H        2.5604626622    -0.1943480888     2.2816343770
| 37>  H        2.5993692605     1.4596838711     1.7491681613
| 38>  H        4.8323480887     1.3354246712     0.9062866931
| 39>  H        4.8446804906     0.7091712266     2.5399962659
| 40>  H        6.2708287050    -0.6353063435     1.0328011078
| 41>  H        4.9065154787    -0.8929297875    -0.0748188422
| 42>  H        5.0712403462    -1.8829231440     2.7141465684
| 43>  H        5.2553762828    -2.7938006039     1.3468340100
| 44>  H        3.7938612217    -2.1036228456     1.6942933296
| 45> *
| 46>
| 47>                          ****END OF INPUT****
 Total Charge           Charge          ....    1
 Multiplicity           Mult            ....    1
 Number of Electrons    NEL             ....   58
 Basis Dimension        Dim             ....  301
FINAL SINGLE POINT ENERGY      -328.436556503042
FINAL SINGLE POINT ENERGY      -328.436558995819
FINAL SINGLE POINT ENERGY      -328.436560932385
FINAL SINGLE POINT ENERGY      -328.436561974170
FINAL SINGLE POINT ENERGY      -328.436563430058
FINAL SINGLE POINT ENERGY      -328.436565516417
FINAL SINGLE POINT ENERGY      -328.436571024138
FINAL SINGLE POINT ENERGY      -328.436605673506
FINAL SINGLE POINT ENERGY      -328.436737805861

CARTESIAN COORDINATES (ANGSTROEM)
---------------------------------
  C     -1.715520    1.612270    1.180138
  C     -0.581714    0.725279    0.718376
  O     -0.061367   -0.084195    1.756415
  C     -1.005099   -0.188224   -0.428687
  C     -0.045873   -1.352273   -0.681070
  C      1.417322   -0.985542   -0.756920
  N      1.672040    0.011944   -1.864126
  H     -1.385152    2.291576    1.970272
  H     -2.541756    1.002496    1.559189
  H     -2.098780    2.222415    0.360210
  H      0.236732    1.389943    0.376176
  H     -0.406734    0.205111    2.604067
  H     -1.157104    0.418698   -1.330068
  H     -1.982308   -0.618674   -0.194866
  H     -0.124291   -2.053040    0.152306
  H     -0.341280   -1.904617   -1.579875
  H      2.046539   -1.850101   -0.975168
  H      1.761040   -0.518066    0.167155
  H      1.291581   -0.323216   -2.752001
  H      2.669420    0.188004   -1.993535
  H      1.218176    0.903153   -1.649847

FINAL SINGLE POINT ENERGY      -328.436993493397

VIBRATIONAL FREQUENCIES
-----------------------

   0:         0.00 cm**-1
   1:         0.00 cm**-1
   2:         0.00 cm**-1
   3:         0.00 cm**-1
   4:         0.00 cm**-1
   5:         0.00 cm**-1
   6:   -850821.76 cm**-1 ***imaginary mode***
   7:   -529902.89 cm**-1 ***imaginary mode***
   8:   -518491.52 cm**-1 ***imaginary mode***
   9:   -483077.40 cm**-1 ***imaginary mode***
  10:   -464371.09 cm**-1 ***imaginary mode***
  11:   -431561.78 cm**-1 ***imaginary mode***
  12:   -419788.64 cm**-1 ***imaginary mode***
  13:   -402534.90 cm**-1 ***imaginary mode***
  14:   -394812.23 cm**-1 ***imaginary mode***
  15:   -374120.56 cm**-1 ***imaginary mode***
  16:   -355494.68 cm**-1 ***imaginary mode***
  17:   -315903.84 cm**-1 ***imaginary mode***
  18:   -267906.43 cm**-1 ***imaginary mode***
  19:   -242638.38 cm**-1 ***imaginary mode***
  20:   -236287.84 cm**-1 ***imaginary mode***
  21:   -205843.47 cm**-1 ***imaginary mode***
  22:   -133949.22 cm**-1 ***imaginary mode***
  23:   -105235.39 cm**-1 ***imaginary mode***
  24:    -85115.29 cm**-1 ***imaginary mode***
  25:    -75361.37 cm**-1 ***imaginary mode***
  26:    -68738.15 cm**-1 ***imaginary mode***
  27:    -64932.09 cm**-1 ***imaginary mode***
  28:    -61331.14 cm**-1 ***imaginary mode***
  29:    -58309.58 cm**-1 ***imaginary mode***
  30:    -46995.87 cm**-1 ***imaginary mode***
  31:    -37358.01 cm**-1 ***imaginary mode***
  32:    -30706.76 cm**-1 ***imaginary mode***
  33:    -20977.91 cm**-1 ***imaginary mode***
  34:    -20127.84 cm**-1 ***imaginary mode***
  35:    -17002.32 cm**-1 ***imaginary mode***
  36:    -15762.99 cm**-1 ***imaginary mode***
  37:    -13827.11 cm**-1 ***imaginary mode***
  38:    -13394.15 cm**-1 ***imaginary mode***
  39:    -12172.71 cm**-1 ***imaginary mode***
  40:    -11623.46 cm**-1 ***imaginary mode***
  41:    -10739.10 cm**-1 ***imaginary mode***
  42:     -9876.73 cm**-1 ***imaginary mode***
  43:     -9584.30 cm**-1 ***imaginary mode***
  44:     -8575.18 cm**-1 ***imaginary mode***
  45:     -7544.27 cm**-1 ***imaginary mode***
  46:     -7339.52 cm**-1 ***imaginary mode***
  47:     -6470.58 cm**-1 ***imaginary mode***
  48:     -6212.72 cm**-1 ***imaginary mode***
  49:     -4988.50 cm**-1 ***imaginary mode***
  50:     -1283.82 cm**-1 ***imaginary mode***
  51:      6152.68 cm**-1
  52:     11892.51 cm**-1
  53:     13446.05 cm**-1
  54:     14426.45 cm**-1
  55:     15884.10 cm**-1
  56:     31365.02 cm**-1
  57:     54450.00 cm**-1
  58:     62556.17 cm**-1
  59:     69080.09 cm**-1
  60:     75614.44 cm**-1
  61:     79755.43 cm**-1
  62:     94702.03 cm**-1

IR SPECTRUM
-----------

 Mode    freq (cm**-1)   T**2         TX         TY         TZ
-------------------------------------------------------------------
  51:      6152.68  1009.065512  ( 29.768808  10.767655  -2.634615)
  52:     11892.51  2223.091716  ( 29.683702   3.917047 -36.422882)
  53:     13446.05  797.668175  (-19.956110  -9.949951 -17.332638)
  54:     14426.45  5546.576410  (-21.217445   4.717831  71.232987)
  55:     15884.10  1623.149688  (-22.699724   1.004233  33.269561)
  56:     31365.02  5307.791921  (-37.357428 -30.977833 -54.337725)
  57:     54450.00  30488.320876  (-30.507432 -55.725276 -162.641665)
  58:     62556.17  57090.277481  ( 10.496730   9.889686 -238.500084)
  59:     69080.09  1461.938718  ( -8.157243 -21.249382  30.722335)
  60:     75614.44  49201.356659  ( -2.661556 -39.282520 -218.291448)
  61:     79755.43  96429.016684  ( 46.554624 -23.772371 -306.098935)
  62:     94702.03  36615.400765  ( 52.892935  33.086657 180.895028)

--------------------------
THERMOCHEMISTRY AT 298.15K
--------------------------

Temperature         ... 298.15 K
Pressure            ... 1.00 atm
Total Mass          ... 104.17 AMU

Throughout the following assumptions are being made:
  (1) The electronic state is orbitally nondegenerate
  (2) There are no thermally accessible electronically excited states
  (3) Hindered rotations indicated by low frequency modes) are not
      treated as such but are treated as vibrations and this may
      case some error
  (4) All equations used are the standard statistical mechanics
      equations for an ideal gas
  (5) All vibrations are strinctly harmonic

------------
INNER ENERGY
------------

The inner energy is: U= E(el) + E(ZPE) + E(vib) + E(rot) + E(trans)
    E(el)   - is the total energy from the electronic structure calculation
              = E(kin-el) + E(nuc-el) + E(el-el) + E(nuc-nuc)
    E(ZPE)  - the the zero temperature vibrational energy from the frequency calculation
    E(vib)  - the the finite temperature correction to E(ZPE) due to population
              of excietd vibrational states
    E(rot)  - is the rotational thermal energy
    E(trans)- is the translational thermal energy

Summary of contributions to the inner energy U:
Electronic energy                ...   -328.43699349 Eh
Zero point energy                ...      1.20589100 Eh     756.71 kcal/mol
Thermal vibrational correction   ...      0.00000000 Eh       0.00 kcal/mol
Thermal rotational correction    ...      0.00141627 Eh       0.89 kcal/mol
Thermal translational correction ...      0.00141627 Eh       0.89 kcal/mol
-----------------------------------------------------------------------
Total thermal energy                   -327.22826995 Eh

Summary of corrections to the electronic energy:
(perhaps to be used in another calculation)
Total thermal correction                  0.00283254 Eh       1.78 kcal/mol
Non-thermal (ZPE) correction              1.20589100 Eh     756.71 kcal/mol
-----------------------------------------------------------------------
Total correction                          1.20872354 Eh     758.48 kcal/mol

--------
ENTHALPY
--------

The enthalpy is H = U + kB*T
                kB is Boltzmann's constant
Total free energy                 ...   -327.22826995 Eh
Thermal Enthalpy correction       ...      0.00094421 Eh       0.59 kcal/mol
-----------------------------------------------------------------------
Total Enthalpy                    ...   -327.22732574 Eh

-------
ENTROPY
-------

The entropy contributions are T*S = T*(S(el)+S(vib)+S(rot)+S(trans)
     S(el)   - electronic entropy
     S(vib)  - vibrational entropy
     S(rot)  - rotational entropy
     S(trans)- translational entropy
The entropies will be listed as mutliplied by the temperature to get
units of energy

Electronic entropy                ...      0.00000000 Eh      0.00 kcal/mol
Vibrational entropy               ...      0.00000000 Eh      0.00 kcal/mol
Rotational entropy                ...      0.01228430 Eh      7.71 kcal/mol
Translational entropy             ...      0.01892914 Eh     11.88 kcal/mol
-----------------------------------------------------------------------
Final entropy term                ...      0.03121344 Eh     19.59 kcal/mol

CAUTION: The rotational entropy is not quite correctly treated here
         because it includes a symmetry number that is not yet correctly
         implemented in ORCA!
For a nonlinear molecule the correct rotational entropy is:
    S(rot) = R*(ln(qrot/sn)+1.5)
    R    = 8.31441 J/mol/K = 1.987191683e-3 kcal/mol/K
    qrot = 299283.2598231
    sn is the rotational symmetry number. We have assumed 3 here
       if it is different for your molecule then you should correct
       the printed rotational entropy by manually evaluating the equation
       as given above

For convenience we print out the resulting values for sn=1 - 12:
 sn= 1  qrot/sn=  299283.2598 T*S(rot)=     8.36 kcal/mol T*S(tot)=    20.24 kcal/mol
 sn= 2  qrot/sn=  149641.6299 T*S(rot)=     7.95 kcal/mol T*S(tot)=    19.83 kcal/mol
 sn= 3  qrot/sn=   99761.0866 T*S(rot)=     7.71 kcal/mol T*S(tot)=    19.59 kcal/mol
 sn= 4  qrot/sn=   74820.8150 T*S(rot)=     7.54 kcal/mol T*S(tot)=    19.42 kcal/mol
 sn= 5  qrot/sn=   59856.6520 T*S(rot)=     7.41 kcal/mol T*S(tot)=    19.28 kcal/mol
 sn= 6  qrot/sn=   49880.5433 T*S(rot)=     7.30 kcal/mol T*S(tot)=    19.18 kcal/mol
 sn= 7  qrot/sn=   42754.7514 T*S(rot)=     7.21 kcal/mol T*S(tot)=    19.08 kcal/mol
 sn= 8  qrot/sn=   37410.4075 T*S(rot)=     7.13 kcal/mol T*S(tot)=    19.01 kcal/mol
 sn= 9  qrot/sn=   33253.6955 T*S(rot)=     7.06 kcal/mol T*S(tot)=    18.94 kcal/mol
 sn=10  qrot/sn=   29928.3260 T*S(rot)=     7.00 kcal/mol T*S(tot)=    18.87 kcal/mol
 sn=11  qrot/sn=   27207.5691 T*S(rot)=     6.94 kcal/mol T*S(tot)=    18.82 kcal/mol
 sn=12  qrot/sn=   24940.2717 T*S(rot)=     6.89 kcal/mol T*S(tot)=    18.77 kcal/mol

-------------------
GIBBS FREE ENTHALPY
-------------------

The Gibbs free enthalpy is G = H - T*S

Total enthalpy                    ...   -327.22732574 Eh
Total entropy correction          ...     -0.03121344 Eh    -19.59 kcal/mol
-----------------------------------------------------------------------
Final Gibbs free enthalpy         ...   -327.25853918 Eh

For completeness - the Gibbs free enthalpy minus the electronic energy
G-E(el)                           ...      1.17845431 Eh    739.49 kcal/mol

                             ****ORCA TERMINATED NORMALLY****
TOTAL RUN TIME: 0 days 1 hours 41 minutes 16 seconds 720 msec
