                         Program Version 3.0.3 - RELEASE   -
|  1> ! NORI PBE0 def2-TZVP UseSym TightOPT Freq TightSCF Grid3 FinalGrid5 XYZFile
|  2> % pal
|  3>     nprocs 8
|  4> end
|  5> %method
|  6>     SymThresh 5.0e-2
|  7> end
|  8> % geom
|  9>     MaxIter 10
| 10> end
| 11> % maxcore 2000
| 12> % output
| 13>     printlevel mini
| 14>     print[ P_Basis ] 0
| 15>     print[ P_SCFInfo ] 1
| 16>     print[ P_SCFIterInfo ] 1
| 17>     print[ P_OrbEn ] 0
| 18>     print[ P_Cartesian ] 0
| 19> end
| 20> % elprop
| 21>     Dipole false
| 22> end
| 23> *xyz 1 1
| 24>  C        1.0039776387     0.0690039687     0.1053699262
| 25>  N        2.4853422949     0.1641010929    -0.0032670803
| 26>  C        2.9938707926     1.5271577825    -0.4049267327
| 27>  C        4.4327579467     1.5103114028    -0.4827522148
| 28>  C        5.6316433221     1.4192059702    -0.5324603615
| 29>  C        7.0825501931     1.2748132193    -0.5772075218
| 30>  O        7.6026397987     0.2232693023    -0.3347738223
| 31>  H        0.7368212838    -0.9459963457     0.3930851357
| 32>  H        0.5666611385     0.3114187810    -0.8613722681
| 33>  H        0.6621820670     0.7746165192     0.8600579244
| 34>  H        2.9226062067    -0.0888671742     0.8864096012
| 35>  H        2.8338373920    -0.5174256211    -0.6820454928
| 36>  H        2.5341178002     1.7720954584    -1.3658047137
| 37>  H        2.6310441523     2.2392923375     0.3404657779
| 38>  H        7.6442179729     2.1854133061    -0.8435481574
| 39> *
| 40>
| 41>                          ****END OF INPUT****
 Total Charge           Charge          ....    1
 Multiplicity           Mult            ....    1
 Number of Electrons    NEL             ....   52
 Basis Dimension        Dim             ....  265
FINAL SINGLE POINT ENERGY      -324.721740700698
FINAL SINGLE POINT ENERGY      -324.721740993311
FINAL SINGLE POINT ENERGY      -324.721741267855
FINAL SINGLE POINT ENERGY      -324.719342426606
FINAL SINGLE POINT ENERGY      -324.721740928959
FINAL SINGLE POINT ENERGY      -324.720626442113
FINAL SINGLE POINT ENERGY      -324.721740008717
FINAL SINGLE POINT ENERGY      -324.721497856912
FINAL SINGLE POINT ENERGY      -324.721741258340

CARTESIAN COORDINATES (ANGSTROEM)
---------------------------------
  C     -3.196714    1.422326    0.000007
  N     -1.756166    1.046746    0.000307
  C     -1.501502   -0.440564   -0.000077
  C     -0.083438   -0.697102   -0.000088
  C      1.111593   -0.838071   -0.000091
  C      2.564131   -0.972973   -0.000099
  O      3.270593   -0.005650   -0.000103
  H     -3.276905    2.507793   -0.000993
  H     -3.664826    1.012980    0.893107
  H     -3.664807    1.011339   -0.892346
  H     -1.285642    1.450163   -0.813681
  H     -1.285961    1.449919    0.814610
  H     -1.992598   -0.851965    0.885438
  H     -1.992367   -0.851261   -0.886054
  H      2.946478   -2.007139    0.000062

FINAL SINGLE POINT ENERGY      -324.721737615920

VIBRATIONAL FREQUENCIES
-----------------------

   0:         0.00 cm**-1
   1:         0.00 cm**-1
   2:         0.00 cm**-1
   3:         0.00 cm**-1
   4:         0.00 cm**-1
   5:         0.00 cm**-1
   6:    -14603.64 cm**-1 ***imaginary mode***
   7:     -8031.00 cm**-1 ***imaginary mode***
   8:     -5772.91 cm**-1 ***imaginary mode***
   9:     -3984.73 cm**-1 ***imaginary mode***
  10:     -3816.02 cm**-1 ***imaginary mode***
  11:     -2757.58 cm**-1 ***imaginary mode***
  12:     -2485.42 cm**-1 ***imaginary mode***
  13:     -1940.19 cm**-1 ***imaginary mode***
  14:     -1340.27 cm**-1 ***imaginary mode***
  15:     -1179.12 cm**-1 ***imaginary mode***
  16:      -716.64 cm**-1 ***imaginary mode***
  17:      -582.35 cm**-1 ***imaginary mode***
  18:      -288.23 cm**-1 ***imaginary mode***
  19:       314.09 cm**-1
  20:       437.23 cm**-1
  21:       782.35 cm**-1
  22:       833.38 cm**-1
  23:       851.11 cm**-1
  24:       950.81 cm**-1
  25:      1002.36 cm**-1
  26:      1035.16 cm**-1
  27:      1159.82 cm**-1
  28:      1239.16 cm**-1
  29:      1270.79 cm**-1
  30:      1351.19 cm**-1
  31:      1367.31 cm**-1
  32:      1373.41 cm**-1
  33:      1424.18 cm**-1
  34:      1448.07 cm**-1
  35:      1774.92 cm**-1
  36:      2149.40 cm**-1
  37:      2530.68 cm**-1
  38:      2803.70 cm**-1
  39:      2928.14 cm**-1
  40:      2942.46 cm**-1
  41:      2968.88 cm**-1
  42:      3000.55 cm**-1
  43:      3103.32 cm**-1
  44:      3168.89 cm**-1

IR SPECTRUM
-----------

 Mode    freq (cm**-1)   T**2         TX         TY         TZ
-------------------------------------------------------------------
  19:       314.09    8.226233  (  2.096778  -1.956290   0.051795)
  20:       437.23    7.957736  (  2.424858  -0.365786  -1.394274)
  21:       782.35   28.528315  (  5.331354  -0.267990  -0.182100)
  22:       833.38   35.084714  (  2.476875  -5.378125   0.159910)
  23:       851.11   19.006183  (  3.465559  -1.083191  -2.413043)
  24:       950.81   15.079088  (  3.068829  -1.780038   1.578873)
  25:      1002.36   22.577888  ( -4.157902   1.443585   1.790475)
  26:      1035.16   88.446151  (  8.898474  -2.960523  -0.706127)
  27:      1159.82    8.788638  ( -2.952153   0.187855  -0.195294)
  28:      1239.16    5.558120  ( -1.509647  -1.259470   1.301085)
  29:      1270.79   18.499880  (  1.363075  -2.937033   2.831209)
  30:      1351.19   24.830518  ( -4.843622   0.104078   1.165765)
  31:      1367.31   14.334914  (  0.741136  -2.168546   3.013808)
  32:      1373.41   23.936674  (  3.752886  -3.129208  -0.246132)
  33:      1424.18   86.194552  ( -6.512744   6.591680   0.573133)
  34:      1448.07   24.587729  ( -3.820974   3.098447   0.622505)
  35:      1774.92  156.625750  (-10.729980  -6.440952   0.086136)
  36:      2149.40    1.535558  ( -0.886326  -0.860795  -0.094955)
  37:      2530.68   80.129069  (  5.599445   5.565373  -4.219230)
  38:      2803.70   12.915311  (  0.125935   3.586469  -0.191552)
  39:      2928.14   29.530916  ( -3.011607  -2.556835  -3.731453)
  40:      2942.46   39.007807  (  3.652989  -4.578952   2.167182)
  41:      2968.88    6.437877  (  0.444815   2.162211   1.250943)
  42:      3000.55   19.469289  ( -2.169425  -2.688792  -2.744683)
  43:      3103.32    0.815360  ( -0.664348   0.594584   0.143078)
  44:      3168.89    1.022073  (  0.087757   1.005312   0.060980)

--------------------------
THERMOCHEMISTRY AT 298.15K
--------------------------

Temperature         ... 298.15 K
Pressure            ... 1.00 atm
Total Mass          ... 98.12 AMU

Throughout the following assumptions are being made:
  (1) The electronic state is orbitally nondegenerate
  (2) There are no thermally accessible electronically excited states
  (3) Hindered rotations indicated by low frequency modes) are not
      treated as such but are treated as vibrations and this may
      case some error
  (4) All equations used are the standard statistical mechanics
      equations for an ideal gas
  (5) All vibrations are strinctly harmonic

------------
INNER ENERGY
------------

The inner energy is: U= E(el) + E(ZPE) + E(vib) + E(rot) + E(trans)
    E(el)   - is the total energy from the electronic structure calculation
              = E(kin-el) + E(nuc-el) + E(el-el) + E(nuc-nuc)
    E(ZPE)  - the the zero temperature vibrational energy from the frequency calculation
    E(vib)  - the the finite temperature correction to E(ZPE) due to population
              of excietd vibrational states
    E(rot)  - is the rotational thermal energy
    E(trans)- is the translational thermal energy

Summary of contributions to the inner energy U:
Electronic energy                ...   -324.72173762 Eh
Zero point energy                ...      0.10072087 Eh      63.20 kcal/mol
Thermal vibrational correction   ...      0.00109604 Eh       0.69 kcal/mol
Thermal rotational correction    ...      0.00141627 Eh       0.89 kcal/mol
Thermal translational correction ...      0.00141627 Eh       0.89 kcal/mol
-----------------------------------------------------------------------
Total thermal energy                   -324.61708816 Eh

Summary of corrections to the electronic energy:
(perhaps to be used in another calculation)
Total thermal correction                  0.00392858 Eh       2.47 kcal/mol
Non-thermal (ZPE) correction              0.10072087 Eh      63.20 kcal/mol
-----------------------------------------------------------------------
Total correction                          0.10464945 Eh      65.67 kcal/mol

--------
ENTHALPY
--------

The enthalpy is H = U + kB*T
                kB is Boltzmann's constant
Total free energy                 ...   -324.61708816 Eh
Thermal Enthalpy correction       ...      0.00094421 Eh       0.59 kcal/mol
-----------------------------------------------------------------------
Total Enthalpy                    ...   -324.61614395 Eh

-------
ENTROPY
-------

The entropy contributions are T*S = T*(S(el)+S(vib)+S(rot)+S(trans)
     S(el)   - electronic entropy
     S(vib)  - vibrational entropy
     S(rot)  - rotational entropy
     S(trans)- translational entropy
The entropies will be listed as mutliplied by the temperature to get
units of energy

Electronic entropy                ...      0.00000000 Eh      0.00 kcal/mol
Vibrational entropy               ...      0.00154442 Eh      0.97 kcal/mol
Rotational entropy                ...      0.01234047 Eh      7.74 kcal/mol
Translational entropy             ...      0.01884443 Eh     11.83 kcal/mol
-----------------------------------------------------------------------
Final entropy term                ...      0.03272933 Eh     20.54 kcal/mol

CAUTION: The rotational entropy is not quite correctly treated here
         because it includes a symmetry number that is not yet correctly
         implemented in ORCA!
For a nonlinear molecule the correct rotational entropy is:
    S(rot) = R*(ln(qrot/sn)+1.5)
    R    = 8.31441 J/mol/K = 1.987191683e-3 kcal/mol/K
    qrot = 317629.6354569
    sn is the rotational symmetry number. We have assumed 3 here
       if it is different for your molecule then you should correct
       the printed rotational entropy by manually evaluating the equation
       as given above

For convenience we print out the resulting values for sn=1 - 12:
 sn= 1  qrot/sn=  317629.6355 T*S(rot)=     8.39 kcal/mol T*S(tot)=    21.19 kcal/mol
 sn= 2  qrot/sn=  158814.8177 T*S(rot)=     7.98 kcal/mol T*S(tot)=    20.78 kcal/mol
 sn= 3  qrot/sn=  105876.5452 T*S(rot)=     7.74 kcal/mol T*S(tot)=    20.54 kcal/mol
 sn= 4  qrot/sn=   79407.4089 T*S(rot)=     7.57 kcal/mol T*S(tot)=    20.37 kcal/mol
 sn= 5  qrot/sn=   63525.9271 T*S(rot)=     7.44 kcal/mol T*S(tot)=    20.24 kcal/mol
 sn= 6  qrot/sn=   52938.2726 T*S(rot)=     7.33 kcal/mol T*S(tot)=    20.13 kcal/mol
 sn= 7  qrot/sn=   45375.6622 T*S(rot)=     7.24 kcal/mol T*S(tot)=    20.04 kcal/mol
 sn= 8  qrot/sn=   39703.7044 T*S(rot)=     7.16 kcal/mol T*S(tot)=    19.96 kcal/mol
 sn= 9  qrot/sn=   35292.1817 T*S(rot)=     7.09 kcal/mol T*S(tot)=    19.89 kcal/mol
 sn=10  qrot/sn=   31762.9635 T*S(rot)=     7.03 kcal/mol T*S(tot)=    19.82 kcal/mol
 sn=11  qrot/sn=   28875.4214 T*S(rot)=     6.97 kcal/mol T*S(tot)=    19.77 kcal/mol
 sn=12  qrot/sn=   26469.1363 T*S(rot)=     6.92 kcal/mol T*S(tot)=    19.72 kcal/mol

-------------------
GIBBS FREE ENTHALPY
-------------------

The Gibbs free enthalpy is G = H - T*S

Total enthalpy                    ...   -324.61614395 Eh
Total entropy correction          ...     -0.03272933 Eh    -20.54 kcal/mol
-----------------------------------------------------------------------
Final Gibbs free enthalpy         ...   -324.64887328 Eh

For completeness - the Gibbs free enthalpy minus the electronic energy
G-E(el)                           ...      0.07286434 Eh     45.72 kcal/mol

                             ****ORCA TERMINATED NORMALLY****
TOTAL RUN TIME: 0 days 0 hours 49 minutes 6 seconds 85 msec
