                         Program Version 3.0.3 - RELEASE   -
|  1> ! NORI PBE0 def2-TZVP UseSym TightOPT Freq TightSCF Grid3 FinalGrid5 XYZFile
|  2> % pal
|  3>     nprocs 8
|  4> end
|  5> %method
|  6>     SymThresh 5.0e-2
|  7> end
|  8> % geom
|  9>     MaxIter 10
| 10> end
| 11> % maxcore 2000
| 12> % output
| 13>     printlevel mini
| 14>     print[ P_Basis ] 0
| 15>     print[ P_SCFInfo ] 1
| 16>     print[ P_SCFIterInfo ] 1
| 17>     print[ P_OrbEn ] 0
| 18>     print[ P_Cartesian ] 0
| 19> end
| 20> % elprop
| 21>     Dipole false
| 22> end
| 23> *xyz 1 1
| 24>  N        0.7649964594    -0.2040760650    -0.6634013648
| 25>  C        2.1312911111    -0.1876244217    -0.0886069245
| 26>  C        3.2459580907    -0.8735600278    -0.8115613870
| 27>  C        3.1813048079     0.6195505722    -0.7558161101
| 28>  O        4.0177620904     1.3124841137     0.1093240910
| 29>  C        4.9744441813     2.0628787729    -0.5086528437
| 30>  O        5.0885365658     2.1552586132    -1.6862045500
| 31>  H        0.2733368252    -1.0710473254    -0.4263264553
| 32>  H        0.7900634077    -0.1379120946    -1.6839636972
| 33>  H        0.2053000944     0.5812230762    -0.3183177171
| 34>  H        2.1048278372    -0.2196187589     0.9932751764
| 35>  H        3.9643531367    -1.3872826243    -0.1849451894
| 36>  H        3.0601739862    -1.3412572194    -1.7722821312
| 37>  H        2.9568401372     1.1424340350    -1.6814297131
| 38>  H        5.5874412689     2.5533193538     0.2558088161
| 39> *
| 40>
| 41>                          ****END OF INPUT****
 Total Charge           Charge          ....    1
 Multiplicity           Mult            ....    1
 Number of Electrons    NEL             ....   54
 Basis Dimension        Dim             ....  265
FINAL SINGLE POINT ENERGY      -361.885611027015
FINAL SINGLE POINT ENERGY      -361.885611524752
FINAL SINGLE POINT ENERGY      -361.885610273851
FINAL SINGLE POINT ENERGY      -361.885613186618
FINAL SINGLE POINT ENERGY      -361.885614534043
FINAL SINGLE POINT ENERGY      -361.885620727676
FINAL SINGLE POINT ENERGY      -361.885637056294
FINAL SINGLE POINT ENERGY      -361.885723563221
FINAL SINGLE POINT ENERGY      -361.885909452391

CARTESIAN COORDINATES (ANGSTROEM)
---------------------------------
  N     -1.477741    0.973712   -1.900402
  C     -1.326020    0.009989   -0.781680
  C     -0.652426   -1.302438   -1.027655
  C      0.033654   -0.241461   -0.233618
  O      0.126447   -0.403472    1.140609
  C      1.194992    0.196123    1.737795
  O      1.990231    0.872674    1.172279
  H     -2.294235    0.750628   -2.478451
  H     -0.657440    0.960993   -2.511849
  H     -1.585978    1.931652   -1.554018
  H     -2.170997    0.054585   -0.105926
  H     -1.076128   -2.151737   -0.505504
  H     -0.248114   -1.523788   -2.009234
  H      0.887973    0.266347   -0.673287
  H      1.180324   -0.048100    2.805455

FINAL SINGLE POINT ENERGY      -361.886220839310

VIBRATIONAL FREQUENCIES
-----------------------

   0:         0.00 cm**-1
   1:         0.00 cm**-1
   2:         0.00 cm**-1
   3:         0.00 cm**-1
   4:         0.00 cm**-1
   5:         0.00 cm**-1
   6:   -129545.46 cm**-1 ***imaginary mode***
   7:    -85244.12 cm**-1 ***imaginary mode***
   8:    -67394.35 cm**-1 ***imaginary mode***
   9:    -57152.77 cm**-1 ***imaginary mode***
  10:    -53609.32 cm**-1 ***imaginary mode***
  11:    -47979.23 cm**-1 ***imaginary mode***
  12:    -44066.61 cm**-1 ***imaginary mode***
  13:    -32751.08 cm**-1 ***imaginary mode***
  14:    -25774.39 cm**-1 ***imaginary mode***
  15:    -22670.08 cm**-1 ***imaginary mode***
  16:    -18713.54 cm**-1 ***imaginary mode***
  17:    -17264.09 cm**-1 ***imaginary mode***
  18:    -13291.29 cm**-1 ***imaginary mode***
  19:    -12232.96 cm**-1 ***imaginary mode***
  20:    -11520.60 cm**-1 ***imaginary mode***
  21:     -7721.41 cm**-1 ***imaginary mode***
  22:     -5187.38 cm**-1 ***imaginary mode***
  23:     -4813.75 cm**-1 ***imaginary mode***
  24:     -3398.31 cm**-1 ***imaginary mode***
  25:     -3157.46 cm**-1 ***imaginary mode***
  26:     -2567.47 cm**-1 ***imaginary mode***
  27:     -2107.64 cm**-1 ***imaginary mode***
  28:     -1808.88 cm**-1 ***imaginary mode***
  29:      -617.93 cm**-1 ***imaginary mode***
  30:       478.88 cm**-1
  31:       946.84 cm**-1
  32:      1366.36 cm**-1
  33:      1818.74 cm**-1
  34:      2433.04 cm**-1
  35:      2824.82 cm**-1
  36:      3021.47 cm**-1
  37:      3285.40 cm**-1
  38:      5107.42 cm**-1
  39:      5377.79 cm**-1
  40:      5911.79 cm**-1
  41:      6512.82 cm**-1
  42:      6721.10 cm**-1
  43:      7142.63 cm**-1
  44:     18343.69 cm**-1

IR SPECTRUM
-----------

 Mode    freq (cm**-1)   T**2         TX         TY         TZ
-------------------------------------------------------------------
  30:       478.88   95.206603  ( -1.617183   8.737580   4.030635)
  31:       946.84   19.628000  (  1.760586  -3.482532   2.097692)
  32:      1366.36   31.881967  ( -3.346893  -3.220683   3.210525)
  33:      1818.74   60.328008  ( -4.047878  -5.421598   3.814310)
  34:      2433.04   10.782594  ( -0.529476  -0.196692  -3.234743)
  35:      2824.82  170.911941  (  7.478190  -9.941889  -4.018390)
  36:      3021.47   25.139400  ( -0.525380   2.919338   4.042381)
  37:      3285.40   99.463544  ( -7.097063  -3.168211   6.249615)
  38:      5107.42   24.931026  (  4.874584   0.026511  -1.081087)
  39:      5377.79   19.020993  ( -0.446539   2.955206   3.176217)
  40:      5911.79   23.545778  (  1.250247   4.411141   1.588866)
  41:      6512.82   14.042150  (  3.049833  -0.766175   2.038050)
  42:      6721.10  102.076682  (  4.827398  -0.187997   8.873419)
  43:      7142.63    6.843375  (  1.587919   1.035524   1.802659)
  44:     18343.69  375.393466  (-16.913802  -7.609242  -5.605016)

--------------------------
THERMOCHEMISTRY AT 298.15K
--------------------------

Temperature         ... 298.15 K
Pressure            ... 1.00 atm
Total Mass          ... 102.11 AMU

Throughout the following assumptions are being made:
  (1) The electronic state is orbitally nondegenerate
  (2) There are no thermally accessible electronically excited states
  (3) Hindered rotations indicated by low frequency modes) are not
      treated as such but are treated as vibrations and this may
      case some error
  (4) All equations used are the standard statistical mechanics
      equations for an ideal gas
  (5) All vibrations are strinctly harmonic

------------
INNER ENERGY
------------

The inner energy is: U= E(el) + E(ZPE) + E(vib) + E(rot) + E(trans)
    E(el)   - is the total energy from the electronic structure calculation
              = E(kin-el) + E(nuc-el) + E(el-el) + E(nuc-nuc)
    E(ZPE)  - the the zero temperature vibrational energy from the frequency calculation
    E(vib)  - the the finite temperature correction to E(ZPE) due to population
              of excietd vibrational states
    E(rot)  - is the rotational thermal energy
    E(trans)- is the translational thermal energy

Summary of contributions to the inner energy U:
Electronic energy                ...   -361.88622084 Eh
Zero point energy                ...      0.16241694 Eh     101.92 kcal/mol
Thermal vibrational correction   ...      0.00029534 Eh       0.19 kcal/mol
Thermal rotational correction    ...      0.00141627 Eh       0.89 kcal/mol
Thermal translational correction ...      0.00141627 Eh       0.89 kcal/mol
-----------------------------------------------------------------------
Total thermal energy                   -361.72067601 Eh

Summary of corrections to the electronic energy:
(perhaps to be used in another calculation)
Total thermal correction                  0.00312789 Eh       1.96 kcal/mol
Non-thermal (ZPE) correction              0.16241694 Eh     101.92 kcal/mol
-----------------------------------------------------------------------
Total correction                          0.16554483 Eh     103.88 kcal/mol

--------
ENTHALPY
--------

The enthalpy is H = U + kB*T
                kB is Boltzmann's constant
Total free energy                 ...   -361.72067601 Eh
Thermal Enthalpy correction       ...      0.00094421 Eh       0.59 kcal/mol
-----------------------------------------------------------------------
Total Enthalpy                    ...   -361.71973180 Eh

-------
ENTROPY
-------

The entropy contributions are T*S = T*(S(el)+S(vib)+S(rot)+S(trans)
     S(el)   - electronic entropy
     S(vib)  - vibrational entropy
     S(rot)  - rotational entropy
     S(trans)- translational entropy
The entropies will be listed as mutliplied by the temperature to get
units of energy

Electronic entropy                ...      0.00000000 Eh      0.00 kcal/mol
Vibrational entropy               ...      0.00040524 Eh      0.25 kcal/mol
Rotational entropy                ...      0.01211563 Eh      7.60 kcal/mol
Translational entropy             ...      0.01890086 Eh     11.86 kcal/mol
-----------------------------------------------------------------------
Final entropy term                ...      0.03142172 Eh     19.72 kcal/mol

CAUTION: The rotational entropy is not quite correctly treated here
         because it includes a symmetry number that is not yet correctly
         implemented in ORCA!
For a nonlinear molecule the correct rotational entropy is:
    S(rot) = R*(ln(qrot/sn)+1.5)
    R    = 8.31441 J/mol/K = 1.987191683e-3 kcal/mol/K
    qrot = 250321.7896016
    sn is the rotational symmetry number. We have assumed 3 here
       if it is different for your molecule then you should correct
       the printed rotational entropy by manually evaluating the equation
       as given above

For convenience we print out the resulting values for sn=1 - 12:
 sn= 1  qrot/sn=  250321.7896 T*S(rot)=     8.25 kcal/mol T*S(tot)=    20.37 kcal/mol
 sn= 2  qrot/sn=  125160.8948 T*S(rot)=     7.84 kcal/mol T*S(tot)=    19.96 kcal/mol
 sn= 3  qrot/sn=   83440.5965 T*S(rot)=     7.60 kcal/mol T*S(tot)=    19.72 kcal/mol
 sn= 4  qrot/sn=   62580.4474 T*S(rot)=     7.43 kcal/mol T*S(tot)=    19.55 kcal/mol
 sn= 5  qrot/sn=   50064.3579 T*S(rot)=     7.30 kcal/mol T*S(tot)=    19.41 kcal/mol
 sn= 6  qrot/sn=   41720.2983 T*S(rot)=     7.19 kcal/mol T*S(tot)=    19.31 kcal/mol
 sn= 7  qrot/sn=   35760.2557 T*S(rot)=     7.10 kcal/mol T*S(tot)=    19.22 kcal/mol
 sn= 8  qrot/sn=   31290.2237 T*S(rot)=     7.02 kcal/mol T*S(tot)=    19.14 kcal/mol
 sn= 9  qrot/sn=   27813.5322 T*S(rot)=     6.95 kcal/mol T*S(tot)=    19.07 kcal/mol
 sn=10  qrot/sn=   25032.1790 T*S(rot)=     6.89 kcal/mol T*S(tot)=    19.00 kcal/mol
 sn=11  qrot/sn=   22756.5263 T*S(rot)=     6.83 kcal/mol T*S(tot)=    18.95 kcal/mol
 sn=12  qrot/sn=   20860.1491 T*S(rot)=     6.78 kcal/mol T*S(tot)=    18.90 kcal/mol

-------------------
GIBBS FREE ENTHALPY
-------------------

The Gibbs free enthalpy is G = H - T*S

Total enthalpy                    ...   -361.71973180 Eh
Total entropy correction          ...     -0.03142172 Eh    -19.72 kcal/mol
-----------------------------------------------------------------------
Final Gibbs free enthalpy         ...   -361.75115352 Eh

For completeness - the Gibbs free enthalpy minus the electronic energy
G-E(el)                           ...      0.13506732 Eh     84.76 kcal/mol

                             ****ORCA TERMINATED NORMALLY****
TOTAL RUN TIME: 0 days 0 hours 41 minutes 55 seconds 987 msec
