                         Program Version 3.0.3 - RELEASE   -
|  1> ! NORI PBE0 def2-TZVP UseSym TightOPT Freq TightSCF Grid3 FinalGrid5 XYZFile
|  2> % pal
|  3>     nprocs 8
|  4> end
|  5> %method
|  6>     SymThresh 5.0e-2
|  7> end
|  8> % geom
|  9>     MaxIter 10
| 10> end
| 11> % maxcore 2000
| 12> % output
| 13>     printlevel mini
| 14>     print[ P_Basis ] 0
| 15>     print[ P_SCFInfo ] 1
| 16>     print[ P_SCFIterInfo ] 1
| 17>     print[ P_OrbEn ] 0
| 18>     print[ P_Cartesian ] 0
| 19> end
| 20> % elprop
| 21>     Dipole false
| 22> end
| 23> *xyz 1 1
| 24>  O        1.0978137961     0.4320906904     0.2104612599
| 25>  C        2.4471999014     0.1725552400     0.0540683305
| 26>  C        3.2402808763     0.9685915334     1.1217709642
| 27>  N        3.8478257235    -0.3114273749     1.6606701145
| 28>  C        2.9301169774    -1.1268890623     0.7716098508
| 29>  C        2.9600241065     0.3230948011    -1.3441629726
| 30>  C        2.2981243371     0.9239300703    -2.3206580309
| 31>  H        0.6120019847     0.1083930355    -0.5566530513
| 32>  H        2.5856019636     1.4152969037     1.8674793200
| 33>  H        3.9947097238     1.6746129021     0.7833665399
| 34>  H        4.8350243594    -0.4189051386     1.4340929627
| 35>  H        3.7393111356    -0.4617475940     2.6625015244
| 36>  H        3.4740120045    -1.8736384890     0.1969604839
| 37>  H        2.1456305170    -1.5830305766     1.3714397134
| 38>  H        3.9485610574    -0.0879018310    -1.5381134058
| 39>  H        1.3208555821     1.3717465947    -2.1745229345
| 40>  H        2.7232559537     1.0021782951    -3.3134106692
| 41> *
| 42>
| 43>                          ****END OF INPUT****
 Total Charge           Charge          ....    1
 Multiplicity           Mult            ....    1
 Number of Electrons    NEL             ....   54
 Basis Dimension        Dim             ....  277
FINAL SINGLE POINT ENERGY      -325.970820321464
FINAL SINGLE POINT ENERGY      -325.970821747096
FINAL SINGLE POINT ENERGY      -325.970823540650
FINAL SINGLE POINT ENERGY      -325.970824894583
FINAL SINGLE POINT ENERGY      -325.970827847400
FINAL SINGLE POINT ENERGY      -325.970833508959
FINAL SINGLE POINT ENERGY      -325.970854680743
FINAL SINGLE POINT ENERGY      -325.970924183010
FINAL SINGLE POINT ENERGY      -325.970928996721

CARTESIAN COORDINATES (ANGSTROEM)
---------------------------------
  O      0.036922    0.007220    1.564227
  C     -0.036489   -0.054645    0.182771
  C      0.888366    1.045665   -0.397034
  N      1.792715    0.002225   -1.024210
  C      0.936315   -1.105895   -0.440715
  C     -1.425642   -0.088406   -0.372075
  C     -2.510356    0.222784    0.320800
  H     -0.657379   -0.535919    1.954573
  H      1.415408    1.598509    0.377429
  H      0.466306    1.711815   -1.145202
  H      1.805822    0.022057   -2.042155
  H      2.756741    0.019309   -0.695981
  H      0.550603   -1.757722   -1.221538
  H      1.494897   -1.669676    0.302795
  H     -1.515516   -0.380893   -1.415599
  H     -2.467238    0.542871    1.356490
  H     -3.491092    0.180184   -0.136037

FINAL SINGLE POINT ENERGY      -325.970970643730

VIBRATIONAL FREQUENCIES
-----------------------

   0:         0.00 cm**-1
   1:         0.00 cm**-1
   2:         0.00 cm**-1
   3:         0.00 cm**-1
   4:         0.00 cm**-1
   5:         0.00 cm**-1
   6:   -140186.69 cm**-1 ***imaginary mode***
   7:   -106023.57 cm**-1 ***imaginary mode***
   8:   -102383.52 cm**-1 ***imaginary mode***
   9:    -91708.38 cm**-1 ***imaginary mode***
  10:    -69835.90 cm**-1 ***imaginary mode***
  11:    -60549.28 cm**-1 ***imaginary mode***
  12:    -59626.67 cm**-1 ***imaginary mode***
  13:    -56863.73 cm**-1 ***imaginary mode***
  14:    -49350.91 cm**-1 ***imaginary mode***
  15:    -46170.98 cm**-1 ***imaginary mode***
  16:    -40904.09 cm**-1 ***imaginary mode***
  17:    -32243.00 cm**-1 ***imaginary mode***
  18:    -25074.80 cm**-1 ***imaginary mode***
  19:    -21057.64 cm**-1 ***imaginary mode***
  20:    -19494.26 cm**-1 ***imaginary mode***
  21:    -17882.97 cm**-1 ***imaginary mode***
  22:    -13530.73 cm**-1 ***imaginary mode***
  23:    -13043.33 cm**-1 ***imaginary mode***
  24:    -10721.99 cm**-1 ***imaginary mode***
  25:     -9374.32 cm**-1 ***imaginary mode***
  26:     -8719.46 cm**-1 ***imaginary mode***
  27:     -7215.58 cm**-1 ***imaginary mode***
  28:     -6802.27 cm**-1 ***imaginary mode***
  29:     -6661.12 cm**-1 ***imaginary mode***
  30:     -6256.97 cm**-1 ***imaginary mode***
  31:     -5554.48 cm**-1 ***imaginary mode***
  32:     -4975.28 cm**-1 ***imaginary mode***
  33:     -4842.25 cm**-1 ***imaginary mode***
  34:     -4418.87 cm**-1 ***imaginary mode***
  35:     -4190.26 cm**-1 ***imaginary mode***
  36:     -3546.76 cm**-1 ***imaginary mode***
  37:     -3227.88 cm**-1 ***imaginary mode***
  38:     -2589.79 cm**-1 ***imaginary mode***
  39:     -2133.61 cm**-1 ***imaginary mode***
  40:      -461.34 cm**-1 ***imaginary mode***
  41:       372.90 cm**-1
  42:      1363.89 cm**-1
  43:      1653.22 cm**-1
  44:      1954.65 cm**-1
  45:      2424.22 cm**-1
  46:      3057.30 cm**-1
  47:      3774.40 cm**-1
  48:      4982.97 cm**-1
  49:      7431.75 cm**-1
  50:     12627.63 cm**-1

IR SPECTRUM
-----------

 Mode    freq (cm**-1)   T**2         TX         TY         TZ
-------------------------------------------------------------------
  41:       372.90   39.420960  (  2.174084  -0.954974  -5.812258)
  42:      1363.89    4.972491  ( -0.915966  -1.979632   0.463200)
  43:      1653.22   13.643001  ( -0.770925  -2.179559  -2.880660)
  44:      1954.65   14.628387  (  1.726760   1.423158  -3.101823)
  45:      2424.22   91.857117  (  2.952410  -5.830599   7.010314)
  46:      3057.30  124.659930  ( -1.422182  -1.724346  10.939102)
  47:      3774.40  124.939774  ( -4.186450  -9.108408   4.944726)
  48:      4982.97    2.345573  (  0.943638   1.182227   0.239709)
  49:      7431.75   80.908636  (  5.468347   6.093540  -3.724861)
  50:     12627.63  107.436872  (  4.047233   8.586194  -4.163418)

--------------------------
THERMOCHEMISTRY AT 298.15K
--------------------------

Temperature         ... 298.15 K
Pressure            ... 1.00 atm
Total Mass          ... 100.14 AMU

Throughout the following assumptions are being made:
  (1) The electronic state is orbitally nondegenerate
  (2) There are no thermally accessible electronically excited states
  (3) Hindered rotations indicated by low frequency modes) are not
      treated as such but are treated as vibrations and this may
      case some error
  (4) All equations used are the standard statistical mechanics
      equations for an ideal gas
  (5) All vibrations are strinctly harmonic

------------
INNER ENERGY
------------

The inner energy is: U= E(el) + E(ZPE) + E(vib) + E(rot) + E(trans)
    E(el)   - is the total energy from the electronic structure calculation
              = E(kin-el) + E(nuc-el) + E(el-el) + E(nuc-nuc)
    E(ZPE)  - the the zero temperature vibrational energy from the frequency calculation
    E(vib)  - the the finite temperature correction to E(ZPE) due to population
              of excietd vibrational states
    E(rot)  - is the rotational thermal energy
    E(trans)- is the translational thermal energy

Summary of contributions to the inner energy U:
Electronic energy                ...   -325.97097064 Eh
Zero point energy                ...      0.09031324 Eh      56.67 kcal/mol
Thermal vibrational correction   ...      0.00034871 Eh       0.22 kcal/mol
Thermal rotational correction    ...      0.00141627 Eh       0.89 kcal/mol
Thermal translational correction ...      0.00141627 Eh       0.89 kcal/mol
-----------------------------------------------------------------------
Total thermal energy                   -325.87747615 Eh

Summary of corrections to the electronic energy:
(perhaps to be used in another calculation)
Total thermal correction                  0.00318125 Eh       2.00 kcal/mol
Non-thermal (ZPE) correction              0.09031324 Eh      56.67 kcal/mol
-----------------------------------------------------------------------
Total correction                          0.09349449 Eh      58.67 kcal/mol

--------
ENTHALPY
--------

The enthalpy is H = U + kB*T
                kB is Boltzmann's constant
Total free energy                 ...   -325.87747615 Eh
Thermal Enthalpy correction       ...      0.00094421 Eh       0.59 kcal/mol
-----------------------------------------------------------------------
Total Enthalpy                    ...   -325.87653194 Eh

-------
ENTROPY
-------

The entropy contributions are T*S = T*(S(el)+S(vib)+S(rot)+S(trans)
     S(el)   - electronic entropy
     S(vib)  - vibrational entropy
     S(rot)  - rotational entropy
     S(trans)- translational entropy
The entropies will be listed as mutliplied by the temperature to get
units of energy

Electronic entropy                ...      0.00000000 Eh      0.00 kcal/mol
Vibrational entropy               ...      0.00052112 Eh      0.33 kcal/mol
Rotational entropy                ...      0.01193862 Eh      7.49 kcal/mol
Translational entropy             ...      0.01887324 Eh     11.84 kcal/mol
-----------------------------------------------------------------------
Final entropy term                ...      0.03133297 Eh     19.66 kcal/mol

CAUTION: The rotational entropy is not quite correctly treated here
         because it includes a symmetry number that is not yet correctly
         implemented in ORCA!
For a nonlinear molecule the correct rotational entropy is:
    S(rot) = R*(ln(qrot/sn)+1.5)
    R    = 8.31441 J/mol/K = 1.987191683e-3 kcal/mol/K
    qrot = 207529.8223970
    sn is the rotational symmetry number. We have assumed 3 here
       if it is different for your molecule then you should correct
       the printed rotational entropy by manually evaluating the equation
       as given above

For convenience we print out the resulting values for sn=1 - 12:
 sn= 1  qrot/sn=  207529.8224 T*S(rot)=     8.14 kcal/mol T*S(tot)=    20.31 kcal/mol
 sn= 2  qrot/sn=  103764.9112 T*S(rot)=     7.73 kcal/mol T*S(tot)=    19.90 kcal/mol
 sn= 3  qrot/sn=   69176.6075 T*S(rot)=     7.49 kcal/mol T*S(tot)=    19.66 kcal/mol
 sn= 4  qrot/sn=   51882.4556 T*S(rot)=     7.32 kcal/mol T*S(tot)=    19.49 kcal/mol
 sn= 5  qrot/sn=   41505.9645 T*S(rot)=     7.19 kcal/mol T*S(tot)=    19.36 kcal/mol
 sn= 6  qrot/sn=   34588.3037 T*S(rot)=     7.08 kcal/mol T*S(tot)=    19.25 kcal/mol
 sn= 7  qrot/sn=   29647.1175 T*S(rot)=     6.99 kcal/mol T*S(tot)=    19.16 kcal/mol
 sn= 8  qrot/sn=   25941.2278 T*S(rot)=     6.91 kcal/mol T*S(tot)=    19.08 kcal/mol
 sn= 9  qrot/sn=   23058.8692 T*S(rot)=     6.84 kcal/mol T*S(tot)=    19.01 kcal/mol
 sn=10  qrot/sn=   20752.9822 T*S(rot)=     6.78 kcal/mol T*S(tot)=    18.95 kcal/mol
 sn=11  qrot/sn=   18866.3475 T*S(rot)=     6.72 kcal/mol T*S(tot)=    18.89 kcal/mol
 sn=12  qrot/sn=   17294.1519 T*S(rot)=     6.67 kcal/mol T*S(tot)=    18.84 kcal/mol

-------------------
GIBBS FREE ENTHALPY
-------------------

The Gibbs free enthalpy is G = H - T*S

Total enthalpy                    ...   -325.87653194 Eh
Total entropy correction          ...     -0.03133297 Eh    -19.66 kcal/mol
-----------------------------------------------------------------------
Final Gibbs free enthalpy         ...   -325.90786492 Eh

For completeness - the Gibbs free enthalpy minus the electronic energy
G-E(el)                           ...      0.06310573 Eh     39.60 kcal/mol

                             ****ORCA TERMINATED NORMALLY****
TOTAL RUN TIME: 0 days 0 hours 52 minutes 32 seconds 968 msec
