                         Program Version 3.0.3 - RELEASE   -
|  1> ! NORI PBE0 def2-TZVP UseSym TightOPT Freq TightSCF Grid3 FinalGrid5 XYZFile
|  2> % pal
|  3>     nprocs 8
|  4> end
|  5> %method
|  6>     SymThresh 5.0e-2
|  7> end
|  8> % geom
|  9>     MaxIter 10
| 10> end
| 11> % maxcore 2000
| 12> % output
| 13>     printlevel mini
| 14>     print[ P_Basis ] 0
| 15>     print[ P_SCFInfo ] 1
| 16>     print[ P_SCFIterInfo ] 1
| 17>     print[ P_OrbEn ] 0
| 18>     print[ P_Cartesian ] 0
| 19> end
| 20> % elprop
| 21>     Dipole false
| 22> end
| 23> *xyz 1 1
| 24>  O        2.8755505273     1.1935425432     0.3215130270
| 25>  C        1.8919515229     0.2047193992     0.1366084876
| 26>  C        2.5191627687    -1.0543233617     0.6522654748
| 27>  N        2.0712735647    -2.0884456081     1.2258331978
| 28>  N        3.8923144479    -1.0969460496     0.3659271744
| 29>  C        4.7070026515    -1.6683873231     1.2217280840
| 30>  C        6.0350273230    -1.6817540892     0.8301798610
| 31>  H        3.1302255969     1.5821233614    -0.5204489113
| 32>  H        1.6049718375     0.0725499413    -0.9116975717
| 33>  H        0.9941687658     0.4482515114     0.7097893627
| 34>  H        1.0543455806    -2.1821315524     1.2047431103
| 35>  H        4.3701466327    -2.0380496767     2.1886117499
| 36>  H        6.2963758493    -1.3358175664    -0.1652549376
| 37>  H        6.8255129313    -2.0000415293     1.5041018911
| 38> *
| 39>
| 40>                          ****END OF INPUT****
 Total Charge           Charge          ....    1
 Multiplicity           Mult            ....    1
 Number of Electrons    NEL             ....   52
 Basis Dimension        Dim             ....  259
FINAL SINGLE POINT ENERGY      -340.698439642486
FINAL SINGLE POINT ENERGY      -340.698440384657
FINAL SINGLE POINT ENERGY      -340.698441332160
FINAL SINGLE POINT ENERGY      -340.698441868995
FINAL SINGLE POINT ENERGY      -340.698442473736
FINAL SINGLE POINT ENERGY      -340.698443263804
FINAL SINGLE POINT ENERGY      -340.698444729702
FINAL SINGLE POINT ENERGY      -340.698447671638
FINAL SINGLE POINT ENERGY      -340.698452152476

CARTESIAN COORDINATES (ANGSTROEM)
---------------------------------
  O      0.021180    0.020500    2.106831
  C      1.065743   -0.621336    1.416109
  C      0.854651   -0.226546   -0.011963
  N      1.644320    0.048532   -0.964406
  N     -0.501313   -0.247126   -0.362333
  C     -0.947204    0.622653   -1.237313
  C     -2.296799    0.501045   -1.527287
  H     -0.397130   -0.579964    2.730473
  H      1.019950   -1.713228    1.492684
  H      2.045752   -0.291056    1.771129
  H      2.622373   -0.172735   -0.768130
  H     -0.320801    1.412340   -1.648062
  H     -2.852630   -0.331447   -1.106627
  H     -2.818034    1.232697   -2.138467

FINAL SINGLE POINT ENERGY      -340.698456143337

VIBRATIONAL FREQUENCIES
-----------------------

   0:         0.00 cm**-1
   1:         0.00 cm**-1
   2:         0.00 cm**-1
   3:         0.00 cm**-1
   4:         0.00 cm**-1
   5:         0.00 cm**-1
   6:    -32712.16 cm**-1 ***imaginary mode***
   7:    -27794.68 cm**-1 ***imaginary mode***
   8:    -26351.95 cm**-1 ***imaginary mode***
   9:    -24522.07 cm**-1 ***imaginary mode***
  10:    -19410.96 cm**-1 ***imaginary mode***
  11:    -16617.47 cm**-1 ***imaginary mode***
  12:    -15691.30 cm**-1 ***imaginary mode***
  13:    -13973.18 cm**-1 ***imaginary mode***
  14:    -10934.02 cm**-1 ***imaginary mode***
  15:     -9092.34 cm**-1 ***imaginary mode***
  16:     -8237.36 cm**-1 ***imaginary mode***
  17:     -7470.60 cm**-1 ***imaginary mode***
  18:     -6009.85 cm**-1 ***imaginary mode***
  19:     -5352.34 cm**-1 ***imaginary mode***
  20:     -4209.44 cm**-1 ***imaginary mode***
  21:     -3876.66 cm**-1 ***imaginary mode***
  22:     -3595.17 cm**-1 ***imaginary mode***
  23:     -2929.58 cm**-1 ***imaginary mode***
  24:     -2597.56 cm**-1 ***imaginary mode***
  25:     -2428.63 cm**-1 ***imaginary mode***
  26:     -2044.57 cm**-1 ***imaginary mode***
  27:     -1733.83 cm**-1 ***imaginary mode***
  28:     -1230.25 cm**-1 ***imaginary mode***
  29:     -1019.67 cm**-1 ***imaginary mode***
  30:      -954.60 cm**-1 ***imaginary mode***
  31:      -764.50 cm**-1 ***imaginary mode***
  32:       911.40 cm**-1
  33:      1051.30 cm**-1
  34:      1713.96 cm**-1
  35:      2011.21 cm**-1
  36:      2061.88 cm**-1
  37:      2169.57 cm**-1
  38:      3273.00 cm**-1
  39:      3350.91 cm**-1
  40:      3508.30 cm**-1
  41:      4059.94 cm**-1

IR SPECTRUM
-----------

 Mode    freq (cm**-1)   T**2         TX         TY         TZ
-------------------------------------------------------------------
  32:       911.40    2.888954  (  1.532021  -0.678750   0.284897)
  33:      1051.30   50.940807  ( -0.265601   0.611090   7.106112)
  34:      1713.96    4.784404  ( -0.555685  -0.866990  -1.929753)
  35:      2011.21   18.398135  ( -3.647421   0.645928   2.162690)
  36:      2061.88   46.612503  ( -4.083727  -3.440457  -4.254284)
  37:      2169.57   72.523076  ( -4.406400   5.399456   4.894138)
  38:      3273.00   39.111752  ( -4.701842  -1.785913   3.716847)
  39:      3350.91   49.184778  (  6.497411   1.787772   1.942240)
  40:      3508.30   14.809237  ( -0.782084   3.078245  -2.173014)
  41:      4059.94  107.345079  ( -0.059549   3.456075  -9.767143)

--------------------------
THERMOCHEMISTRY AT 298.15K
--------------------------

Temperature         ... 298.15 K
Pressure            ... 1.00 atm
Total Mass          ... 99.11 AMU

Throughout the following assumptions are being made:
  (1) The electronic state is orbitally nondegenerate
  (2) There are no thermally accessible electronically excited states
  (3) Hindered rotations indicated by low frequency modes) are not
      treated as such but are treated as vibrations and this may
      case some error
  (4) All equations used are the standard statistical mechanics
      equations for an ideal gas
  (5) All vibrations are strinctly harmonic

------------
INNER ENERGY
------------

The inner energy is: U= E(el) + E(ZPE) + E(vib) + E(rot) + E(trans)
    E(el)   - is the total energy from the electronic structure calculation
              = E(kin-el) + E(nuc-el) + E(el-el) + E(nuc-nuc)
    E(ZPE)  - the the zero temperature vibrational energy from the frequency calculation
    E(vib)  - the the finite temperature correction to E(ZPE) due to population
              of excietd vibrational states
    E(rot)  - is the rotational thermal energy
    E(trans)- is the translational thermal energy

Summary of contributions to the inner energy U:
Electronic energy                ...   -340.69845614 Eh
Zero point energy                ...      0.05492999 Eh      34.47 kcal/mol
Thermal vibrational correction   ...      0.00008520 Eh       0.05 kcal/mol
Thermal rotational correction    ...      0.00141627 Eh       0.89 kcal/mol
Thermal translational correction ...      0.00141627 Eh       0.89 kcal/mol
-----------------------------------------------------------------------
Total thermal energy                   -340.64060841 Eh

Summary of corrections to the electronic energy:
(perhaps to be used in another calculation)
Total thermal correction                  0.00291774 Eh       1.83 kcal/mol
Non-thermal (ZPE) correction              0.05492999 Eh      34.47 kcal/mol
-----------------------------------------------------------------------
Total correction                          0.05784774 Eh      36.30 kcal/mol

--------
ENTHALPY
--------

The enthalpy is H = U + kB*T
                kB is Boltzmann's constant
Total free energy                 ...   -340.64060841 Eh
Thermal Enthalpy correction       ...      0.00094421 Eh       0.59 kcal/mol
-----------------------------------------------------------------------
Total Enthalpy                    ...   -340.63966420 Eh

-------
ENTROPY
-------

The entropy contributions are T*S = T*(S(el)+S(vib)+S(rot)+S(trans)
     S(el)   - electronic entropy
     S(vib)  - vibrational entropy
     S(rot)  - rotational entropy
     S(trans)- translational entropy
The entropies will be listed as mutliplied by the temperature to get
units of energy

Electronic entropy                ...      0.00000000 Eh      0.00 kcal/mol
Vibrational entropy               ...      0.00010319 Eh      0.06 kcal/mol
Rotational entropy                ...      0.01211355 Eh      7.60 kcal/mol
Translational entropy             ...      0.01885862 Eh     11.83 kcal/mol
-----------------------------------------------------------------------
Final entropy term                ...      0.03107537 Eh     19.50 kcal/mol

CAUTION: The rotational entropy is not quite correctly treated here
         because it includes a symmetry number that is not yet correctly
         implemented in ORCA!
For a nonlinear molecule the correct rotational entropy is:
    S(rot) = R*(ln(qrot/sn)+1.5)
    R    = 8.31441 J/mol/K = 1.987191683e-3 kcal/mol/K
    qrot = 249772.7118378
    sn is the rotational symmetry number. We have assumed 3 here
       if it is different for your molecule then you should correct
       the printed rotational entropy by manually evaluating the equation
       as given above

For convenience we print out the resulting values for sn=1 - 12:
 sn= 1  qrot/sn=  249772.7118 T*S(rot)=     8.25 kcal/mol T*S(tot)=    20.15 kcal/mol
 sn= 2  qrot/sn=  124886.3559 T*S(rot)=     7.84 kcal/mol T*S(tot)=    19.74 kcal/mol
 sn= 3  qrot/sn=   83257.5706 T*S(rot)=     7.60 kcal/mol T*S(tot)=    19.50 kcal/mol
 sn= 4  qrot/sn=   62443.1780 T*S(rot)=     7.43 kcal/mol T*S(tot)=    19.33 kcal/mol
 sn= 5  qrot/sn=   49954.5424 T*S(rot)=     7.30 kcal/mol T*S(tot)=    19.20 kcal/mol
 sn= 6  qrot/sn=   41628.7853 T*S(rot)=     7.19 kcal/mol T*S(tot)=    19.09 kcal/mol
 sn= 7  qrot/sn=   35681.8160 T*S(rot)=     7.10 kcal/mol T*S(tot)=    19.00 kcal/mol
 sn= 8  qrot/sn=   31221.5890 T*S(rot)=     7.02 kcal/mol T*S(tot)=    18.92 kcal/mol
 sn= 9  qrot/sn=   27752.5235 T*S(rot)=     6.95 kcal/mol T*S(tot)=    18.85 kcal/mol
 sn=10  qrot/sn=   24977.2712 T*S(rot)=     6.89 kcal/mol T*S(tot)=    18.79 kcal/mol
 sn=11  qrot/sn=   22706.6102 T*S(rot)=     6.83 kcal/mol T*S(tot)=    18.73 kcal/mol
 sn=12  qrot/sn=   20814.3927 T*S(rot)=     6.78 kcal/mol T*S(tot)=    18.68 kcal/mol

-------------------
GIBBS FREE ENTHALPY
-------------------

The Gibbs free enthalpy is G = H - T*S

Total enthalpy                    ...   -340.63966420 Eh
Total entropy correction          ...     -0.03107537 Eh    -19.50 kcal/mol
-----------------------------------------------------------------------
Final Gibbs free enthalpy         ...   -340.67073956 Eh

For completeness - the Gibbs free enthalpy minus the electronic energy
G-E(el)                           ...      0.02771658 Eh     17.39 kcal/mol

                             ****ORCA TERMINATED NORMALLY****
TOTAL RUN TIME: 0 days 0 hours 41 minutes 3 seconds 25 msec
